Title
42794
    1SAPS     N    1   2.968   3.337   6.021  0.0441  0.9350  0.6020
    1SAPS   HN1    2   3.056   3.365   5.975 -1.6053  0.3768 -3.3115
    1SAPS   HN2    3   2.895   3.355   5.950  0.1914 -0.0460  0.1823
    1SAPS   HN3    4   2.959   3.390   6.110  2.3100 -0.7881  1.9611
    1SAPS   C12    5   2.984   3.187   6.068  0.2091 -0.4499  0.7441
    1SAPS  H12A    6   3.072   3.182   6.131  0.1524  2.3690  1.2150
    1SAPS   C13    7   2.862   3.147   6.152  1.5085  0.3965  0.0543
    1SAPS  O13A    8   2.758   3.218   6.173  0.4439 -0.9642  0.3273
    1SAPS  O13B    9   2.858   3.027   6.193 -0.1351 -0.1121  0.8194
    1SAPS   C11   10   2.988   3.095   5.941  0.1612 -0.0690  0.2894
    1SAPS  H11A   11   2.889   3.118   5.895 -0.3732 -2.4606  0.1355
    1SAPS  H11B   12   2.964   2.989   5.965  1.0036 -0.5877 -1.0395
    1SAPS     P   13   3.238   3.028   5.892  0.4551  0.0359  0.1458
    1SAPS   O13   14   3.296   3.060   6.026  0.4741 -0.5059 -0.0482
    1SAPS   O14   15   3.210   2.889   5.877  0.3515 -0.2524 -0.6042
    1SAPS   O12   16   3.098   3.108   5.856  0.1068  0.0009  0.6464
    1SAPS   O11   17   3.345   3.082   5.779 -0.2308  0.4103 -0.5538
    1SAPS    C1   18   3.311   3.212   5.725  0.2762 -0.0633 -0.2505
    1SAPS    HA   19   3.217   3.218   5.665  0.1420  0.7417  0.0182
    1SAPS    HB   20   3.304   3.287   5.807 -0.3873 -0.9745  0.5379
    1SAPS    C2   21   3.423   3.248   5.623  0.9942 -0.4737  0.0141
    1SAPS    HS   22   3.498   3.301   5.685  1.9179 -0.6497 -0.9207
    1SAPS   O21   23   3.356   3.334   5.523 -0.3708 -0.0729 -0.1191
    1SAPS   C21   24   3.446   3.420   5.467  0.8580  0.3509  0.1957
    1SAPS   O22   25   3.557   3.441   5.510 -0.4861 -0.2092  0.0749
    1SAPS   C22   26   3.370   3.488   5.351 -0.1323 -0.2160  0.6588
    1SAPS   H2R   27   3.384   3.423   5.262  1.5521 -1.5297  1.8091
    1SAPS   H2S   28   3.264   3.486   5.385 -0.3593  4.3422  0.7633
    1SAPS    C3   29   3.491   3.127   5.550  0.7905 -0.2336 -0.5369
    1SAPS    HX   30   3.410   3.076   5.495 -0.3139 -1.3016  1.9304
    1SAPS    HY   31   3.527   3.048   5.620 -3.5900 -2.4578 -0.4390
    1SAPS   O31   32   3.594   3.165   5.458  0.2882 -0.6954  0.1922
    1SAPS   C31   33   3.712   3.197   5.500  0.2727  0.1473  0.1324
    1SAPS   O32   34   3.739   3.217   5.620  0.0714  0.2427 -0.0587
    1SAPS   C32   35   3.821   3.201   5.391 -0.0661  0.4825  0.2812
    1SAPS   H2X   36   3.837   3.101   5.345 -2.1123  0.6977 -1.0102
    1SAPS   H2Y   37   3.911   3.237   5.445 -0.5526  1.0347  0.7255
    1SAPS   C23   38   3.421   3.635   5.340 -0.0619 -0.0731  0.1535
    1SAPS   H3R   39   3.532   3.635   5.350 -0.2314 -0.7349  2.6661
    1SAPS   H3S   40   3.378   3.696   5.422 -3.0605 -2.2346  0.3486
    1SAPS   C24   41   3.392   3.718   5.212  1.0319  0.4345 -0.2972
    1SAPS   H4R   42   3.421   3.819   5.248  1.8195  0.1802 -0.1977
    1SAPS   H4S   43   3.284   3.724   5.188  1.2677  4.9471 -1.1101
    1SAPS   C25   44   3.474   3.681   5.087  0.0973 -0.1867 -0.2842
    1SAPS   H5R   45   3.436   3.604   5.019  0.3265  1.0600 -1.8967
    1SAPS   C26   46   3.565   3.765   5.035 -0.4588 -0.1014  0.2408
    1SAPS   H6R   47   3.619   3.747   4.941  0.0201 -1.5986  0.7687
    1SAPS   C27   48   3.605   3.894   5.093 -0.4311 -0.5386 -0.0197
    1SAPS   H7R   49   3.604   3.901   5.204  0.5443 -2.4530  0.1530
    1SAPS   H7S   50   3.524   3.962   5.059  0.8934  1.3389  0.4793
    1SAPS   C28   51   3.733   3.946   5.039 -0.1647  0.6911  0.2356
    1SAPS   H8R   52   3.819   3.896   5.086 -1.4836 -0.6788  1.3040
    1SAPS   C29   53   3.757   4.030   4.939  0.3425 -0.0328  0.4930
    1SAPS   H9R   54   3.849   4.042   4.880 -0.1803  1.7436 -0.0169
    1SAPS  C210   55   3.647   4.111   4.873 -0.4051  0.1003  0.1745
    1SAPS  H10R   56   3.583   4.161   4.949  1.8394 -0.7016  2.7450
    1SAPS  H10S   57   3.574   4.046   4.819  0.4135  0.1441 -1.0347
    1SAPS  C211   58   3.709   4.219   4.783  0.2222  0.2435  0.0239
    1SAPS  H11R   59   3.745   4.308   4.837 -0.2852 -1.1411  2.8268
    1SAPS  C212   60   3.725   4.219   4.645 -0.0532  0.3120  0.6611
    1SAPS  H12R   61   3.778   4.303   4.597 -1.8529 -0.1901 -2.4231
    1SAPS  C213   62   3.684   4.113   4.545  0.3954  0.4115 -0.0818
    1SAPS  H13R   63   3.581   4.081   4.571  0.1820  2.7610  2.3121
    1SAPS  H13S   64   3.735   4.018   4.574  0.6431  0.4967 -0.2369
    1SAPS  C214   65   3.694   4.140   4.392  0.3278 -0.4426  1.0157
    1SAPS  H14R   66   3.741   4.238   4.372  0.4376  0.2140  3.9874
    1SAPS  C215   67   3.622   4.076   4.297 -0.4739  0.4574  0.0441
    1SAPS  H15R   68   3.617   4.103   4.191 -0.3346 -0.4003 -0.1882
    1SAPS  C216   69   3.537   3.951   4.318  0.3517 -0.1457  0.3790
    1SAPS  H16R   70   3.428   3.975   4.315  0.1339 -1.1604 -0.2968
    1SAPS  H16S   71   3.555   3.897   4.414 -2.9515  1.1726  1.9077
    1SAPS  C217   72   3.551   3.857   4.198 -0.3070 -0.2528 -0.0331
    1SAPS  H17R   73   3.516   3.914   4.109  1.0956  0.9449  0.1452
    1SAPS  H17S   74   3.485   3.769   4.214  0.4249 -0.6557  0.8132
    1SAPS  C218   75   3.694   3.812   4.163 -0.3828  0.7855 -0.2893
    1SAPS  H18R   76   3.767   3.895   4.154 -0.1165  0.6213  0.2800
    1SAPS  H18S   77   3.701   3.749   4.072  0.8529  0.5301 -0.0389
    1SAPS  C219   78   3.742   3.709   4.272  0.0451 -0.0158  0.1951
    1SAPS  H19R   79   3.677   3.619   4.268  1.1478 -0.8131 -3.4053
    1SAPS  H19S   80   3.735   3.763   4.369  1.2776  2.1503 -0.8488
    1SAPS  C220   81   3.883   3.656   4.253  0.8318  0.2124 -0.0935
    1SAPS  H20R   82   3.912   3.580   4.328 -3.2553 -0.3353  1.1889
    1SAPS  H20S   83   3.960   3.733   4.272  0.5888  0.1703  1.1429
    1SAPS  H20T   84   3.896   3.613   4.152  0.8568 -0.6596  0.2705
    1SAPS   C33   85   3.777   3.297   5.279  0.3446  0.1734  0.1231
    1SAPS   H3X   86   3.725   3.385   5.322 -0.0088 -0.2825  0.6559
    1SAPS   H3Y   87   3.705   3.238   5.218  0.4412 -0.0017  0.1760
    1SAPS   C34   88   3.884   3.337   5.190 -0.5536 -0.5318 -0.2001
    1SAPS   H4X   89   3.922   3.251   5.130 -1.9416 -0.7780 -0.7577
    1SAPS   H4Y   90   3.971   3.370   5.251 -1.5222 -0.4346  1.1786
    1SAPS   C35   91   3.850   3.452   5.089  0.0712  1.3032 -0.0226
    1SAPS   H5X   92   3.816   3.543   5.142  0.3745  0.2598  2.0593
    1SAPS   H5Y   93   3.756   3.422   5.037  0.4937 -0.8747  0.3423
    1SAPS   C36   94   3.946   3.485   4.972 -0.0400 -0.1324  0.0099
    1SAPS   H6X   95   3.952   3.396   4.906 -0.5125 -1.0831  1.2074
    1SAPS   H6Y   96   4.049   3.510   5.005 -0.0621 -1.6058  1.2831
    1SAPS   C37   97   3.911   3.609   4.884 -0.3476 -0.9408  0.9126
    1SAPS   H7X   98   4.000   3.621   4.819  0.3012  1.5227  2.1484
    1SAPS   H7Y   99   3.903   3.692   4.957  0.4259 -1.1155  1.2085
    1SAPS   C38  100   3.778   3.587   4.801 -0.6185  0.7327 -0.1134
    1SAPS   H8X  101   3.712   3.555   4.884  1.4547  2.4166  2.3645
    1SAPS   H8Y  102   3.796   3.503   4.731 -2.0643  0.1745  0.1666
    1SAPS   C39  103   3.736   3.699   4.708  0.2583 -1.2577  0.5290
    1SAPS   H9X  104   3.830   3.739   4.663  0.5839 -1.8395  0.6824
    1SAPS   H9Y  105   3.700   3.791   4.759  0.3556 -1.3676  0.7991
    1SAPS  C310  106   3.627   3.665   4.611  0.1364 -0.3606  0.6280
    1SAPS  H10X  107   3.649   3.561   4.577  0.6414  0.1420 -0.6276
    1SAPS  H10Y  108   3.636   3.736   4.526 -0.8629  1.2881  1.8410
    1SAPS  C311  109   3.482   3.674   4.661  0.2418  0.4252 -0.4179
    1SAPS  H11X  110   3.476   3.766   4.722  1.0091 -1.6321  3.0304
    1SAPS  H11Y  111   3.451   3.579   4.710  0.2499  1.7278  2.2466
    1SAPS  C312  112   3.379   3.704   4.555  0.6697  0.0267 -0.0389
    1SAPS  H12X  113   3.407   3.801   4.509  1.3066 -0.5704 -0.9430
    1SAPS  H12Y  114   3.279   3.706   4.602  1.1732  0.3427  1.0563
    1SAPS  C313  115   3.377   3.600   4.441  0.1904  0.2552  0.7205
    1SAPS  H13X  116   3.474   3.588   4.388 -0.6638 -0.5538 -0.7267
    1SAPS  H13Y  117   3.313   3.632   4.356  2.9132 -0.9273 -1.9914
    1SAPS  C314  118   3.330   3.456   4.478  0.0921  0.7691  0.1180
    1SAPS  H14X  119   3.237   3.475   4.535  0.8359  2.1646  0.9192
    1SAPS  H14Y  120   3.401   3.400   4.542 -0.8077  0.5220  0.9163
    1SAPS  C315  121   3.312   3.380   4.345 -0.3379  0.4694 -0.3169
    1SAPS  H15X  122   3.411   3.367   4.295  0.2680  0.5446  0.8212
    1SAPS  H15Y  123   3.252   3.441   4.276 -2.1535  1.1183  1.7318
    1SAPS  C316  124   3.250   3.241   4.378 -0.3008 -0.1331 -0.0678
    1SAPS  H16X  125   3.158   3.247   4.440 -2.0665  1.2878 -2.6331
    1SAPS  H16Y  126   3.325   3.181   4.434  0.1110  1.0779  0.7235
    1SAPS  C317  127   3.213   3.169   4.241  0.1897  0.1527 -0.1910
    1SAPS  H17X  128   3.154   3.237   4.175  0.9022 -0.5824 -1.6269
    1SAPS  H17Y  129   3.149   3.084   4.271 -0.0458  0.0767 -0.8786
    1SAPS  C318  130   3.326   3.099   4.171 -0.0222 -0.4260 -0.1881
    1SAPS  H18X  131   3.370   3.174   4.102  2.3598 -3.1624 -1.8675
    1SAPS  H18Y  132   3.297   3.021   4.097 -1.0676  0.0283 -0.2770
    1SAPS  H18Z  133   3.414   3.067   4.231  1.5121  1.8204 -1.1059
    2SAPS     N  134   4.328   5.294   6.240 -0.2329 -0.1497  0.2448
    2SAPS   HN1  135   4.381   5.343   6.315  3.5163 -1.6392 -1.1969
    2SAPS   HN2  136   4.311   5.196   6.271  0.8036 -0.3339  0.2607
    2SAPS   HN3  137   4.401   5.294   6.166 -0.8591  0.8519 -0.4042
    2SAPS   C12  138   4.201   5.373   6.204 -0.0541 -0.6965 -0.0163
    2SAPS  H12A  139   4.149   5.323   6.123 -0.5128  1.1116 -0.8776
    2SAPS   C13  140   4.099   5.394   6.316 -0.6047 -0.7568  0.0879
    2SAPS  O13A  141   4.118   5.325   6.420 -1.0247  0.1817 -0.5497
    2SAPS  O13B  142   3.988   5.452   6.300 -0.5928 -0.2762 -0.3203
    2SAPS   C11  143   4.241   5.520   6.150  0.0008  0.1851 -0.6400
    2SAPS  H11A  144   4.270   5.580   6.238  0.0973  0.5855 -0.9410
    2SAPS  H11B  145   4.150   5.569   6.107 -0.0543  1.1795  0.5673
    2SAPS     P  146   4.313   5.517   5.903  0.0724 -0.0962  0.1311
    2SAPS   O13  147   4.434   5.544   5.825  0.1664  0.1421  0.1853
    2SAPS   O14  148   4.237   5.398   5.872  0.2573 -0.5868 -0.1116
    2SAPS   O12  149   4.350   5.511   6.055  0.2695  0.2613 -0.3600
    2SAPS   O11  150   4.214   5.643   5.889 -0.0906 -0.0146 -0.4932
    2SAPS    C1  151   4.220   5.738   5.777  0.1127  0.0203 -0.5903
    2SAPS    HA  152   4.190   5.837   5.816 -2.3693 -1.5642  1.8702
    2SAPS    HB  153   4.325   5.749   5.742 -0.2209 -1.8979 -2.4337
    2SAPS    C2  154   4.122   5.694   5.665 -0.9166 -0.4691  0.1824
    2SAPS    HS  155   4.021   5.705   5.710 -0.3702  0.1532  1.3182
    2SAPS   O21  156   4.163   5.567   5.615  0.1073 -0.3597  0.1245
    2SAPS   C21  157   4.065   5.486   5.573  1.1622  0.1455 -0.1823
    2SAPS   O22  158   3.947   5.502   5.584  0.3741  0.1007  0.4204
    2SAPS   C22  159   4.129   5.362   5.511  0.3101  0.5495  0.0378
    2SAPS   H2R  160   4.194   5.409   5.435  0.8421  0.5313  0.4786
    2SAPS   H2S  161   4.190   5.299   5.580  0.4252 -0.1280 -0.6690
    2SAPS    C3  162   4.140   5.797   5.550 -0.2115  0.3441 -0.6916
    2SAPS    HX  163   4.245   5.781   5.516  0.9848 -1.0474  3.0925
    2SAPS    HY  164   4.129   5.893   5.606 -1.3031  0.1540 -0.5520
    2SAPS   O31  165   4.051   5.773   5.443  0.3738  0.0906  0.4192
    2SAPS   C31  166   3.928   5.824   5.456  0.1855  0.1813 -0.1453
    2SAPS   O32  167   3.892   5.896   5.551  0.5901  0.0931 -0.2361
    2SAPS   C32  168   3.832   5.772   5.345 -0.1613 -0.2719  0.3958
    2SAPS   H2X  169   3.758   5.854   5.335 -0.2569 -0.5060 -1.0982
    2SAPS   H2Y  170   3.770   5.699   5.401  0.2319 -1.3299 -0.5061
    2SAPS   C23  171   4.019   5.266   5.452  0.1523  0.6249  0.1007
    2SAPS   H3R  172   3.942   5.233   5.525 -1.2630 -2.8375 -2.6815
    2SAPS   H3S  173   4.076   5.172   5.438 -0.3074  0.1625  1.1850
    2SAPS   C24  174   3.954   5.324   5.319 -0.5071 -0.4106  0.1986
    2SAPS   H4R  175   4.041   5.360   5.261  0.5786 -0.8234  1.5139
    2SAPS   H4S  176   3.886   5.411   5.336 -1.1134 -1.3417  3.0690
    2SAPS   C25  177   3.874   5.206   5.272  0.1403 -0.4596  0.6468
    2SAPS   H5R  178   3.824   5.150   5.353 -0.3945 -1.0165 -0.0475
    2SAPS   C26  179   3.868   5.173   5.146 -0.7579  0.5054  0.1870
    2SAPS   H6R  180   3.794   5.100   5.110  1.9373 -1.4535 -1.8843
    2SAPS   C27  181   3.953   5.224   5.036  0.0599  0.4289 -0.5194
    2SAPS   H7R  182   3.982   5.132   4.982 -0.0816  0.9483 -1.5064
    2SAPS   H7S  183   4.045   5.272   5.075 -0.8434  1.1319  0.8586
    2SAPS   C28  184   3.869   5.315   4.950  0.2809  0.3779  0.3050
    2SAPS   H8R  185   3.828   5.398   5.009  1.3834  0.4115  1.0552
    2SAPS   C29  186   3.840   5.306   4.817  0.4117  0.3529 -0.1012
    2SAPS   H9R  187   3.785   5.382   4.760 -0.7949 -0.6684 -0.3610
    2SAPS  C210  188   3.889   5.191   4.729 -0.2175  0.8070  0.5365
    2SAPS  H10R  189   3.910   5.098   4.785 -1.1901  0.5644  0.5233
    2SAPS  H10S  190   3.983   5.223   4.679  0.1624  0.8626  1.2799
    2SAPS  C211  191   3.781   5.161   4.633 -0.1066  0.2772 -0.0079
    2SAPS  H11R  192   3.723   5.070   4.654  0.2757  0.4535  2.0823
    2SAPS  C212  193   3.748   5.231   4.527  0.7482  0.2655 -0.2789
    2SAPS  H12R  194   3.661   5.187   4.476 -0.0573 -1.3537  2.3278
    2SAPS  C213  195   3.806   5.362   4.472 -0.3115  0.5190 -0.3783
    2SAPS  H13R  196   3.857   5.344   4.375 -1.0070  0.2517 -0.7074
    2SAPS  H13S  197   3.885   5.401   4.539 -0.1570 -1.2621  0.5327
    2SAPS  C214  198   3.706   5.466   4.447  0.3789 -0.0185 -0.2610
    2SAPS  H14R  199   3.622   5.435   4.383 -0.5859  0.6960  0.6184
    2SAPS  C215  200   3.718   5.597   4.473 -0.4564 -0.2101 -0.0288
    2SAPS  H15R  201   3.645   5.675   4.450 -0.0721  0.1264 -0.1200
    2SAPS  C216  202   3.842   5.659   4.550 -0.3876  0.3796  0.3625
    2SAPS  H16R  203   3.897   5.597   4.623  1.5395  0.9813 -0.5113
    2SAPS  H16S  204   3.818   5.746   4.614  1.9800  1.7635 -0.5101
    2SAPS  C217  205   3.939   5.708   4.439 -0.8381  0.6557  0.1743
    2SAPS  H17R  206   3.972   5.629   4.369  1.8976 -0.4027  2.4530
    2SAPS  H17S  207   4.026   5.731   4.504 -1.1275 -1.1263  1.2483
    2SAPS  C218  208   3.896   5.838   4.364 -0.3003  0.3932 -0.1623
    2SAPS  H18R  209   3.787   5.820   4.351  0.0102 -1.7021 -0.2271
    2SAPS  H18S  210   3.950   5.844   4.268  2.0697  1.6100  1.1550
    2SAPS  C219  211   3.918   5.968   4.440 -0.2301  0.1048 -0.6177
    2SAPS  H19R  212   4.024   5.969   4.474 -0.4646  1.2489  0.1426
    2SAPS  H19S  213   3.860   5.964   4.535  0.4013 -1.7182 -0.2521
    2SAPS  C220  214   3.894   6.095   4.360  0.0289 -0.7054 -0.6497
    2SAPS  H20R  215   3.966   6.121   4.280 -0.6178  1.8241 -0.4970
    2SAPS  H20S  216   3.917   6.175   4.434 -1.2277 -0.1100 -0.8584
    2SAPS  H20T  217   3.791   6.104   4.319 -0.1115  2.4743  0.1407
    2SAPS   C33  218   3.882   5.703   5.216 -0.0266  0.2621  0.3814
    2SAPS   H3X  219   3.797   5.642   5.179 -1.6610  1.0375  2.5836
    2SAPS   H3Y  220   3.966   5.632   5.229  1.8515  2.1119 -0.9455
    2SAPS   C34  221   3.940   5.812   5.115  0.9165  0.5860  0.5284
    2SAPS   H4X  222   4.031   5.858   5.160  1.2187  0.7057 -0.1948
    2SAPS   H4Y  223   3.861   5.889   5.101  0.8042  0.6835  1.6367
    2SAPS   C35  224   3.981   5.742   4.990 -0.0266  0.3566 -0.0248
    2SAPS   H5X  225   4.012   5.823   4.921  0.4413  0.7242  0.6055
    2SAPS   H5Y  226   3.897   5.695   4.935  0.5294 -0.0965 -0.5077
    2SAPS   C36  227   4.103   5.640   4.992 -0.1484  0.3805  0.7627
    2SAPS   H6X  228   4.084   5.559   5.066 -0.3428 -0.1325  0.1591
    2SAPS   H6Y  229   4.184   5.702   5.035 -0.5935  2.2043 -0.8640
    2SAPS   C37  230   4.142   5.573   4.858 -0.2018 -0.4049 -0.8355
    2SAPS   H7X  231   4.176   5.647   4.782 -0.4822 -1.0233 -1.5813
    2SAPS   H7Y  232   4.047   5.539   4.811 -0.4474  1.9087 -2.1630
    2SAPS   C38  233   4.237   5.460   4.861  0.4892  0.2465 -0.1672
    2SAPS   H8X  234   4.195   5.380   4.927  1.1127 -0.1195 -0.2017
    2SAPS   H8Y  235   4.337   5.476   4.906  1.4680 -0.5701 -1.9350
    2SAPS   C39  236   4.255   5.384   4.724 -0.4989  0.3274 -0.4528
    2SAPS   H9X  237   4.156   5.379   4.674 -1.0229 -0.1669  0.6137
    2SAPS   H9Y  238   4.294   5.282   4.742 -0.2640  0.4625 -0.1875
    2SAPS  C310  239   4.363   5.444   4.634 -0.1761 -0.2994  0.0243
    2SAPS  H10X  240   4.465   5.459   4.675  0.1375  0.0812 -0.8741
    2SAPS  H10Y  241   4.339   5.549   4.608  1.4566  0.5322  1.6764
    2SAPS  C311  242   4.383   5.369   4.495 -0.4324 -0.2162  0.0615
    2SAPS  H11X  243   4.404   5.262   4.518 -2.9905 -0.3999  1.9691
    2SAPS  H11Y  244   4.467   5.412   4.436 -2.2122 -0.4692 -2.8344
    2SAPS  C312  245   4.257   5.383   4.410 -0.6257 -0.0566 -0.0377
    2SAPS  H12X  246   4.232   5.491   4.403 -1.5343 -0.2870 -0.7143
    2SAPS  H12Y  247   4.174   5.339   4.469 -0.5123  0.9837  0.9160
    2SAPS  C313  248   4.261   5.328   4.270  0.7314 -0.0912 -0.4078
    2SAPS  H13X  249   4.281   5.219   4.273 -0.6341 -0.5625 -3.6588
    2SAPS  H13Y  250   4.352   5.363   4.217  0.5249  0.3455 -0.4816
    2SAPS  C314  251   4.136   5.346   4.191 -0.0656  0.5276  0.2263
    2SAPS  H14X  252   4.108   5.452   4.172  0.6311  0.1982 -3.4523
    2SAPS  H14Y  253   4.057   5.301   4.255  0.2242 -0.1458  0.1221
    2SAPS  C315  254   4.154   5.276   4.059  0.2261  0.4449 -0.1675
    2SAPS  H15X  255   4.160   5.167   4.081 -3.2306 -0.0985 -1.3940
    2SAPS  H15Y  256   4.247   5.299   4.002  0.2548  2.5108  0.6188
    2SAPS  C316  257   4.032   5.295   3.965  0.3375  0.8954  0.3240
    2SAPS  H16X  258   4.009   5.403   3.975  2.7803  1.4342  0.9015
    2SAPS  H16Y  259   3.946   5.239   4.007  1.4495 -0.9893  0.1936
    2SAPS  C317  260   4.044   5.258   3.817 -0.3209 -0.3240  0.2625
    2SAPS  H17X  261   4.135   5.305   3.774 -2.1488  2.7785 -0.5607
    2SAPS  H17Y  262   3.967   5.314   3.758 -0.9567 -2.8422 -1.4933
    2SAPS  C318  263   4.037   5.110   3.804 -0.0592  0.4124  0.0448
    2SAPS  H18X  264   3.944   5.064   3.846 -1.1195  1.5486 -0.9911
    2SAPS  H18Y  265   4.130   5.062   3.839 -0.0609 -1.5963 -2.3848
    2SAPS  H18Z  266   4.032   5.088   3.695 -1.0692  3.0108 -0.5000
    3SAPS     N  267   4.624   5.351   5.795  0.0757  0.0513 -0.6533
    3SAPS   HN1  268   4.542   5.414   5.802 -1.4363 -1.7372 -1.2991
    3SAPS   HN2  269   4.693   5.385   5.725  1.5362 -0.7120  0.3629
    3SAPS   HN3  270   4.592   5.256   5.767 -2.1876  0.7476 -0.6235
    3SAPS   C12  271   4.689   5.350   5.929 -0.2088  0.2090 -0.0875
    3SAPS  H12A  272   4.717   5.452   5.950 -2.2618  0.4935  1.5683
    3SAPS   C13  273   4.590   5.312   6.045 -0.1802 -0.4833  0.5603
    3SAPS  O13A  274   4.482   5.257   6.018 -0.0796 -0.1718 -0.1820
    3SAPS  O13B  275   4.645   5.297   6.161  0.1536 -0.0843  0.2297
    3SAPS   C11  276   4.820   5.265   5.914  0.2860  1.1290  0.4512
    3SAPS  H11A  277   4.864   5.255   6.015 -0.9913 -0.0753  0.9079
    3SAPS  H11B  278   4.891   5.316   5.845 -0.1252 -0.6569 -1.4081
    3SAPS     P  279   4.928   5.038   5.855 -0.1079 -0.0546 -0.0943
    3SAPS   O13  280   5.013   5.045   5.978 -0.4514 -0.0352  0.5278
    3SAPS   O14  281   4.877   4.903   5.841  0.0321 -0.3952 -0.2617
    3SAPS   O12  282   4.803   5.132   5.864 -0.0238  0.1755 -0.3088
    3SAPS   O11  283   5.004   5.087   5.729  0.3072 -0.2366  0.0802
    3SAPS    C1  284   4.939   5.098   5.598 -0.1642  0.2934  0.1451
    3SAPS    HA  285   4.839   5.147   5.603 -1.2253 -1.4516 -2.0350
    3SAPS    HB  286   4.995   5.160   5.525 -0.4072  0.5651  0.1829
    3SAPS    C2  287   4.928   4.966   5.523 -0.2119  0.1541  0.8362
    3SAPS    HS  288   4.952   4.882   5.592 -0.6081 -0.6131  0.0719
    3SAPS   O21  289   5.015   4.965   5.413  0.5958  0.5079 -0.3340
    3SAPS   C21  290   5.018   4.858   5.335  0.0205 -0.0504  0.4677
    3SAPS   O22  291   4.981   4.744   5.368  0.5206 -0.1975  0.1087
    3SAPS   C22  292   5.067   4.897   5.197  0.1250 -0.0168  0.1424
    3SAPS   H2R  293   5.025   4.995   5.167 -2.6342 -0.7414  1.2984
    3SAPS   H2S  294   5.177   4.909   5.205 -0.0336  0.3543  2.5175
    3SAPS    C3  295   4.775   4.935   5.493  0.3447  0.1823  0.3744
    3SAPS    HX  296   4.729   4.952   5.592  0.8104 -0.5059  0.7111
    3SAPS    HY  297   4.769   4.830   5.459  0.2629 -0.4446  2.2605
    3SAPS   O31  298   4.728   5.026   5.396  0.2436 -0.0113  0.3005
    3SAPS   C31  299   4.599   5.007   5.350  0.0923  0.1490  0.6376
    3SAPS   O32  300   4.520   4.923   5.392 -0.1526 -0.2429  0.0812
    3SAPS   C32  301   4.570   5.108   5.239  0.0283  0.1635 -0.1756
    3SAPS   H2X  302   4.576   5.210   5.281 -0.8092  0.7237 -1.3428
    3SAPS   H2Y  303   4.475   5.086   5.185 -0.8202 -0.6209  1.5705
    3SAPS   C23  304   5.018   4.792   5.091 -0.1621 -0.6573  0.5590
    3SAPS   H3R  305   4.916   4.755   5.117 -0.1457  0.3075  2.1821
    3SAPS   H3S  306   5.078   4.699   5.095  0.6537 -0.0956  2.8456
    3SAPS   C24  307   5.007   4.854   4.947  0.0499 -0.0755  0.5196
    3SAPS   H4R  308   4.936   4.939   4.931  2.1759  1.5840 -0.5571
    3SAPS   H4S  309   4.972   4.769   4.885  2.0940 -0.5603 -0.0217
    3SAPS   C25  310   5.141   4.892   4.892 -0.4465 -0.0106  0.1714
    3SAPS   H5R  311   5.217   4.916   4.969  0.6468 -1.7328 -0.3172
    3SAPS   C26  312   5.167   4.940   4.772  0.5472 -0.3171  0.0410
    3SAPS   H6R  313   5.270   4.972   4.750  1.2275 -2.0181  0.5911
    3SAPS   C27  314   5.065   4.953   4.660 -0.0604 -0.3803 -0.3071
    3SAPS   H7R  315   4.981   5.011   4.704 -0.8574 -1.5793 -0.2317
    3SAPS   H7S  316   5.028   4.853   4.630 -0.6617 -0.1035 -0.4993
    3SAPS   C28  317   5.107   5.032   4.545  0.2155 -2.1503  0.1947
    3SAPS   H8R  318   5.109   5.141   4.556  1.2448 -2.1306 -0.0683
    3SAPS   C29  319   5.129   4.990   4.421 -0.5942  0.1595 -0.3589
    3SAPS   H9R  320   5.173   5.056   4.345  1.0852 -0.0219  0.3957
    3SAPS  C210  321   5.120   4.850   4.357  0.5038  0.2149  0.0608
    3SAPS  H10R  322   5.063   4.846   4.261 -1.5095  0.3199  1.2015
    3SAPS  H10S  323   5.064   4.790   4.431  0.5880  2.7007  2.2917
    3SAPS  C211  324   5.254   4.792   4.342 -0.0590  0.5669 -0.6380
    3SAPS  H11R  325   5.298   4.765   4.439 -2.2294  0.4312  0.3634
    3SAPS  C212  326   5.330   4.780   4.228  0.2615  1.0455  0.6348
    3SAPS  H12R  327   5.408   4.702   4.233 -2.3143 -1.9146 -1.5744
    3SAPS  C213  328   5.288   4.826   4.088 -0.4022  0.0376 -0.2600
    3SAPS  H13R  329   5.213   4.907   4.101  1.0323  1.0119  3.3050
    3SAPS  H13S  330   5.228   4.748   4.037 -1.8788  0.1636  1.1916
    3SAPS  C214  331   5.405   4.871   3.999  0.8220 -0.4007 -0.1730
    3SAPS  H14R  332   5.498   4.901   4.049  0.4599  0.7449 -0.1583
    3SAPS  C215  333   5.396   4.879   3.860 -0.1672 -0.2489  1.1003
    3SAPS  H15R  334   5.490   4.900   3.807 -1.1691 -1.6275 -1.4244
    3SAPS  C216  335   5.291   4.845   3.768  0.8726  0.0094 -0.4589
    3SAPS  H16R  336   5.283   4.925   3.691 -4.8268  0.7417  0.4725
    3SAPS  H16S  337   5.199   4.842   3.829  1.3192 -2.7628  0.1927
    3SAPS  C217  338   5.307   4.719   3.686 -0.5457  0.1084  0.7084
    3SAPS  H17R  339   5.222   4.708   3.616  0.1236 -0.6670 -0.0121
    3SAPS  H17S  340   5.315   4.629   3.750  0.7321  0.9399  1.7597
    3SAPS  C218  341   5.435   4.724   3.593  0.7650 -0.1566  0.1762
    3SAPS  H18R  342   5.522   4.750   3.657  1.1841 -2.3128  0.5513
    3SAPS  H18S  343   5.431   4.804   3.516  1.8371  1.3722  1.6406
    3SAPS  C219  344   5.468   4.585   3.530 -0.3797 -0.5373  0.0217
    3SAPS  H19R  345   5.576   4.561   3.538  0.0876  1.1847 -0.5941
    3SAPS  H19S  346   5.409   4.499   3.569 -0.1746 -0.6870  0.0053
    3SAPS  C220  347   5.435   4.599   3.383  0.0247 -0.5283  0.2685
    3SAPS  H20R  348   5.334   4.634   3.352  0.2537 -0.8810 -0.9001
    3SAPS  H20S  349   5.437   4.497   3.339  0.2243 -0.4918  0.1941
    3SAPS  H20T  350   5.518   4.659   3.342 -0.5256  0.2122  0.2043
    3SAPS   C33  351   4.671   5.109   5.127  0.1011  0.8866  0.0276
    3SAPS   H3X  352   4.674   5.007   5.084 -1.0218  1.4018 -1.3446
    3SAPS   H3Y  353   4.777   5.122   5.157 -0.1585  0.3581  1.2421
    3SAPS   C34  354   4.638   5.207   5.016  0.2738 -0.0927 -0.0471
    3SAPS   H4X  355   4.656   5.313   5.043 -0.3237 -0.0573  0.2380
    3SAPS   H4Y  356   4.529   5.196   4.994  0.1205  2.0268 -0.5160
    3SAPS   C35  357   4.723   5.173   4.892  0.0292  0.3131  0.1044
    3SAPS   H5X  358   4.829   5.175   4.926 -0.1134 -2.4178  0.9083
    3SAPS   H5Y  359   4.704   5.065   4.872  1.0867 -0.2837  2.0823
    3SAPS   C36  360   4.694   5.257   4.771 -0.3766  0.1804  0.4671
    3SAPS   H6X  361   4.707   5.363   4.804 -1.0468  0.1201  0.9489
    3SAPS   H6Y  362   4.586   5.241   4.747 -0.6302  0.6073  1.2835
    3SAPS   C37  363   4.779   5.215   4.650  1.2985 -0.4743 -0.2362
    3SAPS   H7X  364   4.754   5.110   4.625 -4.9632  0.7444 -0.7770
    3SAPS   H7Y  365   4.885   5.226   4.681  1.6396 -2.7542 -0.4554
    3SAPS   C38  366   4.752   5.287   4.519  0.1124 -0.0436  0.4722
    3SAPS   H8X  367   4.794   5.390   4.524 -0.0373  0.1747 -1.5957
    3SAPS   H8Y  368   4.644   5.306   4.501  0.0426  0.0240  0.9675
    3SAPS   C39  369   4.820   5.209   4.403  0.1298 -0.2596  0.2989
    3SAPS   H9X  370   4.758   5.122   4.372 -1.2938  0.9642 -0.4496
    3SAPS   H9Y  371   4.920   5.177   4.438  0.1982  1.3410  1.7329
    3SAPS  C310  372   4.852   5.295   4.274 -0.4997 -0.4288  0.4184
    3SAPS  H10X  373   4.910   5.382   4.310  2.1975 -1.6306 -0.7934
    3SAPS  H10Y  374   4.748   5.321   4.244 -0.9978 -2.1324  0.5474
    3SAPS  C311  375   4.946   5.221   4.180  0.0621  0.2248  0.4372
    3SAPS  H11X  376   4.899   5.132   4.133  2.2420 -0.6050 -0.3187
    3SAPS  H11Y  377   5.034   5.188   4.239  0.3202 -1.8934 -1.0200
    3SAPS  C312  378   5.004   5.304   4.065 -0.2584 -1.0109 -0.3450
    3SAPS  H12X  379   5.032   5.402   4.110  1.7858 -1.7538  0.1275
    3SAPS  H12Y  380   4.916   5.326   4.001 -1.0332  2.0771  1.5724
    3SAPS  C313  381   5.137   5.249   3.995  0.6102 -0.6762 -0.0265
    3SAPS  H13X  382   5.114   5.150   3.950 -0.9180 -0.1826 -0.4000
    3SAPS  H13Y  383   5.208   5.229   4.078 -1.9321 -1.6452  2.0645
    3SAPS  C314  384   5.207   5.357   3.914  0.0499 -0.3232 -0.2703
    3SAPS  H14X  385   5.197   5.452   3.971  1.2207  0.3618 -1.1438
    3SAPS  H14Y  386   5.151   5.385   3.822  2.4092  0.2897 -1.6038
    3SAPS  C315  387   5.359   5.329   3.883  0.1975  0.0842 -0.6689
    3SAPS  H15X  388   5.405   5.279   3.971  0.9308 -0.5716 -1.4075
    3SAPS  H15Y  389   5.398   5.431   3.865 -2.6006  1.0721 -1.6230
    3SAPS  C316  390   5.367   5.239   3.762 -0.1029  0.1829  0.1252
    3SAPS  H16X  391   5.329   5.293   3.672  1.3257  0.0280 -0.6128
    3SAPS  H16Y  392   5.307   5.146   3.772 -0.6894  0.5720  0.2433
    3SAPS  C317  393   5.508   5.187   3.732 -0.0293  0.0196  0.1659
    3SAPS  H17X  394   5.505   5.113   3.649  1.7898  0.2290 -0.1291
    3SAPS  H17Y  395   5.540   5.146   3.830 -0.9992  0.0523  0.5152
    3SAPS  C318  396   5.602   5.303   3.685  0.6350  0.1959  0.3674
    3SAPS  H18X  397   5.706   5.270   3.666  0.4751 -1.3793  1.9528
    3SAPS  H18Y  398   5.599   5.388   3.757  0.1029  0.7695 -0.3139
    3SAPS  H18Z  399   5.556   5.340   3.591 -0.6708 -0.0018  0.9055
    4SAPS     N  400   2.273   2.096   5.934  0.6921  0.7000  0.3320
    4SAPS   HN1  401   2.212   2.157   5.876  2.1523  0.3122 -1.7176
    4SAPS   HN2  402   2.320   2.148   6.011  0.7235 -1.4443  1.8717
    4SAPS   HN3  403   2.346   2.054   5.874  0.6540 -1.3804  1.6130
    4SAPS   C12  404   2.194   1.979   5.985 -0.0528  0.4296  0.3893
    4SAPS  H12A  405   2.267   1.900   5.995 -0.9787 -0.6509 -0.9806
    4SAPS   C13  406   2.141   2.024   6.122 -0.2375 -0.0755 -0.5048
    4SAPS  O13A  407   2.131   2.141   6.165  0.0136  0.2624  0.2094
    4SAPS  O13B  408   2.101   1.923   6.191 -0.2359 -0.4356 -0.3070
    4SAPS   C11  409   2.074   1.952   5.894 -0.4304 -0.7669 -0.5237
    4SAPS  H11A  410   2.011   2.042   5.885  0.5230 -0.1701 -1.4656
    4SAPS  H11B  411   2.005   1.886   5.950 -0.9441  0.5082  0.3738
    4SAPS     P  412   2.135   1.742   5.737  0.4877 -0.0417 -0.1758
    4SAPS   O13  413   2.242   1.701   5.832 -0.6347 -0.7142  0.0115
    4SAPS   O14  414   2.008   1.664   5.753 -0.1500 -0.2209  0.1743
    4SAPS   O12  415   2.103   1.897   5.763 -0.1574 -0.0618 -0.0430
    4SAPS   O11  416   2.183   1.737   5.584 -0.3586  0.9800  0.1356
    4SAPS    C1  417   2.279   1.842   5.546 -0.2005 -1.0165 -0.2228
    4SAPS    HA  418   2.342   1.879   5.630  1.4055  2.2525 -2.6578
    4SAPS    HB  419   2.342   1.787   5.472  1.2336 -1.4175  1.2293
    4SAPS    C2  420   2.207   1.964   5.482  0.5788  0.0999 -0.0879
    4SAPS    HS  421   2.116   1.968   5.546  1.1337 -1.2652  0.8406
    4SAPS   O21  422   2.169   1.921   5.353  0.1841 -0.5119 -0.4086
    4SAPS   C21  423   2.076   2.000   5.290 -0.3570 -0.1576  0.2978
    4SAPS   O22  424   2.014   2.087   5.354 -0.0258  0.7062  0.2693
    4SAPS   C22  425   2.056   1.965   5.138  0.1759 -0.9951  0.2910
    4SAPS   H2R  426   2.146   2.015   5.094 -0.7608 -0.3938 -0.9877
    4SAPS   H2S  427   2.073   1.856   5.128 -1.5250 -1.2333 -0.3026
    4SAPS    C3  428   2.289   2.096   5.484  0.0916  0.7915 -0.1589
    4SAPS    HX  429   2.289   2.135   5.588 -1.4256 -2.6000  1.2580
    4SAPS    HY  430   2.239   2.171   5.419 -0.8445  1.0379  0.8188
    4SAPS   O31  431   2.430   2.070   5.453 -0.1291  0.5630 -0.4480
    4SAPS   C31  432   2.458   2.107   5.326  0.2937  0.7181 -0.3883
    4SAPS   O32  433   2.377   2.107   5.237  0.0409 -0.1844 -0.5428
    4SAPS   C32  434   2.606   2.123   5.303 -0.3154  0.7844  0.5143
    4SAPS   H2X  435   2.642   2.045   5.373 -1.0621 -0.5320 -0.5063
    4SAPS   H2Y  436   2.632   2.224   5.342  0.0155  0.6687  0.5954
    4SAPS   C23  437   1.925   2.009   5.078  0.2936  0.7499 -0.0937
    4SAPS   H3R  438   1.840   1.972   5.140  0.4338 -1.7480 -1.2872
    4SAPS   H3S  439   1.926   1.960   4.978 -0.1628 -2.0104  1.1555
    4SAPS   C24  440   1.919   2.162   5.054 -0.2932  0.4018  0.4300
    4SAPS   H4R  441   2.016   2.205   5.023  0.5573 -1.9873 -0.4271
    4SAPS   H4S  442   1.896   2.196   5.157 -1.6830  0.7932  0.0152
    4SAPS   C25  443   1.806   2.203   4.953 -0.0473  0.9392 -0.2383
    4SAPS   H5R  444   1.706   2.197   4.999  0.5281 -0.0152  0.9567
    4SAPS   C26  445   1.822   2.243   4.822  0.2574  0.1022 -0.4317
    4SAPS   H6R  446   1.728   2.268   4.770  0.5473  0.3814 -0.8270
    4SAPS   C27  447   1.946   2.263   4.753 -0.1587 -0.4266 -0.2168
    4SAPS   H7R  448   2.020   2.305   4.825 -0.3262  0.2510 -0.4360
    4SAPS   H7S  449   1.926   2.346   4.681 -0.6023  0.1148  0.5208
    4SAPS   C28  450   2.002   2.142   4.680  0.1012  0.6140  0.0548
    4SAPS   H8R  451   1.925   2.082   4.629  0.3969 -0.7124  1.1096
    4SAPS   C29  452   2.128   2.098   4.668  0.4083  0.0487 -0.5078
    4SAPS   H9R  453   2.136   1.995   4.629  2.6817 -0.6056  1.4802
    4SAPS  C210  454   2.249   2.164   4.736  0.4852  0.1023  0.4561
    4SAPS  H10R  455   2.224   2.254   4.796 -1.6024 -0.0664 -0.0591
    4SAPS  H10S  456   2.316   2.201   4.655 -1.4864 -2.7621 -2.7811
    4SAPS  C211  457   2.317   2.054   4.819  0.2379 -0.4200  0.0327
    4SAPS  H11R  458   2.279   2.051   4.922 -1.1104 -0.1231 -0.4320
    4SAPS  C212  459   2.418   1.977   4.780  0.2783 -0.0286 -0.2126
    4SAPS  H12R  460   2.476   1.919   4.853 -0.7800 -2.4595 -1.2169
    4SAPS  C213  461   2.465   1.968   4.643 -0.2234  0.1058  0.4693
    4SAPS  H13R  462   2.378   1.961   4.574  0.5914  0.8158 -0.6554
    4SAPS  H13S  463   2.524   1.874   4.635  1.9812  1.4930 -0.3518
    4SAPS  C214  464   2.548   2.084   4.600  0.1091 -0.2115 -0.1413
    4SAPS  H14R  465   2.502   2.147   4.522 -0.9396  0.5998  1.0843
    4SAPS  C215  466   2.675   2.115   4.638 -0.1722 -0.7995  0.7607
    4SAPS  H15R  467   2.723   2.199   4.587 -0.1587 -1.3804 -0.2137
    4SAPS  C216  468   2.762   2.035   4.726 -0.8904  0.4147  0.5640
    4SAPS  H16R  469   2.705   1.952   4.772  2.0568 -0.7036  2.5233
    4SAPS  H16S  470   2.815   2.093   4.805  1.0592 -0.1169 -0.2904
    4SAPS  C217  471   2.879   1.974   4.646 -0.2342  0.0337 -0.6247
    4SAPS  H17R  472   2.931   1.909   4.720 -0.2694 -2.0665 -2.3498
    4SAPS  H17S  473   2.941   2.060   4.614  0.6094  0.6839  2.4055
    4SAPS  C218  474   2.840   1.888   4.522 -0.0339 -0.5039 -0.0633
    4SAPS  H18R  475   2.806   1.947   4.434 -2.2695 -0.3980  0.8071
    4SAPS  H18S  476   2.760   1.816   4.549  0.0997 -0.3408  0.7779
    4SAPS  C219  477   2.960   1.810   4.464  0.4321  0.0843 -0.7516
    4SAPS  H19R  478   3.014   1.762   4.548 -0.0925 -1.7714 -1.4038
    4SAPS  H19S  479   3.033   1.880   4.418  2.6699 -1.4901  0.1804
    4SAPS  C220  480   2.925   1.702   4.359 -0.3575 -0.1336  0.2901
    4SAPS  H20R  481   2.862   1.755   4.285 -1.0048  0.1209  1.0037
    4SAPS  H20S  482   2.866   1.620   4.406  1.2759 -0.8166  1.2487
    4SAPS  H20T  483   3.014   1.668   4.302 -0.4811 -0.5007  0.3118
    4SAPS   C33  484   2.654   2.097   5.157  0.4071  0.0422 -0.5989
    4SAPS   H3X  485   2.618   2.008   5.102  1.5466 -0.3413 -0.7440
    4SAPS   H3Y  486   2.764   2.081   5.168  0.3868  1.0437  1.4553
    4SAPS   C34  487   2.651   2.218   5.068  0.2098 -0.2155  0.5231
    4SAPS   H4X  488   2.679   2.179   4.968  0.1914  0.0664  0.4089
    4SAPS   H4Y  489   2.731   2.289   5.099  0.3187 -0.0170 -0.1933
    4SAPS   C35  490   2.525   2.298   5.048  0.2827  0.0026  0.0029
    4SAPS   H5X  491   2.477   2.336   5.141  1.6698  0.9032  0.3886
    4SAPS   H5Y  492   2.450   2.226   5.011  2.7329 -2.1726 -1.0511
    4SAPS   C36  493   2.540   2.428   4.961  0.1370  0.0668  0.4035
    4SAPS   H6X  494   2.605   2.506   5.005  1.1091  0.1309 -1.0786
    4SAPS   H6Y  495   2.443   2.481   4.962  1.4254  2.6881  3.8533
    4SAPS   C37  496   2.592   2.406   4.810 -0.3779 -0.1208 -0.1037
    4SAPS   H7X  497   2.522   2.328   4.774 -1.8681  1.4302 -0.7086
    4SAPS   H7Y  498   2.694   2.362   4.814 -0.5095 -0.3104  1.7863
    4SAPS   C38  499   2.569   2.537   4.729  0.7896 -0.4767 -0.0094
    4SAPS   H8X  500   2.637   2.604   4.785 -1.9912  0.5372  2.4532
    4SAPS   H8Y  501   2.466   2.578   4.731  1.5232  1.5190 -0.8599
    4SAPS   C39  502   2.619   2.541   4.587 -0.5883 -0.0260  0.0944
    4SAPS   H9X  503   2.710   2.478   4.579 -0.0553  0.7020  0.3468
    4SAPS   H9Y  504   2.662   2.640   4.562  2.0250 -1.6145 -2.3508
    4SAPS  C310  505   2.531   2.487   4.475 -0.4861 -0.0762 -0.1616
    4SAPS  H10X  506   2.445   2.557   4.468 -0.4128  0.1236  0.8232
    4SAPS  H10Y  507   2.481   2.391   4.502 -2.2952  1.0918  0.8375
    4SAPS  C311  508   2.596   2.478   4.335 -0.3810  0.2999 -0.3923
    4SAPS  H11X  509   2.639   2.376   4.344 -3.8311 -1.0892  2.5438
    4SAPS  H11Y  510   2.669   2.560   4.315  0.8450 -1.2712 -2.9626
    4SAPS  C312  511   2.498   2.460   4.217 -0.3665  0.3453  0.0468
    4SAPS  H12X  512   2.430   2.545   4.193  1.8080  1.5581 -2.3478
    4SAPS  H12Y  513   2.430   2.374   4.232  0.6321 -0.6249 -0.7508
    4SAPS  C313  514   2.578   2.427   4.092 -0.5795  1.0125 -0.0724
    4SAPS  H13X  515   2.522   2.435   3.997 -0.8534  0.2022  0.0148
    4SAPS  H13Y  516   2.603   2.319   4.084 -1.8792  0.7760 -1.2952
    4SAPS  C314  517   2.713   2.508   4.073  0.0416 -0.2333  0.0143
    4SAPS  H14X  518   2.787   2.479   4.151  0.8286  0.6544 -0.3821
    4SAPS  H14Y  519   2.695   2.618   4.077  0.4939 -0.1518 -0.1161
    4SAPS  C315  520   2.771   2.475   3.939 -0.8829  0.9181  0.0885
    4SAPS  H15X  521   2.694   2.485   3.860  0.0764 -3.6458 -1.7700
    4SAPS  H15Y  522   2.795   2.366   3.932 -0.9561  0.9983 -2.4202
    4SAPS  C316  523   2.893   2.562   3.930  0.4984  0.2525  0.1215
    4SAPS  H16X  524   2.957   2.546   4.019 -0.1019  0.3139  0.5679
    4SAPS  H16Y  525   2.857   2.667   3.939  0.9262  0.2703  2.0425
    4SAPS  C317  526   2.983   2.519   3.815 -0.4923 -0.2374 -0.1607
    4SAPS  H17X  527   2.927   2.534   3.721 -0.2145 -0.0155 -0.2911
    4SAPS  H17Y  528   3.005   2.410   3.819 -0.9111 -0.2862  1.7628
    4SAPS  C318  529   3.118   2.586   3.811 -0.0085 -0.1516 -0.3317
    4SAPS  H18X  530   3.109   2.696   3.797 -1.0325 -0.3489 -1.3642
    4SAPS  H18Y  531   3.179   2.548   3.726  0.2565 -2.0959  0.6623
    4SAPS  H18Z  532   3.177   2.569   3.904 -0.3417 -1.8595 -0.4131
    5SAPS     N  533   5.752   4.503   5.883 -0.5718  0.2686 -0.0689
    5SAPS   HN1  534   5.739   4.460   5.789  0.8282 -0.6305  0.1146
    5SAPS   HN2  535   5.661   4.510   5.932 -0.3121 -1.3483  0.7406
    5SAPS   HN3  536   5.807   4.591   5.876 -1.2626  0.7769  0.7470
    5SAPS   C12  537   5.841   4.403   5.959  0.7503 -0.1384  0.1448
    5SAPS  H12A  538   5.940   4.415   5.919 -0.1578  1.7977 -1.7406
    5SAPS   C13  539   5.842   4.423   6.112  0.1815 -0.1877 -0.3326
    5SAPS  O13A  540   5.773   4.514   6.170 -0.3591  0.6269  0.2983
    5SAPS  O13B  541   5.914   4.347   6.181  0.1317 -0.0416 -0.1315
    5SAPS   C11  542   5.795   4.258   5.922 -0.3453  0.2811 -0.9614
    5SAPS  H11A  543   5.689   4.251   5.956 -0.7499 -2.1473 -2.5084
    5SAPS  H11B  544   5.857   4.188   5.983 -1.4482 -1.8251 -2.1338
    5SAPS     P  545   5.763   4.077   5.739 -0.2626 -0.1089  0.1151
    5SAPS   O13  546   5.836   4.035   5.621 -0.1202 -0.0108  0.3043
    5SAPS   O14  547   5.785   3.988   5.854  0.2071  0.0171  0.1954
    5SAPS   O12  548   5.809   4.221   5.782  0.1961  0.1673 -0.2322
    5SAPS   O11  549   5.607   4.090   5.716  0.0458 -0.0237 -0.1259
    5SAPS    C1  550   5.563   4.172   5.612  0.7844 -0.1393 -0.2455
    5SAPS    HA  551   5.543   4.275   5.651  0.6421  0.1219 -0.9936
    5SAPS    HB  552   5.639   4.173   5.532 -1.4822 -0.9556 -2.5361
    5SAPS    C2  553   5.439   4.127   5.539  0.5107 -0.5338  0.6503
    5SAPS    HS  554   5.363   4.115   5.619  0.1817 -1.8395  0.1615
    5SAPS   O21  555   5.452   4.010   5.465 -0.1934 -0.2695  0.7488
    5SAPS   C21  556   5.345   3.935   5.448  0.0758 -0.5409 -0.1993
    5SAPS   O22  557   5.234   3.965   5.486  0.4804  0.0945  0.7811
    5SAPS   C22  558   5.381   3.795   5.392  0.2986 -0.6461 -0.5963
    5SAPS   H2R  559   5.433   3.807   5.294  3.8931 -0.9898  1.1273
    5SAPS   H2S  560   5.455   3.759   5.466 -0.0637 -0.3047 -0.0633
    5SAPS    C3  561   5.385   4.239   5.447 -0.0520 -0.2406  0.4212
    5SAPS    HX  562   5.383   4.340   5.493 -0.7476  0.6206 -1.3788
    5SAPS    HY  563   5.280   4.218   5.419 -0.1174  1.2529 -0.5613
    5SAPS   O31  564   5.451   4.244   5.323 -0.2709 -0.3881 -0.0863
    5SAPS   C31  565   5.554   4.320   5.311  1.3449  0.0911  0.4642
    5SAPS   O32  566   5.592   4.404   5.395  0.1759 -0.1482 -0.4698
    5SAPS   C32  567   5.605   4.302   5.169 -0.3790  0.1170 -0.0146
    5SAPS   H2X  568   5.525   4.334   5.099 -0.2062 -1.5732 -1.0513
    5SAPS   H2Y  569   5.635   4.195   5.156  0.1537  0.0744  1.3863
    5SAPS   C23  570   5.262   3.694   5.367 -0.7840 -0.1709  0.2935
    5SAPS   H3R  571   5.206   3.667   5.460  0.3496  1.5683  1.5502
    5SAPS   H3S  572   5.313   3.602   5.332 -0.2539 -0.4390  1.7018
    5SAPS   C24  573   5.165   3.741   5.262  0.1486 -0.8786 -0.1697
    5SAPS   H4R  574   5.155   3.851   5.273 -0.8589 -0.8737 -0.9440
    5SAPS   H4S  575   5.063   3.699   5.278  0.4680 -1.0664  1.5825
    5SAPS   C25  576   5.206   3.715   5.123 -0.2352 -0.2860 -0.3929
    5SAPS   H5R  577   5.203   3.607   5.103  1.0999 -0.4968  0.4756
    5SAPS   C26  578   5.248   3.799   5.030  0.1324  0.1893  0.3067
    5SAPS   H6R  579   5.284   3.753   4.937 -0.8206  0.2417 -0.1023
    5SAPS   C27  580   5.269   3.948   5.045  0.1446 -0.5410 -0.3757
    5SAPS   H7R  581   5.205   3.996   5.122  0.2370  0.9231 -1.1814
    5SAPS   H7S  582   5.225   4.000   4.957 -1.1169 -0.6102  0.1948
    5SAPS   C28  583   5.417   3.983   5.057  0.4022  1.2044  0.1007
    5SAPS   H8R  584   5.465   3.955   5.151  0.4190 -1.2498 -0.5552
    5SAPS   C29  585   5.481   4.059   4.963  0.1433 -0.3398 -0.1775
    5SAPS   H9R  586   5.589   4.070   4.977 -0.0706  1.3977  0.3238
    5SAPS  C210  587   5.425   4.114   4.830  0.8641  0.1071  0.3947
    5SAPS  H10R  588   5.325   4.163   4.829  1.5343  1.5336 -0.0066
    5SAPS  H10S  589   5.420   4.027   4.761 -2.5848  0.1313  0.4605
    5SAPS  C211  590   5.528   4.207   4.771  0.7099 -0.3580 -0.3004
    5SAPS  H11R  591   5.510   4.308   4.812  0.9780  0.5109 -2.2024
    5SAPS  C212  592   5.617   4.182   4.670 -0.8167  0.7747 -0.1277
    5SAPS  H12R  593   5.675   4.267   4.634 -0.3968  0.4663 -0.1783
    5SAPS  C213  594   5.634   4.053   4.600  0.5925  0.0843 -0.4747
    5SAPS  H13R  595   5.585   3.967   4.650 -1.3644  1.5203  0.2209
    5SAPS  H13S  596   5.738   4.015   4.604  0.2421 -0.8699 -0.1599
    5SAPS  C214  597   5.572   4.064   4.464 -0.8117 -0.4028  0.4962
    5SAPS  H14R  598   5.467   4.097   4.467 -0.6411  0.1062  2.6782
    5SAPS  C215  599   5.614   4.014   4.348 -0.1220 -1.1155 -0.7801
    5SAPS  H15R  600   5.562   4.034   4.253  0.0172 -3.1219 -1.3313
    5SAPS  C216  601   5.739   3.939   4.317 -0.5069 -0.1157 -0.0487
    5SAPS  H16R  602   5.708   3.853   4.253 -1.3319  0.6898 -0.7701
    5SAPS  H16S  603   5.783   3.905   4.412 -0.6444  1.0487  0.4480
    5SAPS  C217  604   5.855   4.018   4.250 -0.1120  0.3528 -0.6723
    5SAPS  H17R  605   5.950   3.986   4.299 -0.1821 -0.1803 -0.8838
    5SAPS  H17S  606   5.842   4.127   4.269  0.4498  1.2245 -4.5256
    5SAPS  C218  607   5.859   3.995   4.094  0.4469  0.2423  0.5364
    5SAPS  H18R  608   5.763   4.022   4.045  0.3316 -0.3950  0.4099
    5SAPS  H18S  609   5.898   3.891   4.094  1.0106  0.4504  0.4839
    5SAPS  C219  610   5.972   4.078   4.026  0.3704 -0.3040  0.2543
    5SAPS  H19R  611   6.064   4.057   4.085  0.3061 -1.7001 -0.1234
    5SAPS  H19S  612   5.966   4.188   4.038  1.5224 -0.1548 -0.4597
    5SAPS  C220  613   6.004   4.038   3.876 -0.5578  0.4191 -0.5976
    5SAPS  H20R  614   6.106   4.076   3.853  0.6786 -1.7631  0.8763
    5SAPS  H20S  615   5.936   4.083   3.801 -3.2834 -1.4247  0.6138
    5SAPS  H20T  616   5.997   3.928   3.866 -0.3646  0.5096 -1.8766
    5SAPS   C33  617   5.733   4.382   5.139  0.3495  0.5933  0.6384
    5SAPS   H3X  618   5.798   4.365   5.227  0.7831  0.2120  0.2523
    5SAPS   H3Y  619   5.722   4.491   5.120 -0.0336  0.1947 -1.7213
    5SAPS   C34  620   5.804   4.319   5.018 -0.3854 -0.0856 -0.3714
    5SAPS   H4X  621   5.761   4.339   4.918  2.3288  1.3345 -1.3656
    5SAPS   H4Y  622   5.812   4.210   5.040 -0.0844  0.0338  0.1476
    5SAPS   C35  623   5.950   4.371   5.022 -0.6674 -0.5381 -0.3011
    5SAPS   H5X  624   6.005   4.275   5.017  0.2938 -0.0948  1.2307
    5SAPS   H5Y  625   5.978   4.410   5.122 -2.8101 -1.3724  0.6913
    5SAPS   C36  626   5.989   4.465   4.907 -0.5925 -0.1388  0.4884
    5SAPS   H6X  627   6.077   4.531   4.926 -0.4037 -0.1854 -0.1954
    5SAPS   H6Y  628   5.906   4.536   4.887  0.5736  0.8147 -1.1976
    5SAPS   C37  629   6.025   4.382   4.785 -1.0569 -0.1732  0.1834
    5SAPS   H7X  630   5.952   4.298   4.777  0.8924 -1.8782 -0.4619
    5SAPS   H7Y  631   6.110   4.316   4.810 -0.0032  1.2905  0.6233
    5SAPS   C38  632   6.016   4.463   4.649 -0.4103 -0.0917 -0.9227
    5SAPS   H8X  633   6.095   4.541   4.656 -0.5690 -0.0540  0.7379
    5SAPS   H8Y  634   5.923   4.520   4.632 -1.5917 -1.9466 -0.9322
    5SAPS   C39  635   6.044   4.375   4.521  0.4411 -0.0247 -0.2919
    5SAPS   H9X  636   5.980   4.284   4.522 -0.7715  0.7928  1.4412
    5SAPS   H9Y  637   6.152   4.347   4.517  0.0076 -2.3257  1.6465
    5SAPS  C310  638   6.011   4.463   4.394  0.2388  0.7206  0.3135
    5SAPS  H10X  639   6.058   4.562   4.413  1.9391 -0.2000  1.0328
    5SAPS  H10Y  640   5.901   4.483   4.396 -0.1672 -1.3696  1.8846
    5SAPS  C311  641   6.050   4.396   4.257  0.2677 -0.1760 -0.1493
    5SAPS  H11X  642   5.981   4.438   4.180 -0.1935 -1.6367 -0.5654
    5SAPS  H11Y  643   6.025   4.288   4.258 -1.2891  0.1225 -1.6686
    5SAPS  C312  644   6.196   4.404   4.222  0.2283  0.2660 -0.3713
    5SAPS  H12X  645   6.275   4.358   4.284  1.0561  2.1915  0.0659
    5SAPS  H12Y  646   6.224   4.512   4.223 -0.6285  0.5005  1.5061
    5SAPS  C313  647   6.223   4.355   4.072 -0.1676  0.0857  0.0522
    5SAPS  H13X  648   6.158   4.423   4.013  2.7822  2.1634 -1.0264
    5SAPS  H13Y  649   6.192   4.249   4.053 -3.1818  0.8268  0.3918
    5SAPS  C314  650   6.370   4.378   4.022 -0.5388 -0.2832 -0.2926
    5SAPS  H14X  651   6.440   4.312   4.077 -0.4478  0.6580  0.7552
    5SAPS  H14Y  652   6.396   4.486   4.035  0.7474 -0.6246  0.1291
    5SAPS  C315  653   6.400   4.340   3.874  0.4290 -0.2455  0.2751
    5SAPS  H15X  654   6.367   4.235   3.861 -2.5077  0.7149 -0.8774
    5SAPS  H15Y  655   6.509   4.326   3.862  0.3848 -2.2107  1.7613
    5SAPS  C316  656   6.321   4.419   3.769  0.5737  0.2000  0.0450
    5SAPS  H16X  657   6.213   4.423   3.796 -0.4764  0.2040 -3.5753
    5SAPS  H16Y  658   6.329   4.374   3.667  0.9967  1.1275 -0.3457
    5SAPS  C317  659   6.375   4.562   3.751 -0.1364 -0.1433 -0.0768
    5SAPS  H17X  660   6.474   4.562   3.701 -0.3311  0.4366 -0.4754
    5SAPS  H17Y  661   6.384   4.598   3.856 -2.7753 -1.0158  0.5172
    5SAPS  C318  662   6.277   4.644   3.671  0.0735  0.0869 -0.1738
    5SAPS  H18X  663   6.292   4.613   3.566  1.0626 -0.1330  0.0186
    5SAPS  H18Y  664   6.307   4.751   3.669  2.9716 -0.6534 -0.5578
    5SAPS  H18Z  665   6.173   4.624   3.704  1.2035  0.6213  4.3964
    6SAPS     N  666   1.792   5.657   6.035 -0.1205  0.0399 -0.0849
    6SAPS   HN1  667   1.792   5.746   5.981 -2.2136 -1.3533 -2.6359
    6SAPS   HN2  668   1.737   5.664   6.123  2.1333  0.6022  1.3503
    6SAPS   HN3  669   1.887   5.644   6.075 -0.3477  0.6728  0.6752
    6SAPS   C12  670   1.754   5.539   5.950 -0.4828 -0.2993 -0.1119
    6SAPS  H12A  671   1.811   5.540   5.858  1.4300 -3.8295  0.8353
    6SAPS   C13  672   1.782   5.400   6.021  0.0830 -0.7202 -0.4193
    6SAPS  O13A  673   1.857   5.395   6.125  0.9714  0.3939 -0.0645
    6SAPS  O13B  674   1.767   5.300   5.946  0.3219  0.2348 -0.2389
    6SAPS   C11  675   1.604   5.543   5.913  0.4116 -0.5682  1.0693
    6SAPS  H11A  676   1.547   5.540   6.008 -1.3056 -1.8711  0.0597
    6SAPS  H11B  677   1.581   5.454   5.851 -3.8857  1.8860 -1.2761
    6SAPS     P  678   1.435   5.706   5.785  0.4692 -0.1425 -0.0440
    6SAPS   O13  679   1.343   5.725   5.899  0.3825  0.2727  0.2944
    6SAPS   O14  680   1.446   5.806   5.678  0.5735  0.0198 -0.0345
    6SAPS   O12  681   1.583   5.669   5.842 -0.5946  0.5913 -0.3470
    6SAPS   O11  682   1.384   5.570   5.713  0.0838 -0.5599  0.1368
    6SAPS    C1  683   1.458   5.512   5.606  0.3748 -0.0971  0.7132
    6SAPS    HA  684   1.517   5.595   5.561 -1.5130 -0.1612 -2.1186
    6SAPS    HB  685   1.526   5.435   5.646 -1.6097 -2.3078  0.0568
    6SAPS    C2  686   1.369   5.457   5.492 -0.5822 -0.3500 -0.2340
    6SAPS    HS  687   1.374   5.347   5.503  0.7908 -0.1131  2.3501
    6SAPS   O21  688   1.419   5.511   5.369 -0.5878  0.0441  0.4814
    6SAPS   C21  689   1.408   5.440   5.261 -0.2387  0.6888  0.9291
    6SAPS   O22  690   1.362   5.329   5.258  0.2362  0.3952  0.0425
    6SAPS   C22  691   1.459   5.512   5.128 -0.1305 -0.4403 -0.0965
    6SAPS   H2R  692   1.505   5.609   5.155 -0.0278  0.2163 -2.3837
    6SAPS   H2S  693   1.538   5.443   5.091 -0.0202 -0.5910  0.4064
    6SAPS    C3  694   1.224   5.510   5.516  0.5926 -0.1854 -0.1243
    6SAPS    HX  695   1.221   5.620   5.526  0.4701 -0.2743  0.9521
    6SAPS    HY  696   1.201   5.476   5.620  2.1817 -2.4220 -0.4393
    6SAPS   O31  697   1.131   5.480   5.415  0.1767  0.1941 -0.5560
    6SAPS   C31  698   1.074   5.361   5.424 -0.5547 -0.4907  0.3125
    6SAPS   O32  699   1.083   5.293   5.527 -0.1317 -0.1614 -0.0622
    6SAPS   C32  700   1.003   5.323   5.289  0.6145 -0.3652 -0.0678
    6SAPS   H2X  701   1.040   5.395   5.214 -2.5548  0.9178 -0.5623
    6SAPS   H2Y  702   0.894   5.343   5.296  0.7339  1.0182 -1.6209
    6SAPS   C23  703   1.355   5.536   5.020 -0.1425  0.5029 -0.5911
    6SAPS   H3R  704   1.309   5.440   4.990 -2.1553  0.8311  1.2566
    6SAPS   H3S  705   1.414   5.579   4.936  0.2755 -0.6821 -0.9147
    6SAPS   C24  706   1.240   5.627   5.063 -0.2105  0.1324  0.3201
    6SAPS   H4R  707   1.276   5.722   5.107  1.1360 -0.2335  0.0311
    6SAPS   H4S  708   1.193   5.572   5.148 -1.4679 -2.2957 -1.7828
    6SAPS   C25  709   1.141   5.627   4.948 -0.3356 -0.4240 -0.3596
    6SAPS   H5R  710   1.069   5.543   4.945 -1.3561  0.4434 -0.5847
    6SAPS   C26  711   1.115   5.729   4.866  0.3898  0.2319 -0.0938
    6SAPS   H6R  712   1.023   5.712   4.809  0.7878 -3.2340  0.0673
    6SAPS   C27  713   1.189   5.859   4.861  1.1381  0.2846  0.2529
    6SAPS   H7R  714   1.170   5.912   4.956  0.4782  0.6925 -0.0964
    6SAPS   H7S  715   1.152   5.913   4.771 -1.9331 -0.0004  1.2632
    6SAPS   C28  716   1.339   5.848   4.831 -0.4388 -0.6007  0.4585
    6SAPS   H8R  717   1.411   5.872   4.910  1.6319 -0.0388 -1.4917
    6SAPS   C29  718   1.400   5.802   4.715  0.0295  0.5803 -0.1839
    6SAPS   H9R  719   1.509   5.793   4.716  0.0001  0.0331  1.6641
    6SAPS  C210  720   1.330   5.757   4.586  0.2035 -0.4585  0.0987
    6SAPS  H10R  721   1.345   5.840   4.514 -1.2746  0.1088  0.3969
    6SAPS  H10S  722   1.219   5.752   4.597 -0.0691 -0.7563 -2.3589
    6SAPS  C211  723   1.379   5.636   4.521  0.3298  0.4317  0.0525
    6SAPS  H11R  724   1.378   5.553   4.593 -0.7320 -0.8407 -1.3538
    6SAPS  C212  725   1.398   5.617   4.386 -0.0448  0.4118 -0.4382
    6SAPS  H12R  726   1.423   5.521   4.339 -4.4609  0.0520 -2.5449
    6SAPS  C213  727   1.370   5.725   4.281 -0.5619 -0.2781 -0.6163
    6SAPS  H13R  728   1.452   5.801   4.284 -1.7742  1.1271 -1.7245
    6SAPS  H13S  729   1.274   5.776   4.304 -0.7940 -1.0839  0.2760
    6SAPS  C214  730   1.363   5.687   4.135  0.4167  0.6152  0.2086
    6SAPS  H14R  731   1.455   5.703   4.078  0.1799  0.1988 -0.2963
    6SAPS  C215  732   1.256   5.626   4.077 -0.2124 -0.6860 -0.3661
    6SAPS  H15R  733   1.259   5.590   3.973 -1.2193 -0.7622 -0.3720
    6SAPS  C216  734   1.123   5.587   4.142  0.0271  0.7889  0.3880
    6SAPS  H16R  735   1.043   5.657   4.110 -0.5367 -0.7270 -1.7128
    6SAPS  H16S  736   1.123   5.589   4.253 -1.7906 -2.5624  0.5734
    6SAPS  C217  737   1.068   5.454   4.090  0.1997 -0.0684  0.2842
    6SAPS  H17R  738   1.141   5.370   4.090  1.3353  0.8681  1.1593
    6SAPS  H17S  739   1.046   5.472   3.982 -2.4849 -0.3249  0.7305
    6SAPS  C218  740   0.947   5.407   4.174 -0.8453 -0.0575 -0.3372
    6SAPS  H18R  741   0.877   5.349   4.109  1.0547 -2.2509 -0.5642
    6SAPS  H18S  742   0.898   5.502   4.203 -0.0935  0.1721  0.2143
    6SAPS  C219  743   0.980   5.334   4.297 -0.3104 -0.0954 -0.3042
    6SAPS  H19R  744   1.038   5.401   4.366 -0.4907 -2.7447  2.6608
    6SAPS  H19S  745   1.047   5.247   4.282  1.6814  1.5280 -1.4145
    6SAPS  C220  746   0.854   5.304   4.375  0.1167  1.2061 -0.4987
    6SAPS  H20R  747   0.794   5.394   4.399 -0.6502 -0.1624  3.4258
    6SAPS  H20S  748   0.882   5.266   4.475  2.3195 -0.7694 -1.7434
    6SAPS  H20T  749   0.787   5.225   4.334  0.5208  1.1654 -1.0903
    6SAPS   C33  750   1.025   5.171   5.256 -0.4092 -0.5949  0.2367
    6SAPS   H3X  751   1.008   5.109   5.347 -0.1613 -0.2773  0.5016
    6SAPS   H3Y  752   1.128   5.159   5.215 -0.7702  1.3036 -1.3972
    6SAPS   C34  753   0.922   5.119   5.149  0.1543  0.2666 -0.0267
    6SAPS   H4X  754   0.823   5.120   5.200  0.1782  1.8053  0.0168
    6SAPS   H4Y  755   0.939   5.010   5.133  0.2583 -0.6974  5.0767
    6SAPS   C35  756   0.922   5.191   5.013 -0.4244 -0.4155  0.1654
    6SAPS   H5X  757   0.881   5.293   5.028  2.7508  1.2767 -1.5820
    6SAPS   H5Y  758   0.845   5.136   4.954 -0.0057 -0.6130 -0.2047
    6SAPS   C36  759   1.047   5.188   4.925  0.3492  0.0964 -0.5469
    6SAPS   H6X  760   1.080   5.089   4.889  0.0390 -0.2195  0.0176
    6SAPS   H6Y  761   1.129   5.235   4.984 -0.4451  1.2733 -0.3293
    6SAPS   C37  762   1.026   5.269   4.804 -0.3444  0.4362  0.1854
    6SAPS   H7X  763   0.957   5.352   4.830 -0.1053  1.1467 -1.3098
    6SAPS   H7Y  764   0.975   5.209   4.726  2.5193 -0.5638 -1.0579
    6SAPS   C38  765   1.144   5.334   4.728  0.1282 -0.1587 -0.2500
    6SAPS   H8X  766   1.199   5.409   4.790 -0.3394  0.2159 -0.2744
    6SAPS   H8Y  767   1.096   5.375   4.637 -0.6542  1.9698  1.0220
    6SAPS   C39  768   1.239   5.230   4.697  0.2570 -0.2791  0.0882
    6SAPS   H9X  769   1.191   5.141   4.652  0.4416 -0.2110 -0.2508
    6SAPS   H9Y  770   1.298   5.183   4.778  0.2524 -0.6102 -0.0994
    6SAPS  C310  771   1.351   5.281   4.598 -0.3352 -0.1360  0.2035
    6SAPS  H10X  772   1.405   5.370   4.636  1.9308  0.2800 -3.5136
    6SAPS  H10Y  773   1.291   5.319   4.512 -0.5956  3.2190  1.6848
    6SAPS  C311  774   1.451   5.172   4.545  0.0958  0.2851 -0.0890
    6SAPS  H11X  775   1.394   5.080   4.520 -2.4162  2.1675 -1.7225
    6SAPS  H11Y  776   1.519   5.149   4.630 -0.6716 -1.4275  0.1054
    6SAPS  C312  777   1.530   5.226   4.415  0.9773 -0.5230 -0.5751
    6SAPS  H12X  778   1.614   5.157   4.394  0.5498 -1.1918 -0.1130
    6SAPS  H12Y  779   1.573   5.326   4.441 -0.8415 -0.4171  2.4753
    6SAPS  C313  780   1.441   5.223   4.288 -0.2972  0.1836 -0.0514
    6SAPS  H13X  781   1.364   5.299   4.311 -0.0894 -0.4256  3.0680
    6SAPS  H13Y  782   1.395   5.123   4.278 -0.3986 -0.0717  2.3634
    6SAPS  C314  783   1.503   5.262   4.146 -0.3086 -0.9497  0.6157
    6SAPS  H14X  784   1.524   5.370   4.135 -1.4079 -0.8467 -0.7622
    6SAPS  H14Y  785   1.418   5.247   4.076 -2.1713 -1.0574  2.7888
    6SAPS  C315  786   1.634   5.181   4.107 -0.5440  0.1429  0.0607
    6SAPS  H15X  787   1.615   5.073   4.095  0.8451 -0.0174 -0.8733
    6SAPS  H15Y  788   1.715   5.186   4.183 -1.9945 -2.4665  1.9297
    6SAPS  C316  789   1.681   5.249   3.976  0.7899  0.6107 -0.1657
    6SAPS  H16X  790   1.666   5.358   3.983 -3.4811  0.2790 -1.3559
    6SAPS  H16Y  791   1.602   5.225   3.902  0.2834  0.7563  0.3260
    6SAPS  C317  792   1.819   5.211   3.914  0.1317 -0.7316 -0.0507
    6SAPS  H17X  793   1.835   5.101   3.920 -1.2286 -0.9899 -0.8617
    6SAPS  H17Y  794   1.895   5.256   3.982 -0.5102  2.5001 -1.2908
    6SAPS  C318  795   1.850   5.265   3.784 -0.1767 -0.2801  0.2485
    6SAPS  H18X  796   1.939   5.218   3.738 -0.4103 -0.0145 -0.5040
    6SAPS  H18Y  797   1.872   5.374   3.784  0.5273 -0.4203 -0.0677
    6SAPS  H18Z  798   1.763   5.264   3.714 -1.7154  1.5421  1.9972
    7SAPS     N  799   2.573   0.255   5.946 -0.1233  0.2634  0.2699
    7SAPS   HN1  800   2.613   0.298   6.031 -0.4351 -0.8982  1.0361
    7SAPS   HN2  801   2.653   0.238   5.881  0.4774 -2.1028  1.5141
    7SAPS   HN3  802   2.518   0.334   5.908  0.5846  0.4512 -0.3962
    7SAPS   C12  803   2.498   0.134   5.989  0.6814 -0.6984 -0.1576
    7SAPS  H12A  804   2.562   0.064   6.039 -1.7332 -1.9196  1.4142
    7SAPS   C13  805   2.383   0.161   6.092 -0.7001  0.1066  0.8247
    7SAPS  O13A  806   2.354   0.281   6.126  0.3019 -0.1830 -0.0955
    7SAPS  O13B  807   2.313   0.063   6.142 -0.5348 -0.2056 -0.2921
    7SAPS   C11  808   2.446   0.068   5.854  0.0515  0.0158 -0.3795
    7SAPS  H11A  809   2.385   0.140   5.795  1.9726  1.1138 -1.1133
    7SAPS  H11B  810   2.383  -0.018   5.885  2.0953 -2.1325 -1.8871
    7SAPS     P  811   2.643  -0.094   5.769 -0.0483 -0.2646  0.0892
    7SAPS   O13  812   2.769  -0.064   5.836  0.4203 -0.6286  0.2878
    7SAPS   O14  813   2.559  -0.200   5.833  0.0153  0.1984  0.4494
    7SAPS   O12  814   2.550   0.036   5.763 -0.3424 -0.0046 -0.1227
    7SAPS   O11  815   2.663  -0.129   5.616  0.6195  0.2618 -0.4126
    7SAPS    C1  816   2.722  -0.023   5.538  0.1863 -0.2553  0.3293
    7SAPS    HA  817   2.776   0.062   5.586 -1.3985  0.5061  0.8091
    7SAPS    HB  818   2.798  -0.067   5.470 -0.6746  0.9323 -1.4906
    7SAPS    C2  819   2.608   0.046   5.456 -0.1246  0.5503  1.1327
    7SAPS    HS  820   2.528   0.084   5.522  0.8366  1.9929  1.5055
    7SAPS   O21  821   2.564  -0.059   5.362 -0.0343  0.3762 -0.2647
    7SAPS   C21  822   2.442  -0.047   5.325  0.6096  0.7244 -0.5090
    7SAPS   O22  823   2.353   0.006   5.390  0.2863  0.7528 -0.0305
    7SAPS   C22  824   2.408  -0.098   5.183 -1.1116  0.0286  0.2506
    7SAPS   H2R  825   2.500  -0.093   5.121  0.1993  0.0036  2.0891
    7SAPS   H2S  826   2.373  -0.203   5.194 -0.9842 -0.1223 -0.7226
    7SAPS    C3  827   2.664   0.166   5.373  0.1963  0.8359  0.3924
    7SAPS    HX  828   2.708   0.224   5.457 -0.3499 -1.2084  2.1858
    7SAPS    HY  829   2.589   0.235   5.329 -2.4200 -0.9374  1.7461
    7SAPS   O31  830   2.761   0.117   5.281  0.1626 -0.1990 -0.2075
    7SAPS   C31  831   2.738   0.103   5.155  0.3130  0.1547 -0.5904
    7SAPS   O32  832   2.643   0.141   5.086  0.2038 -0.3796  0.2028
    7SAPS   C32  833   2.846   0.015   5.096  0.1765 -0.2996  0.2007
    7SAPS   H2X  834   2.905  -0.038   5.174  0.9527 -0.0251 -0.1871
    7SAPS   H2Y  835   2.907   0.078   5.029  1.7704 -0.4687  1.4287
    7SAPS   C23  836   2.296  -0.015   5.119  0.5713 -0.5598 -0.1104
    7SAPS   H3R  837   2.344   0.084   5.106 -2.0645  0.7470 -0.6258
    7SAPS   H3S  838   2.213  -0.001   5.191  0.7868  0.8210 -0.1162
    7SAPS   C24  839   2.235  -0.090   5.001 -0.6764 -0.0487  0.0551
    7SAPS   H4R  840   2.152  -0.155   5.035 -1.7916  1.2003 -0.1979
    7SAPS   H4S  841   2.316  -0.152   4.955 -2.5053 -1.6361 -1.1635
    7SAPS   C25  842   2.180  -0.000   4.892  0.2335  1.0506  0.6626
    7SAPS   H5R  843   2.072   0.015   4.908 -0.0006  0.3694 -0.1960
    7SAPS   C26  844   2.230   0.056   4.781  0.2358  0.0497  0.4091
    7SAPS   H6R  845   2.162   0.126   4.731 -1.1171 -0.5355  1.3582
    7SAPS   C27  846   2.374   0.047   4.733 -0.2493  0.6722  0.4110
    7SAPS   H7R  847   2.366   0.036   4.623 -1.8286  0.7951  0.4902
    7SAPS   H7S  848   2.423  -0.045   4.772 -0.9653 -0.0340 -0.3186
    7SAPS   C28  849   2.464   0.160   4.768  0.8373  0.6642  0.8741
    7SAPS   H8R  850   2.463   0.200   4.871  1.6064  1.4853  0.5809
    7SAPS   C29  851   2.542   0.219   4.683 -0.3549 -0.0593  0.5023
    7SAPS   H9R  852   2.577   0.320   4.707 -0.9687 -0.2347  2.3018
    7SAPS  C210  853   2.567   0.186   4.538  1.7887 -0.5740 -0.2142
    7SAPS  H10R  854   2.475   0.220   4.487  0.2514 -3.0725  0.7412
    7SAPS  H10S  855   2.557   0.077   4.520  0.2284 -0.1600 -2.1835
    7SAPS  C211  856   2.702   0.229   4.476 -0.4475 -0.2741  0.0900
    7SAPS  H11R  857   2.785   0.225   4.548  0.6384  2.7463 -0.8390
    7SAPS  C212  858   2.729   0.276   4.357  0.2310 -0.3189  0.0844
    7SAPS  H12R  859   2.833   0.271   4.322  1.0885  2.7090  1.9053
    7SAPS  C213  860   2.624   0.302   4.246 -0.1563 -0.2758  0.3126
    7SAPS  H13R  861   2.663   0.391   4.192  2.5342 -1.3812  0.3031
    7SAPS  H13S  862   2.523   0.333   4.280 -0.6595  0.7626 -1.9449
    7SAPS  C214  863   2.601   0.187   4.147  0.0017 -0.5388 -0.4938
    7SAPS  H14R  864   2.557   0.101   4.201  3.0057 -0.7417  1.9019
    7SAPS  C215  865   2.623   0.184   4.019  0.8477 -0.5775  0.2034
    7SAPS  H15R  866   2.584   0.098   3.963 -0.9293  0.3942 -0.0949
    7SAPS  C216  867   2.679   0.294   3.938 -0.6538  0.0344 -0.2150
    7SAPS  H16R  868   2.744   0.249   3.860  1.6829 -0.0552  1.6867
    7SAPS  H16S  869   2.764   0.335   3.996 -1.4146  1.9094 -0.3532
    7SAPS  C217  870   2.589   0.388   3.863  0.0171 -0.7529 -0.8271
    7SAPS  H17R  871   2.591   0.491   3.904 -0.2679  0.1380 -2.9453
    7SAPS  H17S  872   2.488   0.343   3.880 -0.3030  0.4535  0.6235
    7SAPS  C218  873   2.603   0.401   3.711 -0.2564  0.3212 -0.3723
    7SAPS  H18R  874   2.514   0.465   3.694 -1.7813 -1.8703 -1.1212
    7SAPS  H18S  875   2.591   0.302   3.662 -2.3188  0.0065  0.6734
    7SAPS  C219  876   2.726   0.478   3.679 -0.2400 -0.2867  0.8294
    7SAPS  H19R  877   2.819   0.432   3.721  0.1834  0.6196  0.9147
    7SAPS  H19S  878   2.731   0.568   3.744  0.3322  0.8606 -0.7248
    7SAPS  C220  879   2.737   0.523   3.529 -0.4956  0.0558 -0.5633
    7SAPS  H20R  880   2.682   0.616   3.503  1.8541  1.8180  0.3659
    7SAPS  H20S  881   2.721   0.441   3.456 -1.4017 -0.4697  0.2090
    7SAPS  H20T  882   2.840   0.560   3.511 -0.0422 -0.0522  1.5105
    7SAPS   C33  883   2.782  -0.103   5.019  0.1988 -0.0905  0.2601
    7SAPS   H3X  884   2.696  -0.145   5.076 -0.7546 -0.4243 -1.3688
    7SAPS   H3Y  885   2.860  -0.181   5.007  1.1165  0.5460  1.7278
    7SAPS   C34  886   2.738  -0.057   4.878  0.1747  0.0839  0.3409
    7SAPS   H4X  887   2.812   0.011   4.830  0.7102 -0.1847  0.7667
    7SAPS   H4Y  888   2.641  -0.004   4.886 -0.8157 -1.5081 -0.6541
    7SAPS   C35  889   2.723  -0.188   4.792  0.1057  0.1759 -0.3604
    7SAPS   H5X  890   2.633  -0.244   4.827 -0.2761  1.6810  1.1521
    7SAPS   H5Y  891   2.808  -0.256   4.813 -0.2742 -0.4568 -0.8105
    7SAPS   C36  892   2.694  -0.163   4.646  0.0967 -0.2295 -0.1545
    7SAPS   H6X  893   2.680  -0.053   4.639  0.6566 -0.0219  1.4912
    7SAPS   H6Y  894   2.602  -0.211   4.606 -0.1092  2.5941 -3.5425
    7SAPS   C37  895   2.805  -0.206   4.552 -0.5175  0.5288  0.4177
    7SAPS   H7X  896   2.808  -0.316   4.538  0.6074  0.7663 -1.4125
    7SAPS   H7Y  897   2.906  -0.184   4.592  0.4077 -2.3728 -0.1075
    7SAPS   C38  898   2.810  -0.126   4.416  0.2673 -0.2583  0.0934
    7SAPS   H8X  899   2.825  -0.019   4.444  3.7591 -0.5060 -0.3424
    7SAPS   H8Y  900   2.715  -0.140   4.361  0.5698  0.5644 -0.6779
    7SAPS   C39  901   2.935  -0.163   4.329 -0.0677 -0.2667  0.5121
    7SAPS   H9X  902   2.928  -0.272   4.310  0.1419 -0.2938  0.5953
    7SAPS   H9Y  903   3.017  -0.141   4.399 -0.3272  0.1989  0.6723
    7SAPS  C310  904   2.936  -0.071   4.204 -0.1616  0.3286 -0.4112
    7SAPS  H10X  905   2.897   0.030   4.225 -0.2733  0.0491  0.7780
    7SAPS  H10Y  906   2.865  -0.115   4.131 -1.2655  0.4723  0.5433
    7SAPS  C311  907   3.063  -0.063   4.120  0.1154  0.0038 -0.5902
    7SAPS  H11X  908   3.091  -0.169   4.103 -2.0604 -0.9652  1.3394
    7SAPS  H11Y  909   3.150  -0.025   4.178 -0.9011  0.8857  0.4128
    7SAPS  C312  910   3.065   0.013   3.985  0.8212 -0.3810 -0.3936
    7SAPS  H12X  911   2.962  -0.001   3.944 -1.0500 -0.7991  3.9184
    7SAPS  H12Y  912   3.141  -0.035   3.920  0.6115  1.0816 -1.7882
    7SAPS  C313  913   3.085   0.158   3.988 -0.8257 -0.6078  0.5196
    7SAPS  H13X  914   3.186   0.180   4.031 -1.3691 -0.7533  1.9339
    7SAPS  H13Y  915   3.013   0.190   4.067 -0.3698  1.1776  0.2692
    7SAPS  C314  916   3.059   0.241   3.861 -0.4486  0.1406  0.1737
    7SAPS  H14X  917   3.052   0.351   3.875  2.0897  0.2348  1.1798
    7SAPS  H14Y  918   2.964   0.203   3.818  0.2449 -0.8537 -0.5183
    7SAPS  C315  919   3.170   0.211   3.758  0.1286 -0.9724 -0.7773
    7SAPS  H15X  920   3.178   0.100   3.752 -2.5194 -1.2201 -1.1368
    7SAPS  H15Y  921   3.269   0.253   3.784  0.5043 -1.6774 -1.0537
    7SAPS  C316  922   3.139   0.269   3.615  0.3275 -0.3527  0.1606
    7SAPS  H16X  923   3.104   0.374   3.619  0.2609 -0.3740  0.1395
    7SAPS  H16Y  924   3.071   0.192   3.572 -1.0935  1.1523 -0.3916
    7SAPS  C317  925   3.263   0.273   3.522  0.2388  0.5718  0.6002
    7SAPS  H17X  926   3.293   0.168   3.504 -1.5938  0.4361 -2.2323
    7SAPS  H17Y  927   3.354   0.319   3.566 -0.2187 -0.5792  2.9146
    7SAPS  C318  928   3.229   0.340   3.382 -0.0183 -0.2051 -0.6062
    7SAPS  H18X  929   3.311   0.319   3.310  2.3285  0.2476  1.7619
    7SAPS  H18Y  930   3.220   0.450   3.400  0.1535 -0.0450 -1.4428
    7SAPS  H18Z  931   3.136   0.290   3.347 -0.1542 -0.0070 -0.5326
    8SAPS     N  932   1.997   0.362   5.638  0.5731 -0.2042  0.4151
    8SAPS   HN1  933   1.946   0.412   5.562  0.3172 -1.4256 -0.2312
    8SAPS   HN2  934   2.074   0.305   5.600  0.3668 -1.8175  2.2569
    8SAPS   HN3  935   1.927   0.294   5.675 -0.9661  0.2011 -1.5405
    8SAPS   C12  936   2.055   0.452   5.747 -0.3712 -0.3603 -0.4716
    8SAPS  H12A  937   2.080   0.547   5.701  0.5128  0.4481  1.5542
    8SAPS   C13  938   1.952   0.488   5.861  0.2081 -0.4028  0.3245
    8SAPS  O13A  939   1.841   0.425   5.867  0.6609  0.2678  0.0519
    8SAPS  O13B  940   1.983   0.571   5.948  0.1897  0.3189  0.0576
    8SAPS   C11  941   2.185   0.387   5.805 -0.2329  0.1335  1.0444
    8SAPS  H11A  942   2.257   0.379   5.721  0.0562 -0.2818  1.3295
    8SAPS  H11B  943   2.166   0.286   5.846 -0.1604 -0.0347  0.6664
    8SAPS     P  944   2.355   0.572   5.899  0.1930 -0.1042  0.1463
    8SAPS   O13  945   2.358   0.668   6.013  0.4433 -0.0699 -0.8876
    8SAPS   O14  946   2.474   0.494   5.865  0.0051 -0.0773 -0.4041
    8SAPS   O12  947   2.230   0.477   5.907 -0.9271 -0.5037 -0.5064
    8SAPS   O11  948   2.312   0.669   5.772 -0.4750  0.5940 -0.3127
    8SAPS    C1  949   2.353   0.633   5.642  0.5688 -0.3962  0.0824
    8SAPS    HA  950   2.464   0.636   5.651  0.3638  1.2454  3.8001
    8SAPS    HB  951   2.326   0.528   5.617 -2.1114 -0.2313  1.8812
    8SAPS    C2  952   2.308   0.730   5.537  0.3205  0.1685  0.6435
    8SAPS    HS  953   2.315   0.833   5.579  2.3314 -0.7899  2.8726
    8SAPS   O21  954   2.167   0.692   5.510 -0.8347 -0.3875  0.3456
    8SAPS   C21  955   2.103   0.782   5.442  0.6030 -0.1370 -0.4798
    8SAPS   O22  956   2.129   0.903   5.443  0.3352  0.2230  0.3365
    8SAPS   C22  957   1.985   0.712   5.370 -0.6886  0.0728 -0.2748
    8SAPS   H2R  958   2.030   0.634   5.305 -0.3710  0.9215 -1.0877
    8SAPS   H2S  959   1.911   0.665   5.438 -0.8472 -0.2396 -0.6597
    8SAPS    C3  960   2.390   0.723   5.407  0.2391 -0.2398 -0.6157
    8SAPS    HX  961   2.492   0.691   5.440 -1.0971 -2.0604  2.1331
    8SAPS    HY  962   2.401   0.829   5.374  0.4317  0.1386  0.6229
    8SAPS   O31  963   2.336   0.641   5.307 -0.1832 -0.1002  0.1627
    8SAPS   C31  964   2.380   0.518   5.300  0.6134 -0.3715 -0.5164
    8SAPS   O32  965   2.466   0.469   5.369 -0.5608 -0.0858 -0.4260
    8SAPS   C32  966   2.308   0.430   5.197  0.5005  0.0458 -0.3685
    8SAPS   H2X  967   2.222   0.379   5.246  1.6130 -0.6132  0.9517
    8SAPS   H2Y  968   2.374   0.346   5.166  1.4361  1.1925 -1.5917
    8SAPS   C23  969   1.896   0.807   5.282  0.4482 -0.2022  0.2434
    8SAPS   H3R  970   1.972   0.862   5.222 -1.0883  2.1171  0.2932
    8SAPS   H3S  971   1.843   0.880   5.347  1.2390  1.3567 -0.7934
    8SAPS   C24  972   1.813   0.725   5.196  0.1208 -0.6161 -0.6303
    8SAPS   H4R  973   1.738   0.672   5.259  0.1972 -1.1769 -0.9998
    8SAPS   H4S  974   1.884   0.658   5.142  0.9362  1.4240 -2.2140
    8SAPS   C25  975   1.743   0.820   5.097  0.4279 -0.1084  0.5819
    8SAPS   H5R  976   1.671   0.896   5.129 -2.2078 -0.5920 -3.4574
    8SAPS   C26  977   1.759   0.808   4.956  0.0637 -0.4877 -0.6026
    8SAPS   H6R  978   1.710   0.876   4.885  2.5970  0.6002 -1.4346
    8SAPS   C27  979   1.842   0.710   4.885  0.3350 -0.2252 -0.3237
    8SAPS   H7R  980   1.768   0.632   4.855  0.1941 -0.5835  0.9197
    8SAPS   H7S  981   1.914   0.660   4.953 -0.0165  0.3505  0.4795
    8SAPS   C28  982   1.922   0.759   4.767 -0.4563  0.2049 -0.4350
    8SAPS   H8R  983   1.997   0.836   4.794 -0.4948  1.2371 -2.9799
    8SAPS   C29  984   1.902   0.734   4.635 -0.2322 -0.1193 -0.4828
    8SAPS   H9R  985   1.974   0.772   4.561  0.9437  1.5169  1.4420
    8SAPS  C210  986   1.789   0.639   4.585 -0.7083  0.5490  0.1639
    8SAPS  H10R  987   1.696   0.698   4.574 -0.5778  0.6255 -0.5706
    8SAPS  H10S  988   1.760   0.563   4.661 -0.5576  0.6565  0.3294
    8SAPS  C211  989   1.814   0.563   4.458 -0.7618 -0.3998  0.8323
    8SAPS  H11R  990   1.865   0.465   4.466  2.3024  1.1417  1.7998
    8SAPS  C212  991   1.795   0.617   4.327  0.1294  0.0386  0.0777
    8SAPS  H12R  992   1.815   0.557   4.237 -1.1472 -0.7847  0.3182
    8SAPS  C213  993   1.739   0.752   4.286 -0.7430 -0.7247 -0.8306
    8SAPS  H13R  994   1.827   0.818   4.268 -0.0940 -0.2981  3.0836
    8SAPS  H13S  995   1.693   0.809   4.369 -1.4827 -2.7434  0.1979
    8SAPS  C214  996   1.640   0.762   4.175 -0.0719  0.4731 -0.2142
    8SAPS  H14R  997   1.537   0.769   4.213 -0.2682 -3.6506  0.4781
    8SAPS  C215  998   1.674   0.777   4.044 -0.7240 -0.0803 -0.4941
    8SAPS  H15R  999   1.598   0.791   3.966 -0.8212  0.6709 -0.2686
    8SAPS  C216 1000   1.810   0.782   3.981 -0.4408 -0.0464  0.7596
    8SAPS  H16R 1001   1.892   0.781   4.056  0.7430 -0.5989 -0.5005
    8SAPS  H16S 1002   1.820   0.874   3.919 -2.5578  0.0330  0.4678
    8SAPS  C217 1003   1.846   0.666   3.891  0.1463  0.8276 -0.1034
    8SAPS  H17R 1004   1.768   0.641   3.817 -1.1981  3.5782  0.2401
    8SAPS  H17S 1005   1.843   0.579   3.960 -0.8941  0.0800 -1.0717
    8SAPS  C218 1006   1.979   0.672   3.820  0.9748 -0.5152 -0.4042
    8SAPS  H18R 1007   2.055   0.680   3.900  1.4248 -1.5942 -0.6939
    8SAPS  H18S 1008   1.974   0.765   3.761 -1.8362 -0.7041 -0.5766
    8SAPS  C219 1009   2.013   0.555   3.730  0.2630  0.0578  0.8642
    8SAPS  H19R 1010   1.933   0.548   3.654  0.9121  0.5963  0.1203
    8SAPS  H19S 1011   2.006   0.463   3.793  0.2424 -0.6110 -0.0937
    8SAPS  C220 1012   2.146   0.573   3.650  0.2201  0.1097 -0.1125
    8SAPS  H20R 1013   2.229   0.570   3.724  0.7158  1.6920 -0.5654
    8SAPS  H20S 1014   2.151   0.676   3.607  0.9317 -0.4637 -1.4855
    8SAPS  H20T 1015   2.172   0.487   3.584  0.6506  0.3718 -0.2926
    8SAPS   C33 1016   2.268   0.507   5.066  0.0308  0.1824  0.3591
    8SAPS   H3X 1017   2.366   0.543   5.030  1.8663 -3.0643  1.6920
    8SAPS   H3Y 1018   2.201   0.594   5.081  0.0945 -0.1844  3.1367
    8SAPS   C34 1019   2.201   0.401   4.974  0.8442 -0.1820 -0.2612
    8SAPS   H4X 1020   2.109   0.359   5.021 -1.2740  3.4563 -0.7848
    8SAPS   H4Y 1021   2.275   0.320   4.954  0.4598 -0.4846 -0.4581
    8SAPS   C35 1022   2.157   0.452   4.838  0.6716 -0.0679  0.1400
    8SAPS   H5X 1023   2.096   0.544   4.849  3.9244  2.1804  0.7125
    8SAPS   H5Y 1024   2.104   0.373   4.781  2.9968 -1.7048  0.0786
    8SAPS   C36 1025   2.279   0.504   4.753 -0.3303  0.1478 -0.5467
    8SAPS   H6X 1026   2.343   0.418   4.727 -0.4858  0.6545 -2.8563
    8SAPS   H6Y 1027   2.343   0.570   4.816 -0.3529  1.8888 -2.2462
    8SAPS   C37 1028   2.255   0.577   4.627 -0.2792  0.1569 -0.3242
    8SAPS   H7X 1029   2.349   0.622   4.590  2.7288 -1.8287  4.1176
    8SAPS   H7Y 1030   2.189   0.661   4.659 -0.4226  0.4436 -1.3366
    8SAPS   C38 1031   2.179   0.500   4.520  0.1401  0.0937  1.0744
    8SAPS   H8X 1032   2.130   0.566   4.446  1.6254 -0.4582 -0.4566
    8SAPS   H8Y 1033   2.082   0.458   4.555 -1.1407  1.7346 -0.3292
    8SAPS   C39 1034   2.249   0.390   4.438  0.5151 -0.5445  0.5241
    8SAPS   H9X 1035   2.268   0.304   4.506 -1.4981  0.0681  1.9653
    8SAPS   H9Y 1036   2.347   0.428   4.401  0.5891 -2.0207 -0.8952
    8SAPS  C310 1037   2.164   0.358   4.315 -0.5969 -0.4049  0.1652
    8SAPS  H10X 1038   2.176   0.454   4.259 -2.6238 -0.4454 -0.3948
    8SAPS  H10Y 1039   2.054   0.359   4.327 -0.6803  1.2577 -0.4302
    8SAPS  C311 1040   2.212   0.231   4.240 -0.0013 -0.0703  0.4313
    8SAPS  H11X 1041   2.184   0.139   4.296 -2.1762  0.9866  1.2363
    8SAPS  H11Y 1042   2.322   0.225   4.231 -0.1147 -2.2002  0.0474
    8SAPS  C312 1043   2.149   0.212   4.097  0.6490 -0.4822 -0.2428
    8SAPS  H12X 1044   2.179   0.296   4.032  1.0604 -0.1296  0.3908
    8SAPS  H12Y 1045   2.038   0.200   4.092  0.3414  2.1813 -1.8741
    8SAPS  C313 1046   2.212   0.088   4.034 -0.2370  0.2268  0.7601
    8SAPS  H13X 1047   2.163   0.000   4.082 -0.5262 -1.1457 -1.8369
    8SAPS  H13Y 1048   2.321   0.081   4.054 -0.0675  1.1242  0.2090
    8SAPS  C314 1049   2.181   0.067   3.880  0.3353 -0.8814  0.2652
    8SAPS  H14X 1050   2.159   0.166   3.836 -0.9072 -1.5801 -0.7450
    8SAPS  H14Y 1051   2.089   0.009   3.858  0.7506 -1.4884  0.1007
    8SAPS  C315 1052   2.299   0.002   3.814  0.0462  0.4901 -0.3919
    8SAPS  H15X 1053   2.290  -0.104   3.845 -0.8873  0.3827 -0.9744
    8SAPS  H15Y 1054   2.398   0.039   3.847  0.4121 -0.3248 -0.5417
    8SAPS  C316 1055   2.309   0.007   3.662 -0.2902 -0.1963 -0.2809
    8SAPS  H16X 1056   2.398  -0.053   3.632  0.9754  0.7976  1.3072
    8SAPS  H16Y 1057   2.325   0.111   3.627  2.1106 -0.6925 -0.8498
    8SAPS  C317 1058   2.179  -0.054   3.600 -0.2489 -0.0890  0.1689
    8SAPS  H17X 1059   2.084  -0.009   3.633 -0.8201 -0.1357 -1.3227
    8SAPS  H17Y 1060   2.191  -0.156   3.641 -2.0148 -0.1141  0.6930
    8SAPS  C318 1061   2.167  -0.068   3.450  0.3375 -0.4644  0.5123
    8SAPS  H18X 1062   2.253  -0.118   3.401  1.6357  1.4309  0.7604
    8SAPS  H18Y 1063   2.149   0.028   3.398 -0.8207 -1.8175 -1.7097
    8SAPS  H18Z 1064   2.073  -0.122   3.426 -1.0093  2.3765 -1.1073
    9SAPS     N 1065   6.604   6.395   6.001  0.0371 -0.0606  0.2658
    9SAPS   HN1 1066   6.587   6.307   5.949 -1.0362  0.1813  0.1753
    9SAPS   HN2 1067   6.551   6.474   5.959 -0.1470 -0.0119  0.5806
    9SAPS   HN3 1068   6.706   6.406   5.990 -0.0990 -0.1881 -1.2992
    9SAPS   C12 1069   6.570   6.367   6.143 -0.1949 -0.4366 -0.0044
    9SAPS  H12A 1070   6.569   6.262   6.167  0.3729 -0.3321  0.5019
    9SAPS   C13 1071   6.655   6.416   6.259  0.5344  0.1651 -0.0288
    9SAPS  O13A 1072   6.763   6.475   6.223 -0.0280  0.3397 -0.1430
    9SAPS  O13B 1073   6.621   6.410   6.380 -0.4884  0.5469  0.1608
    9SAPS   C11 1074   6.426   6.424   6.162 -0.2545 -0.4960  0.5962
    9SAPS  H11A 1075   6.426   6.535   6.160 -2.6037 -0.4545 -0.2897
    9SAPS  H11B 1076   6.394   6.383   6.261 -1.7550  0.1659  0.4173
    9SAPS     P 1077   6.195   6.429   6.050 -0.2522  0.2950 -0.2648
    9SAPS   O13 1078   6.132   6.379   6.176 -0.0942 -0.2032 -0.1218
    9SAPS   O14 1079   6.190   6.572   6.025  0.0816 -0.5963  0.0316
    9SAPS   O12 1080   6.343   6.379   6.055 -0.3117  0.3323 -0.0771
    9SAPS   O11 1081   6.144   6.351   5.926 -0.0922 -0.0875  0.1562
    9SAPS    C1 1082   6.181   6.227   5.873 -0.5198 -0.8431 -0.6157
    9SAPS    HA 1083   6.226   6.168   5.955  0.9851  0.6885 -0.2668
    9SAPS    HB 1084   6.096   6.178   5.823 -2.5448  1.6582  0.1661
    9SAPS    C2 1085   6.286   6.234   5.756  0.1176  0.2193 -0.6532
    9SAPS    HS 1086   6.378   6.273   5.804  0.4140 -0.9970 -0.1991
    9SAPS   O21 1087   6.246   6.325   5.653 -0.5485 -0.0230  0.0020
    9SAPS   C21 1088   6.348   6.382   5.582 -0.0010  0.2824  0.4774
    9SAPS   O22 1089   6.461   6.379   5.612 -0.3338 -0.1296  0.0522
    9SAPS   C22 1090   6.289   6.488   5.484  0.0791  0.5912 -0.9304
    9SAPS   H2R 1091   6.179   6.485   5.477  0.0650  0.4256 -0.6680
    9SAPS   H2S 1092   6.311   6.584   5.535 -0.7524  0.4848 -0.3535
    9SAPS    C3 1093   6.311   6.092   5.699 -0.6272  0.1344  0.5989
    9SAPS    HX 1094   6.222   6.065   5.638  0.0677  0.4011 -0.5772
    9SAPS    HY 1095   6.313   6.031   5.792 -0.5243  1.5633  1.5733
    9SAPS   O31 1096   6.428   6.092   5.619 -0.0113  0.0329  0.3151
    9SAPS   C31 1097   6.471   5.967   5.599  0.1992  0.1980 -0.6206
    9SAPS   O32 1098   6.424   5.867   5.651  0.0591 -0.2754 -0.1616
    9SAPS   C32 1099   6.595   5.961   5.505 -0.0917  0.1231  0.6474
    9SAPS   H2X 1100   6.625   5.855   5.520  0.6598  0.5124  1.9948
    9SAPS   H2Y 1101   6.674   6.028   5.545  0.0392  2.1784 -2.6840
    9SAPS   C23 1102   6.344   6.463   5.346 -0.3979  0.2504 -0.1084
    9SAPS   H3R 1103   6.318   6.361   5.310 -0.1173  0.4692 -0.9597
    9SAPS   H3S 1104   6.455   6.461   5.339 -0.4990 -0.5909 -2.0953
    9SAPS   C24 1105   6.297   6.562   5.238 -0.2854 -0.0344 -0.5676
    9SAPS   H4R 1106   6.335   6.541   5.135 -4.1828 -1.3419 -1.9247
    9SAPS   H4S 1107   6.343   6.657   5.273 -1.1045 -0.0185  0.5108
    9SAPS   C25 1108   6.151   6.572   5.234 -0.2350  0.1302  0.1201
    9SAPS   H5R 1109   6.103   6.647   5.298 -1.2692  0.4070 -0.9462
    9SAPS   C26 1110   6.070   6.496   5.157  0.0760 -0.3893  0.3062
    9SAPS   H6R 1111   5.961   6.512   5.153 -0.1531 -1.9558 -0.8901
    9SAPS   C27 1112   6.117   6.375   5.067 -0.5444  0.0238 -0.8254
    9SAPS   H7R 1113   6.150   6.293   5.135 -0.7172  1.2563  0.8124
    9SAPS   H7S 1114   6.214   6.399   5.019  0.7804 -0.1435  1.5922
    9SAPS   C28 1115   6.019   6.326   4.973  0.1982 -0.2762 -0.3183
    9SAPS   H8R 1116   5.982   6.223   4.981  0.2946 -0.2022  1.3711
    9SAPS   C29 1117   5.981   6.395   4.867  0.2720  0.0578 -0.6011
    9SAPS   H9R 1118   5.897   6.356   4.808  1.0632 -0.8850 -1.1235
    9SAPS  C210 1119   6.024   6.529   4.828  0.3504  0.1055  0.1394
    9SAPS  H10R 1120   6.075   6.522   4.729 -1.6405 -1.6644 -0.8589
    9SAPS  H10S 1121   6.083   6.583   4.905  1.9832  0.4492 -1.2714
    9SAPS  C211 1122   5.897   6.613   4.806 -0.2954  0.0247  0.1661
    9SAPS  H11R 1123   5.842   6.658   4.890 -0.0116  2.6681 -0.9586
    9SAPS  C212 1124   5.837   6.641   4.686 -0.6729  0.9146 -0.7434
    9SAPS  H12R 1125   5.753   6.711   4.700  1.0108  2.6858  1.1590
    9SAPS  C213 1126   5.877   6.591   4.547  0.5050  0.8931  0.4293
    9SAPS  H13R 1127   5.951   6.508   4.540 -0.2972  0.1570  0.4301
    9SAPS  H13S 1128   5.926   6.678   4.498 -2.7391  1.0018 -3.1615
    9SAPS  C214 1129   5.762   6.556   4.451  0.0335  0.3301 -0.3764
    9SAPS  H14R 1130   5.729   6.630   4.376 -1.1386 -0.6374 -0.8370
    9SAPS  C215 1131   5.707   6.431   4.443  0.1429 -0.0422  0.1052
    9SAPS  H15R 1132   5.629   6.415   4.367 -0.1982  0.3003  0.3777
    9SAPS  C216 1133   5.740   6.302   4.515 -0.4474  0.2252 -0.3800
    9SAPS  H16R 1134   5.848   6.294   4.539 -0.1687  0.8629 -1.3268
    9SAPS  H16S 1135   5.722   6.203   4.468 -1.3555 -0.2686  0.9575
    9SAPS  C217 1136   5.673   6.302   4.652  0.0762  0.0322  0.1085
    9SAPS  H17R 1137   5.563   6.317   4.648  0.0572  0.5074  1.8154
    9SAPS  H17S 1138   5.702   6.393   4.709  0.0505  0.2246 -0.1825
    9SAPS  C218 1139   5.697   6.177   4.736 -0.2653  0.3912  0.1066
    9SAPS  H18R 1140   5.808   6.164   4.737  0.3024  3.9771 -1.4158
    9SAPS  H18S 1141   5.657   6.085   4.689  1.3429 -1.1715  1.6265
    9SAPS  C219 1142   5.653   6.182   4.882  0.6066 -0.0975 -0.5137
    9SAPS  H19R 1143   5.704   6.268   4.930  1.7965 -0.0981 -1.7091
    9SAPS  H19S 1144   5.692   6.097   4.942  0.5066 -1.3070 -2.0959
    9SAPS  C220 1145   5.499   6.193   4.897 -0.0348 -0.2130  0.3839
    9SAPS  H20R 1146   5.478   6.162   5.002 -1.5355 -2.3053 -0.4703
    9SAPS  H20S 1147   5.445   6.113   4.843  0.6379  0.7456 -1.8369
    9SAPS  H20T 1148   5.461   6.296   4.879  1.7662  0.2486 -1.0590
    9SAPS   C33 1149   6.575   5.973   5.355  0.4027 -0.5135  0.0638
    9SAPS   H3X 1150   6.480   5.924   5.325  0.3447  0.3997 -1.3381
    9SAPS   H3Y 1151   6.661   5.931   5.298  0.9671  0.0449  0.4916
    9SAPS   C34 1152   6.574   6.117   5.307  0.1261  0.2898  0.4235
    9SAPS   H4X 1153   6.674   6.160   5.327 -0.0088  1.0015 -0.3397
    9SAPS   H4Y 1154   6.503   6.180   5.363  0.6314  1.0489  0.2222
    9SAPS   C35 1155   6.559   6.133   5.159 -0.6428 -0.1159 -0.3490
    9SAPS   H5X 1156   6.453   6.112   5.134 -1.0469  0.5510  0.7468
    9SAPS   H5Y 1157   6.617   6.062   5.096  2.0544  0.8099  0.9544
    9SAPS   C36 1158   6.591   6.277   5.123  0.0685  0.1569 -0.1449
    9SAPS   H6X 1159   6.700   6.291   5.141  0.6319 -3.7455  0.1733
    9SAPS   H6Y 1160   6.525   6.351   5.174 -1.8654 -2.0481  0.7105
    9SAPS   C37 1161   6.563   6.300   4.972 -0.0393  0.2887 -0.2296
    9SAPS   H7X 1162   6.455   6.275   4.962  0.3762 -1.3879 -0.7409
    9SAPS   H7Y 1163   6.626   6.240   4.904  2.0912 -0.4131  2.1824
    9SAPS   C38 1164   6.573   6.438   4.919  0.1652  0.6955  0.1967
    9SAPS   H8X 1165   6.677   6.468   4.944  1.0057 -1.4744 -0.4682
    9SAPS   H8Y 1166   6.509   6.513   4.971  0.6627  1.8123 -0.7571
    9SAPS   C39 1167   6.558   6.450   4.765  0.0455 -0.7131 -0.9402
    9SAPS   H9X 1168   6.580   6.355   4.712 -1.2581 -1.4460 -0.2287
    9SAPS   H9Y 1169   6.631   6.523   4.726  0.1259  0.2927  0.9584
    9SAPS  C310 1170   6.421   6.497   4.723 -0.1125 -0.4896  0.3270
    9SAPS  H10X 1171   6.398   6.592   4.775  0.5053 -0.6559  0.9199
    9SAPS  H10Y 1172   6.343   6.426   4.758  0.3820 -0.0110  2.5602
    9SAPS  C311 1173   6.401   6.488   4.572  0.7874 -0.5301  0.1835
    9SAPS  H11X 1174   6.452   6.400   4.529 -2.5834 -1.5826 -1.9938
    9SAPS  H11Y 1175   6.446   6.575   4.520 -1.3963  0.2325 -0.5275
    9SAPS  C312 1176   6.258   6.470   4.515 -0.1137  0.4307  0.2482
    9SAPS  H12X 1177   6.199   6.565   4.509  1.3120  1.5233  2.1929
    9SAPS  H12Y 1178   6.206   6.402   4.585  4.2119  0.4084  3.9663
    9SAPS  C313 1179   6.269   6.416   4.375  0.1045 -0.0983 -0.1616
    9SAPS  H13X 1180   6.320   6.318   4.362  0.3192  0.2691 -2.4906
    9SAPS  H13Y 1181   6.339   6.480   4.317 -0.2200  1.0509  0.6635
    9SAPS  C314 1182   6.126   6.404   4.316  0.1323 -0.5411  0.3206
    9SAPS  H14X 1183   6.075   6.496   4.353  0.5332 -0.8824  1.7694
    9SAPS  H14Y 1184   6.088   6.310   4.362 -0.7380  1.0633  3.1620
    9SAPS  C315 1185   6.137   6.399   4.163  0.4732  0.2504  0.3344
    9SAPS  H15X 1186   6.207   6.318   4.135 -0.2444  0.0683 -0.9719
    9SAPS  H15Y 1187   6.168   6.497   4.121 -2.1987  0.8666 -0.3844
    9SAPS  C316 1188   6.002   6.367   4.092  0.1354 -0.0884 -0.0503
    9SAPS  H16X 1189   6.018   6.380   3.983 -0.3906  1.6097  0.0521
    9SAPS  H16Y 1190   5.926   6.440   4.126  0.1232  0.8593 -2.0432
    9SAPS  C317 1191   5.950   6.222   4.127 -0.7376 -0.7566 -0.1644
    9SAPS  H17X 1192   5.903   6.214   4.227  1.6201 -1.3757  0.9737
    9SAPS  H17Y 1193   6.045   6.164   4.138 -0.3989 -0.2304 -0.2769
    9SAPS  C318 1194   5.852   6.175   4.026  0.9514 -0.1555 -0.2172
    9SAPS  H18X 1195   5.893   6.192   3.924 -0.6470  1.1379 -0.6958
    9SAPS  H18Y 1196   5.768   6.248   4.029 -0.9426 -1.9882 -3.0728
    9SAPS  H18Z 1197   5.810   6.072   4.029 -0.8813  0.5087 -1.0636
   10SAPS     N 1198   0.867   7.028   6.307  0.3968  0.0453 -0.3072
   10SAPS   HN1 1199   0.897   7.109   6.365 -2.8535  2.6548 -1.9339
   10SAPS   HN2 1200   0.795   6.982   6.366  1.1975  0.2571  0.8696
   10SAPS   HN3 1201   0.947   6.966   6.281  2.0639  1.7452  0.4970
   10SAPS   C12 1202   0.798   7.085   6.177 -0.3588  1.1194 -1.0861
   10SAPS  H12A 1203   0.767   6.998   6.121  0.9123 -0.1870  0.1451
   10SAPS   C13 1204   0.676   7.161   6.212  0.5804  0.6757 -0.1340
   10SAPS  O13A 1205   0.653   7.181   6.334  0.4718 -0.2679 -0.7030
   10SAPS  O13B 1206   0.614   7.218   6.123  0.4359  0.0620  0.3774
   10SAPS   C11 1207   0.905   7.176   6.112 -0.6169 -0.5117  0.3306
   10SAPS  H11A 1208   0.926   7.257   6.185 -1.5317  1.0367 -1.0508
   10SAPS  H11B 1209   0.857   7.215   6.020 -0.1691  0.0620  0.3385
   10SAPS     P 1210   1.131   7.190   5.996 -0.0472 -0.2597 -0.5119
   10SAPS   O13 1211   1.120   7.337   6.026  0.0736 -0.2065 -0.0841
   10SAPS   O14 1212   1.263   7.129   6.031 -0.4609 -0.3900  0.0462
   10SAPS   O12 1213   1.029   7.105   6.081  0.3439  0.1353  0.3122
   10SAPS   O11 1214   1.104   7.169   5.840  0.8910 -0.1193 -0.2702
   10SAPS    C1 1215   1.055   7.054   5.776 -0.4551  0.0211  0.6113
   10SAPS    HA 1216   0.950   7.031   5.807 -0.4405 -1.2353 -0.1776
   10SAPS    HB 1217   1.038   7.072   5.668 -1.9818  0.1012  0.8408
   10SAPS    C2 1218   1.147   6.932   5.779 -0.6189  0.4619 -1.1132
   10SAPS    HS 1219   1.182   6.930   5.885 -2.9265  0.2571 -0.3151
   10SAPS   O21 1220   1.251   6.940   5.679  0.0317  0.2963 -0.2971
   10SAPS   C21 1221   1.353   6.852   5.693 -0.8872  0.0915  1.1360
   10SAPS   O22 1222   1.385   6.791   5.796  0.1588  0.2509  0.5529
   10SAPS   C22 1223   1.416   6.831   5.551 -0.2964  0.3038  0.0383
   10SAPS   H2R 1224   1.465   6.925   5.518  1.1526  0.2556  1.8791
   10SAPS   H2S 1225   1.501   6.764   5.577 -1.2356 -1.1216 -0.4633
   10SAPS    C3 1226   1.061   6.806   5.756  0.0441  0.4971  0.3181
   10SAPS    HX 1227   0.986   6.802   5.838 -0.3301 -0.1731 -0.0513
   10SAPS    HY 1228   1.118   6.712   5.773  1.1460  0.7054 -1.9202
   10SAPS   O31 1229   0.999   6.811   5.630 -0.4075 -0.4616  0.4390
   10SAPS   C31 1230   0.908   6.719   5.607  0.2259 -0.0456 -0.6362
   10SAPS   O32 1231   0.898   6.616   5.674  0.5683  0.4613  0.8717
   10SAPS   C32 1232   0.813   6.754   5.492 -0.5599 -0.0705 -0.0018
   10SAPS   H2X 1233   0.801   6.865   5.490 -0.8147 -0.0176  2.3816
   10SAPS   H2Y 1234   0.708   6.719   5.505 -0.8750  0.4317 -1.0415
   10SAPS   C23 1235   1.321   6.782   5.444 -0.0903  0.2194  0.0249
   10SAPS   H3R 1236   1.227   6.842   5.438 -0.0333  0.3282  0.1807
   10SAPS   H3S 1237   1.290   6.681   5.478  2.6952 -1.5683 -2.3170
   10SAPS   C24 1238   1.386   6.769   5.307 -0.6981 -0.0657 -0.2751
   10SAPS   H4R 1239   1.323   6.719   5.231 -0.9298 -2.4993  1.4235
   10SAPS   H4S 1240   1.472   6.700   5.317 -1.6475 -1.3593 -0.7631
   10SAPS   C25 1241   1.439   6.899   5.250 -0.6347 -1.0971 -0.1633
   10SAPS   H5R 1242   1.486   6.968   5.321 -0.8526 -1.3493  0.2250
   10SAPS   C26 1243   1.413   6.958   5.131  0.4262  0.7549 -0.1332
   10SAPS   H6R 1244   1.459   7.054   5.103 -1.3583  2.0082  0.9800
   10SAPS   C27 1245   1.332   6.895   5.017  0.3232 -0.0119  0.5212
   10SAPS   H7R 1246   1.306   6.985   4.957  0.4286 -0.5112 -0.2874
   10SAPS   H7S 1247   1.236   6.855   5.055  0.8468 -0.5954  1.2503
   10SAPS   C28 1248   1.386   6.787   4.927  0.1667  0.1657 -0.2007
   10SAPS   H8R 1249   1.481   6.748   4.967 -0.0584 -0.7744 -0.5798
   10SAPS   C29 1250   1.331   6.760   4.807 -0.6496  0.7675  0.3006
   10SAPS   H9R 1251   1.368   6.665   4.766 -0.5964  0.6662  0.5772
   10SAPS  C210 1252   1.221   6.830   4.729  0.0236  0.2150 -0.1503
   10SAPS  H10R 1253   1.148   6.876   4.800  1.5793 -1.3396  2.5856
   10SAPS  H10S 1254   1.170   6.746   4.678  0.0163  0.6908 -0.9410
   10SAPS  C211 1255   1.254   6.937   4.629  0.4111 -0.7667 -0.3697
   10SAPS  H11R 1256   1.226   7.041   4.656 -1.7704 -1.5294  0.5762
   10SAPS  C212 1257   1.316   6.922   4.510  0.4263  0.2684 -1.1734
   10SAPS  H12R 1258   1.350   7.007   4.450  1.8464 -0.2097 -1.1001
   10SAPS  C213 1259   1.359   6.792   4.451 -0.4431 -0.8260 -0.3559
   10SAPS  H13R 1260   1.277   6.754   4.387  0.5562  0.5090 -2.5576
   10SAPS  H13S 1261   1.381   6.714   4.526 -0.0315  0.6028  1.0753
   10SAPS  C214 1262   1.474   6.796   4.353  0.2535 -0.7620 -0.2805
   10SAPS  H14R 1263   1.523   6.892   4.330  0.5814 -1.3744 -2.3726
   10SAPS  C215 1264   1.523   6.686   4.282 -0.0330 -0.1509  0.2970
   10SAPS  H15R 1265   1.596   6.703   4.201 -2.3600  0.4332 -1.7962
   10SAPS  C216 1266   1.459   6.552   4.290  0.1688  0.0169  0.1810
   10SAPS  H16R 1267   1.409   6.538   4.388 -1.9865  0.4899 -0.8016
   10SAPS  H16S 1268   1.531   6.469   4.274 -1.5144 -1.1483 -2.0534
   10SAPS  C217 1269   1.362   6.520   4.174  0.7611  0.0583  0.4636
   10SAPS  H17R 1270   1.291   6.605   4.182  0.1409 -0.5739  2.6373
   10SAPS  H17S 1271   1.312   6.423   4.197  0.4361  0.0972 -0.0704
   10SAPS  C218 1272   1.419   6.535   4.027  0.3192 -0.2079 -0.3507
   10SAPS  H18R 1273   1.455   6.638   4.005 -1.4259  0.3918 -0.6292
   10SAPS  H18S 1274   1.336   6.511   3.956 -0.4578 -0.5871  0.6621
   10SAPS  C219 1275   1.537   6.445   3.995  0.2145  0.7560  0.5769
   10SAPS  H19R 1276   1.510   6.342   4.025 -1.2400  1.6483  2.5505
   10SAPS  H19S 1277   1.628   6.473   4.052  0.8919  0.4197 -0.3091
   10SAPS  C220 1278   1.569   6.438   3.844  0.7197  0.7063 -0.1307
   10SAPS  H20R 1279   1.486   6.380   3.799 -0.0170  0.3991  1.5393
   10SAPS  H20S 1280   1.665   6.384   3.833 -0.1393 -0.7857 -0.5982
   10SAPS  H20T 1281   1.572   6.542   3.804  0.0464  1.2208  1.1032
   10SAPS   C33 1282   0.869   6.710   5.354  0.6425  0.2782 -0.0247
   10SAPS   H3X 1283   0.845   6.601   5.352 -1.0802  0.6268 -0.8373
   10SAPS   H3Y 1284   0.978   6.730   5.351  1.2793 -2.4799  1.1777
   10SAPS   C34 1285   0.821   6.774   5.227  1.0584  0.5374  0.3587
   10SAPS   H4X 1286   0.771   6.872   5.242 -0.2760  0.0702 -0.8206
   10SAPS   H4Y 1287   0.747   6.703   5.184 -0.8616  1.8254  1.4025
   10SAPS   C35 1288   0.926   6.804   5.118  0.4778 -0.6915  0.7722
   10SAPS   H5X 1289   0.973   6.711   5.079 -0.0656  0.0171 -1.7705
   10SAPS   H5Y 1290   1.008   6.866   5.161  1.1199 -0.0542 -1.2416
   10SAPS   C36 1291   0.881   6.879   4.992  0.6354  0.2720  0.0044
   10SAPS   H6X 1292   0.959   6.883   4.914 -0.0401  0.2216 -0.6869
   10SAPS   H6Y 1293   0.864   6.985   5.023  1.1391  0.2825  0.2581
   10SAPS   C37 1294   0.757   6.819   4.929  0.2518  0.2135  0.0010
   10SAPS   H7X 1295   0.675   6.828   5.004  0.5301 -0.8173  0.4524
   10SAPS   H7Y 1296   0.772   6.715   4.892  2.2207  1.1728 -2.1469
   10SAPS   C38 1297   0.711   6.903   4.805 -0.2734  0.1721 -0.1800
   10SAPS   H8X 1298   0.724   7.012   4.825  1.8060 -0.1736  0.6200
   10SAPS   H8Y 1299   0.605   6.874   4.790  0.3573 -1.6608 -1.4527
   10SAPS   C39 1300   0.778   6.867   4.672 -0.1253 -0.1721 -0.4333
   10SAPS   H9X 1301   0.756   6.759   4.656 -2.2322 -0.0338  1.2241
   10SAPS   H9Y 1302   0.889   6.878   4.677  0.0002 -1.4141 -0.0986
   10SAPS  C310 1303   0.734   6.950   4.559 -0.4171 -0.6326  0.4342
   10SAPS  H10X 1304   0.748   7.057   4.584 -1.1021 -0.1029 -1.2896
   10SAPS  H10Y 1305   0.628   6.925   4.535 -0.3469 -1.0301  0.5291
   10SAPS  C311 1306   0.797   6.905   4.423  0.2895 -0.0362  0.1164
   10SAPS  H11X 1307   0.735   6.946   4.341 -2.3532 -1.9982  0.9718
   10SAPS  H11Y 1308   0.785   6.795   4.407 -0.3022  0.3770 -2.8452
   10SAPS  C312 1309   0.941   6.943   4.424  0.2585  0.3762  0.1006
   10SAPS  H12X 1310   1.012   6.858   4.431 -0.1946  0.0765  1.2935
   10SAPS  H12Y 1311   0.958   7.005   4.515  0.2927 -0.6344  0.7859
   10SAPS  C313 1312   0.960   7.039   4.303 -0.7560  0.2623  0.0405
   10SAPS  H13X 1313   0.915   7.137   4.331  0.6409  0.9865 -0.1505
   10SAPS  H13Y 1314   0.908   6.999   4.213  2.4047 -0.9095 -1.3802
   10SAPS  C314 1315   1.110   7.049   4.260  0.0175  0.0035  0.5495
   10SAPS  H14X 1316   1.138   6.942   4.247  1.7829  0.7185 -2.5382
   10SAPS  H14Y 1317   1.171   7.085   4.346  1.3964  2.8018 -1.4488
   10SAPS  C315 1318   1.147   7.129   4.136  0.6226 -0.5708  0.4040
   10SAPS  H15X 1319   1.133   7.236   4.159  0.7064 -1.2253  3.9848
   10SAPS  H15Y 1320   1.067   7.108   4.061 -0.8378  2.7188  0.8743
   10SAPS  C316 1321   1.296   7.108   4.088 -0.2494 -0.0738  0.4236
   10SAPS  H16X 1322   1.365   7.124   4.173 -0.2025 -2.4987  0.9172
   10SAPS  H16Y 1323   1.312   7.179   4.004 -0.2148  0.1907  0.6530
   10SAPS  C317 1324   1.319   6.971   4.016 -0.4828  0.3833 -0.0662
   10SAPS  H17X 1325   1.241   6.939   3.944  0.4477 -2.2710  0.0016
   10SAPS  H17Y 1326   1.306   6.893   4.095  0.7201 -0.3724 -0.5891
   10SAPS  C318 1327   1.465   6.953   3.957 -0.8919 -0.6488  0.5728
   10SAPS  H18X 1328   1.480   6.851   3.916 -1.2353 -1.2056  1.7722
   10SAPS  H18Y 1329   1.531   6.980   4.043  0.8338 -2.3606 -0.1560
   10SAPS  H18Z 1330   1.487   7.028   3.878  1.7870 -1.9619 -0.0381
   11SAPS     N 1331   3.394   2.890   1.802 -0.1819 -0.2540 -0.1298
   11SAPS   HN1 1332   3.359   2.850   1.712 -0.0267 -2.0188  0.5667
   11SAPS   HN2 1333   3.494   2.875   1.828 -0.0449 -0.0426 -0.5306
   11SAPS   HN3 1334   3.348   2.837   1.878  0.6271 -1.2887 -0.3387
   11SAPS   C12 1335   3.334   3.024   1.814  0.1891 -0.3148 -0.6474
   11SAPS  H12A 1336   3.373   3.076   1.727  2.4039 -1.4345 -0.3917
   11SAPS   C13 1337   3.178   3.017   1.826  0.1188  0.6160  0.6839
   11SAPS  O13A 1338   3.128   2.904   1.833 -0.0332 -0.3582 -0.3609
   11SAPS  O13B 1339   3.114   3.121   1.805 -0.0131  0.0798 -0.4977
   11SAPS   C11 1340   3.393   3.084   1.948 -0.4905 -0.8781  0.7163
   11SAPS  H11A 1341   3.368   3.002   2.018 -1.2695 -1.3103 -0.0399
   11SAPS  H11B 1342   3.336   3.172   1.984  2.4133  1.0036  1.0203
   11SAPS     P 1343   3.578   3.269   1.919 -0.0180  0.3899  0.2436
   11SAPS   O13 1344   3.616   3.285   1.779  0.0483 -0.4215 -0.3253
   11SAPS   O14 1345   3.479   3.369   1.972 -0.2282  0.5088 -0.2432
   11SAPS   O12 1346   3.529   3.117   1.939 -0.4606 -0.5315 -0.6198
   11SAPS   O11 1347   3.712   3.278   2.008 -1.0791  0.1756 -0.0369
   11SAPS    C1 1348   3.740   3.185   2.111 -0.6632 -0.0702  0.3782
   11SAPS    HA 1349   3.729   3.080   2.076  0.6231  0.6795 -2.5863
   11SAPS    HB 1350   3.840   3.199   2.156 -0.0116 -1.7110 -0.5169
   11SAPS    C2 1351   3.654   3.211   2.241  0.1785 -0.3557  0.2526
   11SAPS    HS 1352   3.549   3.211   2.207  0.3048 -3.4213 -0.4131
   11SAPS   O21 1353   3.690   3.337   2.297  0.3399  0.3890 -0.3774
   11SAPS   C21 1354   3.591   3.395   2.365 -0.2878 -0.5348 -0.4601
   11SAPS   O22 1355   3.477   3.361   2.360  0.4155 -0.2347 -0.1321
   11SAPS   C22 1356   3.641   3.510   2.437 -0.1062  0.3094 -0.3254
   11SAPS   H2R 1357   3.750   3.527   2.426  0.3354 -1.8453  0.2319
   11SAPS   H2S 1358   3.588   3.598   2.396 -0.4103  1.0308  1.5333
   11SAPS    C3 1359   3.660   3.090   2.338  0.0644  0.0036 -0.4235
   11SAPS    HX 1360   3.754   3.084   2.396 -0.2035 -0.9909 -0.0622
   11SAPS    HY 1361   3.662   2.994   2.282  0.1051  0.6433 -1.5569
   11SAPS   O31 1362   3.561   3.091   2.450  0.3670 -0.4828  0.3461
   11SAPS   C31 1363   3.445   3.050   2.419  0.5315 -0.0780  0.1672
   11SAPS   O32 1364   3.400   3.019   2.309 -0.1078 -0.7028  0.3949
   11SAPS   C32 1365   3.373   3.033   2.554 -0.0266  0.3722  0.7891
   11SAPS   H2X 1366   3.450   3.022   2.633  0.2111  1.3441  0.7014
   11SAPS   H2Y 1367   3.302   2.947   2.541 -0.3312  0.8184 -0.7707
   11SAPS   C23 1368   3.600   3.506   2.584  0.2104  0.0733  0.4149
   11SAPS   H3R 1369   3.503   3.454   2.594  0.3344  0.1945  2.7052
   11SAPS   H3S 1370   3.571   3.609   2.614 -0.6952 -0.7495  2.5522
   11SAPS   C24 1371   3.708   3.455   2.682 -0.1606 -0.0762 -0.0571
   11SAPS   H4R 1372   3.701   3.490   2.787 -0.0131 -1.9687  0.6124
   11SAPS   H4S 1373   3.807   3.496   2.652 -0.5089  0.5702 -0.3409
   11SAPS   C25 1374   3.707   3.307   2.684  0.7713  0.0660  0.5357
   11SAPS   H5R 1375   3.739   3.265   2.587 -0.0770 -0.5024  0.4908
   11SAPS   C26 1376   3.642   3.229   2.769 -0.2986 -0.0406 -0.0110
   11SAPS   H6R 1377   3.617   3.126   2.740  1.8388 -0.2770 -1.2799
   11SAPS   C27 1378   3.569   3.269   2.893  0.5769 -0.1983 -0.3386
   11SAPS   H7R 1379   3.463   3.272   2.859  0.1112 -1.8722  0.8511
   11SAPS   H7S 1380   3.604   3.365   2.936  0.3543  0.5786 -1.7985
   11SAPS   C28 1381   3.583   3.166   3.009  0.0453 -0.2426 -0.9600
   11SAPS   H8R 1382   3.500   3.095   3.022 -1.7329  1.6721 -1.2270
   11SAPS   C29 1383   3.667   3.169   3.120 -0.4199 -0.8892  0.2263
   11SAPS   H9R 1384   3.638   3.091   3.191 -1.5744 -0.7948 -0.1241
   11SAPS  C210 1385   3.778   3.267   3.146  0.1098  0.1815  0.2193
   11SAPS  H10R 1386   3.718   3.343   3.201 -0.5499 -0.8920  1.0530
   11SAPS  H10S 1387   3.821   3.316   3.057 -2.3374 -0.1950 -1.2579
   11SAPS  C211 1388   3.897   3.221   3.233 -0.4390 -0.6397 -0.6912
   11SAPS  H11R 1389   3.982   3.185   3.174  1.4722  0.7898  1.0758
   11SAPS  C212 1390   3.905   3.219   3.364 -0.5832 -0.5548  0.0387
   11SAPS  H12R 1391   3.996   3.177   3.409  0.4860  0.5758 -0.9700
   11SAPS  C213 1392   3.804   3.261   3.460  0.2336 -0.5138  0.5867
   11SAPS  H13R 1393   3.703   3.245   3.417 -0.8665  2.5645  1.7333
   11SAPS  H13S 1394   3.811   3.371   3.476  1.5745 -0.7154  1.5233
   11SAPS  C214 1395   3.813   3.196   3.594  0.4716 -0.0522 -0.5212
   11SAPS  H14R 1396   3.828   3.087   3.584 -1.5105 -0.2918 -1.4054
   11SAPS  C215 1397   3.787   3.242   3.716  0.1267  0.7642  0.0390
   11SAPS  H15R 1398   3.825   3.181   3.799 -2.4411 -0.6586  0.2837
   11SAPS  C216 1399   3.735   3.382   3.742  0.4180 -0.2335 -0.3523
   11SAPS  H16R 1400   3.695   3.430   3.650 -0.2069 -0.5476 -0.2505
   11SAPS  H16S 1401   3.806   3.454   3.788  2.3129 -1.5372 -1.0722
   11SAPS  C217 1402   3.623   3.361   3.852 -0.7758 -0.2295 -0.4993
   11SAPS  H17R 1403   3.676   3.334   3.945  0.8614  0.5931 -1.1534
   11SAPS  H17S 1404   3.549   3.282   3.825 -1.1717 -0.1858  0.4383
   11SAPS  C218 1405   3.539   3.488   3.879 -0.9844  0.5414 -0.1442
   11SAPS  H18R 1406   3.476   3.526   3.795 -1.4893 -0.4838 -0.2478
   11SAPS  H18S 1407   3.603   3.569   3.919 -0.0090 -0.3852  0.2237
   11SAPS  C219 1408   3.431   3.458   3.988 -0.0910  0.0034  0.3496
   11SAPS  H19R 1409   3.491   3.423   4.075  1.5172  0.6802 -0.4433
   11SAPS  H19S 1410   3.375   3.366   3.961  1.6572 -1.4535  1.4792
   11SAPS  C220 1411   3.343   3.575   4.024  0.6872 -0.3884  0.4905
   11SAPS  H20R 1412   3.245   3.543   4.065 -0.1481  2.0614  0.5770
   11SAPS  H20S 1413   3.327   3.634   3.931  0.7572 -1.7825 -0.4329
   11SAPS  H20T 1414   3.400   3.634   4.098  0.0908  0.7142  0.0872
   11SAPS   C33 1415   3.286   3.153   2.605  0.2590  0.0085  0.6717
   11SAPS   H3X 1416   3.213   3.188   2.529  0.2006 -1.8291 -0.1778
   11SAPS   H3Y 1417   3.353   3.241   2.613 -1.0481  1.1951 -0.6033
   11SAPS   C34 1418   3.224   3.133   2.738  0.5116  0.3085 -0.3740
   11SAPS   H4X 1419   3.300   3.086   2.805 -0.9199 -1.5257  0.0438
   11SAPS   H4Y 1420   3.138   3.066   2.716 -0.1955  1.6650 -1.9272
   11SAPS   C35 1421   3.162   3.255   2.805  0.2477 -0.0460  0.4581
   11SAPS   H5X 1422   3.090   3.306   2.738 -0.1422 -2.1998 -0.8706
   11SAPS   H5Y 1423   3.243   3.330   2.816 -0.4622  0.4744  2.6792
   11SAPS   C36 1424   3.090   3.224   2.935  0.3771  0.9827  0.3833
   11SAPS   H6X 1425   3.012   3.147   2.914  0.1142  1.5292 -0.6883
   11SAPS   H6Y 1426   3.018   3.308   2.950 -0.2143  0.6283 -0.3700
   11SAPS   C37 1427   3.183   3.182   3.043 -0.3587  0.5441 -0.3813
   11SAPS   H7X 1428   3.258   3.262   3.055 -0.7693  1.1813 -1.8580
   11SAPS   H7Y 1429   3.239   3.087   3.031  0.8604  0.9458  1.6560
   11SAPS   C38 1430   3.108   3.176   3.182 -0.4516 -0.2822 -0.4141
   11SAPS   H8X 1431   3.079   3.280   3.209 -0.1587 -0.2353 -0.2708
   11SAPS   H8Y 1432   3.182   3.155   3.262 -2.1461 -0.8128  1.0880
   11SAPS   C39 1433   2.987   3.083   3.207  0.4868 -0.1634  0.4770
   11SAPS   H9X 1434   3.016   2.993   3.149  1.4582 -0.5083  1.4572
   11SAPS   H9Y 1435   2.889   3.124   3.176  0.2095 -0.4434  0.9713
   11SAPS  C310 1436   2.983   3.035   3.353 -0.0063  0.0082  0.6715
   11SAPS  H10X 1437   2.996   3.123   3.420  0.1715  2.7354 -2.7019
   11SAPS  H10Y 1438   3.072   2.974   3.378 -0.1758 -0.9008 -0.8430
   11SAPS  C311 1439   2.853   2.967   3.396 -0.6063  0.1160 -0.4907
   11SAPS  H11X 1440   2.860   2.857   3.410  1.2179 -0.0116 -1.9951
   11SAPS  H11Y 1441   2.781   2.993   3.316  0.4593 -0.5806 -1.7275
   11SAPS  C312 1442   2.802   3.023   3.531  0.3344 -0.2140 -0.0755
   11SAPS  H12X 1443   2.701   2.980   3.546  0.7585 -0.2832  3.2415
   11SAPS  H12Y 1444   2.791   3.134   3.526 -1.4149 -0.2129  2.1997
   11SAPS  C313 1445   2.886   2.974   3.651  0.1525  0.0847 -0.4028
   11SAPS  H13X 1446   2.995   2.993   3.639  0.6815 -1.6703  1.0460
   11SAPS  H13Y 1447   2.888   2.863   3.649  0.9129  0.0852 -0.2337
   11SAPS  C314 1448   2.834   3.028   3.784 -1.4698 -0.3066  0.5685
   11SAPS  H14X 1449   2.725   3.038   3.766 -1.2984 -0.3023 -0.5508
   11SAPS  H14Y 1450   2.878   3.126   3.811  0.7118 -0.6000 -1.5248
   11SAPS  C315 1451   2.851   2.937   3.911 -0.7561 -0.2832  0.1907
   11SAPS  H15X 1452   2.952   2.893   3.922 -0.1327  1.0439 -0.0395
   11SAPS  H15Y 1453   2.777   2.855   3.895  0.6348 -1.0027 -3.8282
   11SAPS  C316 1454   2.805   3.021   4.033 -1.2303 -0.0829  0.3957
   11SAPS  H16X 1455   2.702   3.053   4.006 -0.5375 -0.1880 -2.7221
   11SAPS  H16Y 1456   2.871   3.110   4.033  0.4326 -1.1867  2.7550
   11SAPS  C317 1457   2.826   2.951   4.169  0.4058  0.0848 -0.0105
   11SAPS  H17X 1458   2.935   2.935   4.181  0.3833  0.3073  0.4944
   11SAPS  H17Y 1459   2.782   2.849   4.169 -2.4718  1.2222  0.1635
   11SAPS  C318 1460   2.785   3.026   4.291  0.1292 -0.5611 -0.8561
   11SAPS  H18X 1461   2.873   3.057   4.353 -0.1808  0.0447 -0.7157
   11SAPS  H18Y 1462   2.713   2.975   4.358  2.3491 -2.3483  0.3383
   11SAPS  H18Z 1463   2.747   3.127   4.266  0.3835 -0.3255 -0.3173
   12SAPS     N 1464   3.033   2.657   1.833 -0.2107  0.5736  0.4957
   12SAPS   HN1 1465   3.134   2.645   1.811  0.4014  0.9377  2.7780
   12SAPS   HN2 1466   3.013   2.756   1.859 -1.9284  0.1691  0.8672
   12SAPS   HN3 1467   3.010   2.594   1.913  0.9127  0.2963  0.6157
   12SAPS   C12 1468   2.936   2.626   1.720 -0.0090  0.2881  0.3625
   12SAPS  H12A 1469   2.941   2.714   1.658  1.8095  0.1284  0.2254
   12SAPS   C13 1470   2.977   2.497   1.639 -0.5754  0.5326  0.0692
   12SAPS  O13A 1471   3.049   2.416   1.703 -0.1151 -0.1390  0.0740
   12SAPS  O13B 1472   2.908   2.455   1.542 -0.2533  0.0882 -0.2186
   12SAPS   C11 1473   2.789   2.608   1.770  0.0350 -0.3837 -1.0000
   12SAPS  H11A 1474   2.796   2.509   1.821  1.7617 -0.3136 -1.0617
   12SAPS  H11B 1475   2.716   2.605   1.686 -1.2387 -1.9177  0.0772
   12SAPS     P 1476   2.680   2.675   1.995  0.3067  0.1549 -0.4944
   12SAPS   O13 1477   2.562   2.592   1.974 -0.3468 -0.5416 -0.0267
   12SAPS   O14 1478   2.785   2.620   2.081 -0.2016 -0.2159  0.2094
   12SAPS   O12 1479   2.740   2.709   1.853  0.1721 -0.9463 -0.9642
   12SAPS   O11 1480   2.640   2.817   2.047  0.1033 -0.2446  0.1612
   12SAPS    C1 1481   2.740   2.914   2.035 -0.1199 -0.3017 -0.1206
   12SAPS    HA 1482   2.769   2.931   1.929  2.2245 -1.9776  0.1666
   12SAPS    HB 1483   2.687   3.007   2.063  0.8665 -0.3889  2.3622
   12SAPS    C2 1484   2.869   2.901   2.128  0.5092 -0.4435  1.0778
   12SAPS    HS 1485   2.929   2.815   2.092 -0.5422 -0.2844 -1.2831
   12SAPS   O21 1486   2.821   2.874   2.262  0.3446 -0.3520  0.1783
   12SAPS   C21 1487   2.910   2.816   2.340  0.3990  0.6733  0.5418
   12SAPS   O22 1488   3.021   2.783   2.310 -0.2514 -0.6138 -0.1885
   12SAPS   C22 1489   2.839   2.759   2.463 -0.0150 -0.3001  0.2037
   12SAPS   H2R 1490   2.730   2.766   2.446  0.1054  0.9608 -0.0933
   12SAPS   H2S 1491   2.870   2.652   2.465  0.9208 -0.0685 -0.8709
   12SAPS    C3 1492   2.956   3.035   2.126  0.9835 -0.1459  0.3702
   12SAPS    HX 1493   2.988   3.048   2.021 -2.0223  0.3529 -0.5720
   12SAPS    HY 1494   3.047   3.021   2.189  0.7373  1.0865  1.0310
   12SAPS   O31 1495   2.876   3.148   2.165 -0.4686 -0.0947 -0.0773
   12SAPS   C31 1496   2.887   3.188   2.290 -0.0054  0.5007 -0.2014
   12SAPS   O32 1497   2.962   3.140   2.371 -0.1969 -0.9676  0.2027
   12SAPS   C32 1498   2.786   3.297   2.317  0.2157 -0.2373 -0.5696
   12SAPS   H2X 1499   2.687   3.264   2.278 -0.5439  1.5511 -0.2728
   12SAPS   H2Y 1500   2.807   3.387   2.255 -3.6688  1.4743  0.3200
   12SAPS   C23 1501   2.866   2.833   2.595  0.9278  0.1436 -0.3325
   12SAPS   H3R 1502   2.772   2.871   2.639  0.0638 -3.4170  1.2965
   12SAPS   H3S 1503   2.925   2.924   2.570 -0.9841  0.9517 -2.3446
   12SAPS   C24 1504   2.926   2.743   2.700  0.7258 -0.3986  0.0384
   12SAPS   H4R 1505   3.015   2.697   2.652  3.8013  4.1001  0.6887
   12SAPS   H4S 1506   2.864   2.654   2.721  0.6774 -0.4813 -0.4550
   12SAPS   C25 1507   2.970   2.811   2.828 -0.5430 -0.5380  0.5157
   12SAPS   H5R 1508   2.993   2.918   2.817 -1.3471 -0.4399 -0.2604
   12SAPS   C26 1509   2.988   2.758   2.951  0.5618  0.4603  0.4457
   12SAPS   H6R 1510   3.022   2.822   3.035  1.5859 -0.2591  0.6028
   12SAPS   C27 1511   2.966   2.615   2.997 -0.2131 -0.4863 -0.1882
   12SAPS   H7R 1512   3.064   2.563   2.997 -0.4298 -0.9022 -0.2048
   12SAPS   H7S 1513   2.915   2.550   2.924  1.6174 -0.8638 -1.1865
   12SAPS   C28 1514   2.888   2.613   3.124 -0.5470  0.3407  0.7113
   12SAPS   H8R 1515   2.789   2.661   3.126 -0.2125  1.0209  2.3072
   12SAPS   C29 1516   2.939   2.594   3.242  0.5947  0.3634  0.7039
   12SAPS   H9R 1517   2.869   2.591   3.327  0.0911  3.5657  0.5114
   12SAPS  C210 1518   3.084   2.571   3.272 -0.2720 -0.5823  0.5088
   12SAPS  H10R 1519   3.121   2.638   3.353  0.6352 -0.0395 -0.3265
   12SAPS  H10S 1520   3.136   2.608   3.181 -1.3671 -2.6710 -1.0339
   12SAPS  C211 1521   3.126   2.423   3.293  0.4193  0.0496  0.3562
   12SAPS  H11R 1522   3.103   2.352   3.212  0.1666  0.4252  0.0986
   12SAPS  C212 1523   3.227   2.370   3.371 -0.6659  0.1346 -0.2987
   12SAPS  H12R 1524   3.246   2.262   3.377  0.5105  0.2644 -1.2354
   12SAPS  C213 1525   3.297   2.452   3.482  0.1802 -0.0064  0.0939
   12SAPS  H13R 1526   3.265   2.404   3.577  1.7433 -1.7298 -0.1787
   12SAPS  H13S 1527   3.249   2.552   3.483  0.0741  0.0037 -1.9396
   12SAPS  C214 1528   3.449   2.472   3.461 -0.2795  0.0704  0.2338
   12SAPS  H14R 1529   3.472   2.539   3.376  0.0098 -0.2637  0.0463
   12SAPS  C215 1530   3.545   2.444   3.550  0.5854  0.0910  0.5464
   12SAPS  H15R 1531   3.652   2.449   3.527  0.4204 -1.9071 -0.9120
   12SAPS  C216 1532   3.511   2.390   3.688  0.1691  0.9198 -0.2219
   12SAPS  H16R 1533   3.497   2.281   3.673 -1.2656  1.3286 -2.1827
   12SAPS  H16S 1534   3.411   2.424   3.723 -1.6330 -2.1616 -1.9927
   12SAPS  C217 1535   3.616   2.406   3.803  0.0646  0.4546 -0.1832
   12SAPS  H17R 1536   3.559   2.355   3.883 -0.8769 -0.8578 -1.6409
   12SAPS  H17S 1537   3.623   2.512   3.837 -0.0297  0.8908 -1.4313
   12SAPS  C218 1538   3.758   2.357   3.775  0.0910  0.4457 -0.3991
   12SAPS  H18R 1539   3.804   2.425   3.700 -0.6371 -0.8358 -2.0738
   12SAPS  H18S 1540   3.757   2.254   3.734  1.4563 -0.2378  1.1620
   12SAPS  C219 1541   3.839   2.362   3.908  0.2089 -0.3617  0.2636
   12SAPS  H19R 1542   3.776   2.320   3.989  1.7700  0.1535  1.8023
   12SAPS  H19S 1543   3.851   2.468   3.938  0.5821 -0.5596  0.8394
   12SAPS  C220 1544   3.968   2.289   3.888  0.0533  0.1748 -0.0747
   12SAPS  H20R 1545   3.999   2.250   3.987 -1.0160  1.3147  0.7386
   12SAPS  H20S 1546   4.048   2.344   3.835  0.6064 -0.3016  0.2536
   12SAPS  H20T 1547   3.947   2.192   3.837 -0.8031 -0.0873  0.7418
   12SAPS   C33 1548   2.788   3.346   2.463 -0.2925 -0.4999  0.0042
   12SAPS   H3X 1549   2.891   3.383   2.481 -0.4902 -0.8580  2.1575
   12SAPS   H3Y 1550   2.765   3.271   2.542  0.0100 -0.2929  0.2917
   12SAPS   C34 1551   2.691   3.467   2.484  0.2565  0.7797 -0.9862
   12SAPS   H4X 1552   2.590   3.426   2.460  1.4812 -2.4930 -1.0561
   12SAPS   H4Y 1553   2.717   3.556   2.422  2.7388  1.8504  1.3972
   12SAPS   C35 1554   2.697   3.505   2.634 -0.0989  0.3488 -0.2079
   12SAPS   H5X 1555   2.800   3.485   2.670 -0.0987 -0.3708 -0.5911
   12SAPS   H5Y 1556   2.654   3.417   2.686  0.0399  0.0622 -0.5706
   12SAPS   C36 1557   2.632   3.642   2.678 -0.3028  0.0979  0.4110
   12SAPS   H6X 1558   2.611   3.644   2.787  0.9734 -0.3798  0.6796
   12SAPS   H6Y 1559   2.537   3.647   2.621  0.6643 -0.1168 -1.3170
   12SAPS   C37 1560   2.721   3.765   2.646 -0.6270  0.5638 -0.4885
   12SAPS   H7X 1561   2.664   3.858   2.665 -0.3688  0.3386  1.5689
   12SAPS   H7Y 1562   2.754   3.767   2.540  0.1798  0.3382 -0.2447
   12SAPS   C38 1563   2.855   3.777   2.716 -1.0137  0.4779 -0.3525
   12SAPS   H8X 1564   2.886   3.881   2.693 -1.7086  0.8026  0.1744
   12SAPS   H8Y 1565   2.928   3.704   2.674 -1.6992  0.0914 -0.9030
   12SAPS   C39 1566   2.853   3.773   2.870 -0.0782  0.8737  0.3427
   12SAPS   H9X 1567   2.870   3.669   2.904  1.9493  1.2258  0.4990
   12SAPS   H9Y 1568   2.751   3.809   2.895 -0.8119  0.1933 -1.5085
   12SAPS  C310 1569   2.961   3.856   2.931 -0.1803 -0.2301 -0.3649
   12SAPS  H10X 1570   2.961   3.958   2.886 -0.9525  0.6809  1.5844
   12SAPS  H10Y 1571   3.056   3.804   2.906 -0.2971 -0.0837 -1.1405
   12SAPS  C311 1572   2.954   3.872   3.082 -0.3305  0.0810  1.1350
   12SAPS  H11X 1573   2.914   3.779   3.127 -0.6709 -1.4047 -2.0184
   12SAPS  H11Y 1574   2.888   3.958   3.107 -0.3608  0.9829 -1.7233
   12SAPS  C312 1575   3.097   3.911   3.130 -0.1428  0.4592  0.1165
   12SAPS  H12X 1576   3.138   4.001   3.080  0.7381 -1.3675 -2.6448
   12SAPS  H12Y 1577   3.165   3.828   3.100 -1.2379  0.0228 -1.2319
   12SAPS  C313 1578   3.102   3.931   3.286  0.2755  0.1951 -0.0938
   12SAPS  H13X 1579   3.048   3.849   3.337 -2.8679  3.2750  1.9631
   12SAPS  H13Y 1580   3.045   4.018   3.326  0.9419 -0.0881  1.5921
   12SAPS  C314 1581   3.248   3.925   3.340  0.0573 -0.1336  0.4103
   12SAPS  H14X 1582   3.300   4.020   3.315 -4.2730  2.0208 -1.4623
   12SAPS  H14Y 1583   3.291   3.833   3.294  1.2746  1.2543 -1.3720
   12SAPS  C315 1584   3.246   3.918   3.488  0.3208  0.1628 -0.4272
   12SAPS  H15X 1585   3.165   3.852   3.524 -0.9983  1.8421 -0.1949
   12SAPS  H15Y 1586   3.216   4.017   3.527 -1.6047 -0.9539  1.1108
   12SAPS  C316 1587   3.386   3.870   3.543 -0.4724 -0.0756  0.7315
   12SAPS  H16X 1588   3.462   3.945   3.513 -2.2674  1.6577  0.2612
   12SAPS  H16Y 1589   3.409   3.770   3.501 -0.0564 -0.1979  1.2445
   12SAPS  C317 1590   3.389   3.854   3.695  0.4586  0.5815 -0.5627
   12SAPS  H17X 1591   3.465   3.781   3.728 -0.3504  1.1858  3.0327
   12SAPS  H17Y 1592   3.292   3.830   3.744  1.2978  1.0258  1.3960
   12SAPS  C318 1593   3.442   3.981   3.770 -0.4833 -0.0212  0.5595
   12SAPS  H18X 1594   3.531   4.013   3.711 -0.5143  0.3745  0.7285
   12SAPS  H18Y 1595   3.462   3.950   3.875  0.8240 -1.3125 -0.0389
   12SAPS  H18Z 1596   3.366   4.062   3.767 -0.3474  0.1012 -2.6610
   13SAPS     N 1597   5.318   3.244   2.115  0.2645  0.2448  0.1821
   13SAPS   HN1 1598   5.331   3.191   2.203 -1.2236  0.4507  0.5497
   13SAPS   HN2 1599   5.372   3.328   2.144  2.3753 -0.4532 -1.5065
   13SAPS   HN3 1600   5.219   3.271   2.100 -0.2197 -0.9215  1.1446
   13SAPS   C12 1601   5.383   3.185   1.994  0.4743 -0.9253 -0.1856
   13SAPS  H12A 1602   5.489   3.202   2.005  0.4790  1.5125 -2.8267
   13SAPS   C13 1603   5.355   3.038   1.973  0.6012 -0.4707 -0.0384
   13SAPS  O13A 1604   5.273   2.980   2.048 -0.1718  0.0584 -0.7804
   13SAPS  O13B 1605   5.415   2.971   1.883 -0.4453  0.2046 -0.1608
   13SAPS   C11 1606   5.330   3.273   1.876  0.6613 -0.1814  0.4531
   13SAPS  H11A 1607   5.219   3.277   1.868  0.7449  0.2116 -0.6426
   13SAPS  H11B 1608   5.358   3.229   1.778 -0.4125  1.8517 -0.8515
   13SAPS     P 1609   5.508   3.468   1.831  0.1348 -0.5248 -0.1780
   13SAPS   O13 1610   5.494   3.498   1.691  0.1151  0.1816 -0.0792
   13SAPS   O14 1611   5.542   3.579   1.920  0.1805 -0.9646 -0.0684
   13SAPS   O12 1612   5.374   3.407   1.893 -0.1515 -0.7313  0.1837
   13SAPS   O11 1613   5.602   3.340   1.851 -0.0669 -0.4260 -0.3725
   13SAPS    C1 1614   5.743   3.360   1.883  0.0688  0.9749 -0.8596
   13SAPS    HA 1615   5.801   3.302   1.808 -0.0660  1.4898 -1.3588
   13SAPS    HB 1616   5.780   3.464   1.873  0.4832  1.2173  2.0689
   13SAPS    C2 1617   5.779   3.324   2.027 -0.2814  0.5472  0.6761
   13SAPS    HS 1618   5.890   3.316   2.037 -0.3630 -0.5159  0.9346
   13SAPS   O21 1619   5.702   3.209   2.071 -0.5206  0.3688 -0.1422
   13SAPS   C21 1620   5.764   3.093   2.069 -0.3693  0.7353 -0.1874
   13SAPS   O22 1621   5.872   3.069   2.021 -0.1946 -0.4258  0.4812
   13SAPS   C22 1622   5.679   2.988   2.145  0.1826  0.5534  0.1788
   13SAPS   H2R 1623   5.599   3.046   2.195 -0.4543  1.2230 -1.5239
   13SAPS   H2S 1624   5.621   2.936   2.066 -2.3397  3.9390 -0.4601
   13SAPS    C3 1625   5.749   3.441   2.122  0.1192 -0.3190 -0.7973
   13SAPS    HX 1626   5.645   3.471   2.096  0.5137  0.7281 -1.2219
   13SAPS    HY 1627   5.822   3.523   2.105 -0.3233  0.1601 -0.4197
   13SAPS   O31 1628   5.742   3.399   2.265 -0.1656  0.2048 -0.0309
   13SAPS   C31 1629   5.682   3.489   2.346 -0.0741  0.1100 -0.2530
   13SAPS   O32 1630   5.666   3.608   2.324  0.0632 -0.0795 -0.0871
   13SAPS   C32 1631   5.636   3.418   2.476 -0.0470 -1.2798  0.0098
   13SAPS   H2X 1632   5.665   3.310   2.475 -2.4320 -1.9633 -0.0951
   13SAPS   H2Y 1633   5.525   3.419   2.475 -0.2223  3.0362  1.2295
   13SAPS   C23 1634   5.766   2.902   2.239  0.2223  0.9603 -0.0505
   13SAPS   H3R 1635   5.871   2.913   2.205  0.2463  1.5621  0.2024
   13SAPS   H3S 1636   5.745   2.794   2.224  2.2301  0.4234  0.6640
   13SAPS   C24 1637   5.736   2.940   2.388 -0.7966 -0.4762  0.2943
   13SAPS   H4R 1638   5.626   2.933   2.400 -1.2779  0.9178 -2.4603
   13SAPS   H4S 1639   5.761   3.047   2.406 -1.3913 -0.4125  0.7513
   13SAPS   C25 1640   5.820   2.848   2.481 -0.1882  0.0238  0.3445
   13SAPS   H5R 1641   5.826   2.743   2.450  1.0188 -0.1780  1.2016
   13SAPS   C26 1642   5.895   2.877   2.591 -0.2363  0.4305 -0.2634
   13SAPS   H6R 1643   5.957   2.806   2.648  3.3028  1.9369 -1.9493
   13SAPS   C27 1644   5.918   3.011   2.656  0.0770 -0.1356  0.3812
   13SAPS   H7R 1645   5.835   3.025   2.729 -0.1686 -0.4741  0.1686
   13SAPS   H7S 1646   5.926   3.096   2.585  0.7533  1.1615  1.9417
   13SAPS   C28 1647   6.048   3.015   2.732  0.1205  0.1266  0.0774
   13SAPS   H8R 1648   6.125   3.031   2.655 -0.4673  0.4064 -0.4659
   13SAPS   C29 1649   6.074   3.006   2.863 -0.6631 -0.2139 -0.1220
   13SAPS   H9R 1650   6.182   3.004   2.879 -0.1683  0.5066 -2.9502
   13SAPS  C210 1651   5.981   2.966   2.975 -0.1154 -0.2051  0.1513
   13SAPS  H10R 1652   5.879   2.941   2.941  0.2288  0.2256 -1.2318
   13SAPS  H10S 1653   5.966   3.052   3.044 -4.6936  1.0061 -2.0426
   13SAPS  C211 1654   6.043   2.844   3.030 -0.5157 -0.7124 -0.2719
   13SAPS  H11R 1655   6.044   2.758   2.962  2.6783 -1.1293  0.1284
   13SAPS  C212 1656   6.079   2.819   3.159  0.3821  0.3545 -0.0875
   13SAPS  H12R 1657   6.115   2.720   3.188  2.1160  0.6250 -1.1329
   13SAPS  C213 1658   6.049   2.914   3.271  0.2219 -1.0964  0.5087
   13SAPS  H13R 1659   5.960   2.975   3.247  0.2171 -0.9864  0.8037
   13SAPS  H13S 1660   6.136   2.981   3.289  1.4384 -2.2409 -0.7581
   13SAPS  C214 1661   6.015   2.837   3.399 -0.6581  0.7766  0.7426
   13SAPS  H14R 1662   5.946   2.755   3.375 -0.0029  0.7149 -1.1021
   13SAPS  C215 1663   6.047   2.859   3.533  0.4442 -0.9252  0.7120
   13SAPS  H15R 1664   6.033   2.791   3.618 -0.6946 -0.2589  1.0867
   13SAPS  C216 1665   6.127   2.981   3.583  0.5221 -0.0677  0.2406
   13SAPS  H16R 1666   6.121   3.060   3.505 -4.4070 -0.4973 -0.1840
   13SAPS  H16S 1667   6.232   2.949   3.567  0.4052 -2.3417  3.0850
   13SAPS  C217 1668   6.110   3.026   3.737  0.4363  0.0557 -0.1076
   13SAPS  H17R 1669   6.184   3.107   3.750  0.4002  0.0300  0.2752
   13SAPS  H17S 1670   6.154   2.943   3.797 -0.5163 -1.7947 -1.8136
   13SAPS  C218 1671   5.967   3.066   3.768  0.0534  0.5644  0.3084
   13SAPS  H18R 1672   5.915   2.973   3.799  2.0715 -1.2775 -1.5384
   13SAPS  H18S 1673   5.919   3.098   3.673  0.1045 -0.0977  0.0540
   13SAPS  C219 1674   5.954   3.163   3.889 -0.1864 -0.4416  0.2552
   13SAPS  H19R 1675   6.015   3.255   3.870 -1.7201  0.7190  0.7895
   13SAPS  H19S 1676   5.990   3.117   3.983 -3.6423 -2.0408  0.9353
   13SAPS  C220 1677   5.803   3.210   3.906 -0.5421  0.9481  0.3523
   13SAPS  H20R 1678   5.753   3.119   3.946 -1.7684  2.2743  1.9879
   13SAPS  H20S 1679   5.758   3.236   3.807 -1.0710  1.3184  0.6871
   13SAPS  H20T 1680   5.778   3.293   3.975 -1.0891  0.6968  0.4640
   13SAPS   C33 1681   5.690   3.477   2.607  0.7792  0.1932 -0.1442
   13SAPS   H3X 1682   5.670   3.585   2.624  0.3250 -0.2102  2.3363
   13SAPS   H3Y 1683   5.801   3.476   2.593  0.8543  1.0201  0.3143
   13SAPS   C34 1684   5.641   3.400   2.740  0.0862 -0.8765  0.2029
   13SAPS   H4X 1685   5.690   3.303   2.764  0.7023 -0.3474  1.1309
   13SAPS   H4Y 1686   5.533   3.387   2.718  0.1012 -0.7493  0.0482
   13SAPS   C35 1687   5.648   3.486   2.863  0.0724  0.2032 -0.4966
   13SAPS   H5X 1688   5.602   3.586   2.851  0.3772  0.1618 -2.2439
   13SAPS   H5Y 1689   5.755   3.489   2.893  0.2295  0.4341 -1.0589
   13SAPS   C36 1690   5.563   3.412   2.973  0.2769 -0.2997  0.5010
   13SAPS   H6X 1691   5.603   3.311   2.993  0.3505 -0.3748 -0.0033
   13SAPS   H6Y 1692   5.456   3.408   2.941  0.3368  1.0118  0.0690
   13SAPS   C37 1693   5.561   3.492   3.100 -0.1815  0.0129 -0.0570
   13SAPS   H7X 1694   5.560   3.602   3.090 -2.1668 -0.0377 -0.8792
   13SAPS   H7Y 1695   5.650   3.460   3.159 -0.2357 -0.4388 -0.2164
   13SAPS   C38 1696   5.428   3.466   3.177 -0.2408  0.5213 -0.2900
   13SAPS   H8X 1697   5.407   3.357   3.168  3.1511 -0.2084 -0.7480
   13SAPS   H8Y 1698   5.349   3.526   3.127 -1.6575  0.6042  1.9262
   13SAPS   C39 1699   5.415   3.493   3.330 -0.5488  0.3707 -0.0686
   13SAPS   H9X 1700   5.314   3.533   3.355 -0.4330  0.5714  0.0790
   13SAPS   H9Y 1701   5.498   3.560   3.362 -0.5847 -0.1128  1.1111
   13SAPS  C310 1702   5.437   3.362   3.415 -0.0808  0.6067  0.2518
   13SAPS  H10X 1703   5.544   3.343   3.437  0.4974  1.4809 -1.6115
   13SAPS  H10Y 1704   5.402   3.278   3.351  0.0379  1.7503 -1.3763
   13SAPS  C311 1705   5.358   3.365   3.548 -0.3812  0.9300 -0.4999
   13SAPS  H11X 1706   5.249   3.354   3.531 -0.2824  0.6350 -0.9777
   13SAPS  H11Y 1707   5.393   3.458   3.598  0.3916 -0.3058  1.4073
   13SAPS  C312 1708   5.423   3.254   3.639  0.8243  0.0384 -0.2884
   13SAPS  H12X 1709   5.534   3.261   3.643  0.9572 -0.5251 -2.1503
   13SAPS  H12Y 1710   5.382   3.158   3.600  0.9456 -0.3853  0.5932
   13SAPS  C313 1711   5.366   3.259   3.776 -0.7342 -0.7653 -0.6877
   13SAPS  H13X 1712   5.255   3.247   3.772 -1.1777  1.9308  0.7556
   13SAPS  H13Y 1713   5.388   3.359   3.819  1.3831 -1.1673 -0.7483
   13SAPS  C314 1714   5.437   3.148   3.861 -0.4838 -0.1562 -0.2423
   13SAPS  H14X 1715   5.545   3.146   3.836 -0.1041 -0.9148  1.2963
   13SAPS  H14Y 1716   5.402   3.046   3.834  1.8112 -0.8252 -0.9462
   13SAPS  C315 1717   5.414   3.176   4.008 -0.5308 -0.0323 -0.1044
   13SAPS  H15X 1718   5.306   3.170   4.033 -0.0740  0.7782  2.3804
   13SAPS  H15Y 1719   5.445   3.279   4.037 -0.4187 -0.4186  1.2004
   13SAPS  C316 1720   5.481   3.070   4.102 -0.0946 -0.2531 -0.1887
   13SAPS  H16X 1721   5.590   3.084   4.086 -0.4359  1.4096 -1.3256
   13SAPS  H16Y 1722   5.435   2.973   4.074  0.0397  0.1727 -1.9601
   13SAPS  C317 1723   5.451   3.073   4.258  0.0926  0.4147  0.3833
   13SAPS  H17X 1724   5.490   2.982   4.308 -0.7601 -1.4218 -2.1452
   13SAPS  H17Y 1725   5.341   3.068   4.273  0.0173 -1.3608 -0.5598
   13SAPS  C318 1726   5.503   3.195   4.320 -0.2986  0.1165 -0.1897
   13SAPS  H18X 1727   5.492   3.185   4.430  0.9275  1.6546  0.1064
   13SAPS  H18Y 1728   5.448   3.287   4.292  0.2573  0.6813  0.5368
   13SAPS  H18Z 1729   5.609   3.214   4.294 -0.4290 -2.2116 -2.8934
   14SAPS     N 1730   3.691   2.393   1.958 -0.1696 -0.0525  0.2891
   14SAPS   HN1 1731   3.618   2.406   2.030 -1.5642  0.0211 -1.0683
   14SAPS   HN2 1732   3.779   2.348   1.992  0.7658  0.5524 -1.2083
   14SAPS   HN3 1733   3.723   2.485   1.922  0.3846 -0.0707  0.7194
   14SAPS   C12 1734   3.647   2.315   1.837  0.4500 -0.4733 -0.4783
   14SAPS  H12A 1735   3.595   2.230   1.879 -0.0372  0.9473  1.9593
   14SAPS   C13 1736   3.546   2.376   1.735 -0.1720  0.3932 -0.1399
   14SAPS  O13A 1737   3.488   2.484   1.761  0.0813 -0.0090  0.0073
   14SAPS  O13B 1738   3.506   2.304   1.638  0.1855  0.2861  0.1255
   14SAPS   C11 1739   3.778   2.286   1.759  0.6781  0.2751 -0.5322
   14SAPS  H11A 1740   3.816   2.385   1.726 -0.8831  2.3891  3.4278
   14SAPS  H11B 1741   3.754   2.231   1.665  0.2263  0.3120 -0.4403
   14SAPS     P 1742   3.911   2.080   1.866  0.1465  0.2292  0.1467
   14SAPS   O13 1743   3.907   2.011   1.738  0.3654  0.1368 -0.0546
   14SAPS   O14 1744   4.036   2.061   1.947 -0.3697 -0.2491 -0.3705
   14SAPS   O12 1745   3.885   2.232   1.838  0.1462 -0.1568 -0.8148
   14SAPS   O11 1746   3.781   2.056   1.955  0.1903  0.7259 -0.1507
   14SAPS    C1 1747   3.692   1.948   1.946 -0.2164  0.8037  0.1197
   14SAPS    HA 1748   3.588   1.977   1.918  0.0514  0.2751 -1.5418
   14SAPS    HB 1749   3.730   1.876   1.870 -1.4155  1.0737 -0.7727
   14SAPS    C2 1750   3.670   1.873   2.082  0.1997  0.1754  0.3286
   14SAPS    HS 1751   3.575   1.814   2.081 -0.0411  0.5554 -0.9237
   14SAPS   O21 1752   3.674   1.970   2.191 -1.0945 -0.0582  0.1298
   14SAPS   C21 1753   3.567   2.042   2.223 -0.0257  0.1266  0.9621
   14SAPS   O22 1754   3.459   2.021   2.172 -0.4435 -0.2388 -0.1950
   14SAPS   C22 1755   3.602   2.143   2.334  0.1653  0.2888  0.1199
   14SAPS   H2R 1756   3.705   2.126   2.372 -0.6926  1.4448  3.2458
   14SAPS   H2S 1757   3.596   2.245   2.290 -0.1886 -0.0619 -0.6756
   14SAPS    C3 1758   3.787   1.774   2.114 -0.1466  0.0899 -0.8945
   14SAPS    HX 1759   3.880   1.834   2.107 -0.2172  0.4515  0.9648
   14SAPS    HY 1760   3.800   1.691   2.041 -0.2872  0.6949 -1.6193
   14SAPS   O31 1761   3.774   1.717   2.249 -0.0481  0.2934  0.2393
   14SAPS   C31 1762   3.844   1.767   2.346 -0.4183  0.0733 -0.4318
   14SAPS   O32 1763   3.945   1.839   2.339  0.1796  0.2076 -0.3559
   14SAPS   C32 1764   3.792   1.706   2.473 -0.1415 -0.0660 -0.0808
   14SAPS   H2X 1765   3.804   1.595   2.472  1.3665  0.0658 -1.1693
   14SAPS   H2Y 1766   3.683   1.723   2.462  0.0535  1.0922 -0.3450
   14SAPS   C23 1767   3.486   2.137   2.445 -0.5768  0.2962  0.3130
   14SAPS   H3R 1768   3.384   2.137   2.402 -1.6527 -0.5597  2.7532
   14SAPS   H3S 1769   3.504   2.230   2.503 -0.1695  1.5435 -1.6906
   14SAPS   C24 1770   3.501   2.028   2.544  0.0616  0.7714 -0.7664
   14SAPS   H4R 1771   3.449   2.045   2.641 -1.5757  1.0311 -1.6589
   14SAPS   H4S 1772   3.604   2.004   2.578 -0.8548 -1.8251  0.3909
   14SAPS   C25 1773   3.453   1.902   2.482  0.3072  0.6026 -0.1165
   14SAPS   H5R 1774   3.512   1.865   2.397  1.5917 -0.1731  1.0681
   14SAPS   C26 1775   3.361   1.814   2.522 -0.7136 -0.6384  0.6658
   14SAPS   H6R 1776   3.337   1.732   2.452 -1.0089  0.1532 -0.1877
   14SAPS   C27 1777   3.273   1.825   2.646  0.0303  0.3554 -0.2359
   14SAPS   H7R 1778   3.186   1.756   2.639  1.1847 -1.2079  0.3849
   14SAPS   H7S 1779   3.224   1.925   2.651  1.6409  1.5866 -4.4695
   14SAPS   C28 1780   3.362   1.803   2.768  0.5446 -0.4748 -0.2393
   14SAPS   H8R 1781   3.471   1.814   2.757  0.4888  2.9124  1.4061
   14SAPS   C29 1782   3.329   1.747   2.882 -0.4232  0.0736 -0.3694
   14SAPS   H9R 1783   3.410   1.738   2.956 -1.3853 -0.0741  0.6870
   14SAPS  C210 1784   3.197   1.703   2.933 -0.5077  0.6903  0.6664
   14SAPS  H10R 1785   3.130   1.681   2.848 -2.1764 -1.8397  2.4874
   14SAPS  H10S 1786   3.148   1.787   2.986 -0.4602  1.1976 -0.0849
   14SAPS  C211 1787   3.201   1.575   3.012 -0.2415 -0.2451 -0.2215
   14SAPS  H11R 1788   3.222   1.480   2.961 -1.5732 -2.2346  2.6551
   14SAPS  C212 1789   3.186   1.567   3.148 -0.3934 -0.6876  0.4646
   14SAPS  H12R 1790   3.177   1.472   3.202 -0.4484 -0.1444  1.4300
   14SAPS  C213 1791   3.166   1.689   3.231  0.1449 -0.6700 -0.1959
   14SAPS  H13R 1792   3.104   1.759   3.170 -0.2656 -0.6873  0.1927
   14SAPS  H13S 1793   3.268   1.731   3.237 -0.4829  0.9824 -0.4534
   14SAPS  C214 1794   3.113   1.685   3.371 -0.4926 -0.4154 -0.2990
   14SAPS  H14R 1795   3.146   1.604   3.438  1.2211 -0.0100 -0.6069
   14SAPS  C215 1796   3.034   1.784   3.425 -0.4897 -0.7360  0.6993
   14SAPS  H15R 1797   3.003   1.775   3.530 -1.3657 -1.9450  0.3585
   14SAPS  C216 1798   2.997   1.908   3.360 -0.6599 -0.4108  1.4951
   14SAPS  H16R 1799   2.964   1.903   3.254  0.4254 -0.3186  1.1434
   14SAPS  H16S 1800   3.083   1.978   3.371 -0.7117 -0.3076  1.2352
   14SAPS  C217 1801   2.888   1.982   3.438  0.0948  0.0684 -0.7288
   14SAPS  H17R 1802   2.791   1.929   3.429 -1.3008  2.7485 -3.3187
   14SAPS  H17S 1803   2.867   2.080   3.389  1.0606  0.5240 -0.2688
   14SAPS  C218 1804   2.896   2.011   3.592 -0.1322 -0.0836  0.6034
   14SAPS  H18R 1805   2.869   1.918   3.647  0.7407 -1.8421 -1.8085
   14SAPS  H18S 1806   2.816   2.086   3.611  0.5971  1.2208 -1.2681
   14SAPS  C219 1807   3.023   2.086   3.639 -0.5874 -0.2990 -0.2156
   14SAPS  H19R 1808   3.042   2.181   3.583 -0.1980  0.7627  1.6477
   14SAPS  H19S 1809   3.113   2.024   3.616 -1.4170 -0.8148 -2.3046
   14SAPS  C220 1810   3.019   2.112   3.789  0.4389  0.5693  0.4987
   14SAPS  H20R 1811   2.961   2.026   3.830 -0.8098 -0.1259 -2.5088
   14SAPS  H20S 1812   2.959   2.203   3.809 -1.0785 -0.4720  0.9042
   14SAPS  H20T 1813   3.120   2.119   3.835  1.8857  0.2538 -2.4004
   14SAPS   C33 1814   3.848   1.765   2.597  0.4284  0.2418 -0.4082
   14SAPS   H3X 1815   3.843   1.876   2.593  1.3066  0.3570  1.1633
   14SAPS   H3Y 1816   3.953   1.737   2.616  0.4158  1.2351  1.3450
   14SAPS   C34 1817   3.761   1.735   2.720 -0.5091 -0.3820 -0.0314
   14SAPS   H4X 1818   3.733   1.627   2.730 -1.3306 -0.1148  0.6763
   14SAPS   H4Y 1819   3.663   1.784   2.699 -0.6215 -0.7440 -0.3837
   14SAPS   C35 1820   3.809   1.797   2.854 -0.5116  0.6533 -0.1652
   14SAPS   H5X 1821   3.835   1.902   2.828  3.1955 -0.2930 -0.9124
   14SAPS   H5Y 1822   3.906   1.752   2.883 -0.5587  1.0572  0.6195
   14SAPS   C36 1823   3.712   1.779   2.978 -0.1547  0.8901  0.0250
   14SAPS   H6X 1824   3.611   1.805   2.940  0.2303 -0.0249 -1.7106
   14SAPS   H6Y 1825   3.740   1.842   3.066  0.1004  1.1118 -0.2127
   14SAPS   C37 1826   3.726   1.638   3.033  0.1684 -0.0217 -0.0073
   14SAPS   H7X 1827   3.833   1.614   3.054 -0.2105 -2.2872 -0.4943
   14SAPS   H7Y 1828   3.701   1.569   2.950  0.4032 -0.6615  0.4515
   14SAPS   C38 1829   3.645   1.613   3.166 -0.4242  0.1902 -0.2363
   14SAPS   H8X 1830   3.543   1.656   3.161  0.9053  3.6446 -0.2283
   14SAPS   H8Y 1831   3.699   1.666   3.248 -1.5847 -0.4154  0.9677
   14SAPS   C39 1832   3.621   1.466   3.200 -0.1724 -0.4835  0.0329
   14SAPS   H9X 1833   3.717   1.409   3.204 -0.7045 -1.3349  1.2559
   14SAPS   H9Y 1834   3.550   1.444   3.118  1.2578  1.7381 -1.9517
   14SAPS  C310 1835   3.540   1.449   3.336  0.5211 -0.2961  0.1535
   14SAPS  H10X 1836   3.490   1.353   3.361 -1.3440  0.9534  1.4497
   14SAPS  H10Y 1837   3.462   1.528   3.328  1.5163  0.5763 -1.9317
   14SAPS  C311 1838   3.633   1.474   3.456 -0.2341  0.4883  0.3572
   14SAPS  H11X 1839   3.654   1.583   3.456 -0.5483  0.5599 -0.5259
   14SAPS  H11Y 1840   3.726   1.415   3.449 -0.4453  0.0016  1.4019
   14SAPS  C312 1841   3.572   1.427   3.588 -0.4384 -0.0937  0.2137
   14SAPS  H12X 1842   3.524   1.329   3.571  0.3907 -0.1693 -1.9095
   14SAPS  H12Y 1843   3.492   1.500   3.615 -0.5731  0.0830 -0.6512
   14SAPS  C313 1844   3.685   1.405   3.693 -0.9978 -0.0547 -0.0658
   14SAPS  H13X 1845   3.748   1.493   3.717 -0.0991 -0.7974  0.3432
   14SAPS  H13Y 1846   3.747   1.323   3.651  1.2532  1.2889  0.4780
   14SAPS  C314 1847   3.634   1.352   3.827  0.1849  0.1995  0.3285
   14SAPS  H14X 1848   3.726   1.331   3.886  2.3982  2.1428 -2.1469
   14SAPS  H14Y 1849   3.571   1.261   3.816 -0.2364  0.6742 -1.5585
   14SAPS  C315 1850   3.554   1.453   3.912 -0.0444 -0.1764 -0.4195
   14SAPS  H15X 1851   3.452   1.461   3.869 -1.1614 -0.3677  2.0048
   14SAPS  H15Y 1852   3.605   1.552   3.910 -2.7513  1.3779  1.1196
   14SAPS  C316 1853   3.542   1.412   4.059 -0.1140  0.5219 -0.2153
   14SAPS  H16X 1854   3.643   1.389   4.100  0.0281  0.6629 -0.4855
   14SAPS  H16Y 1855   3.480   1.321   4.074  0.3783 -0.1918 -2.2225
   14SAPS  C317 1856   3.484   1.524   4.150  0.3035 -0.3801 -0.2128
   14SAPS  H17X 1857   3.544   1.615   4.128  0.0485 -0.5292 -1.5950
   14SAPS  H17Y 1858   3.516   1.499   4.254  1.4033  0.2030 -0.3914
   14SAPS  C318 1859   3.336   1.565   4.158  0.1880 -0.0034 -0.0962
   14SAPS  H18X 1860   3.300   1.570   4.053 -0.8968 -1.5501  0.1644
   14SAPS  H18Y 1861   3.331   1.670   4.194  1.1613  1.1052 -2.9196
   14SAPS  H18Z 1862   3.277   1.486   4.210 -0.0125 -1.1745 -2.0278
   15SAPS     N 1863   5.009   5.974   1.729 -0.1746  0.5136 -0.8501
   15SAPS   HN1 1864   4.939   6.023   1.789 -1.4473 -0.8140 -1.1798
   15SAPS   HN2 1865   5.096   5.967   1.786 -0.6358  0.6872 -0.1089
   15SAPS   HN3 1866   5.039   6.027   1.644  1.5276  2.0351  0.6176
   15SAPS   C12 1867   4.974   5.837   1.698  0.1912  0.1788  0.1738
   15SAPS  H12A 1868   4.910   5.835   1.611 -0.8823 -0.7677  0.9409
   15SAPS   C13 1869   5.102   5.762   1.659  0.1244 -0.2475  0.4928
   15SAPS  O13A 1870   5.218   5.819   1.662  0.6895  0.0311  0.1582
   15SAPS  O13B 1871   5.096   5.642   1.624 -0.6808  0.0375 -0.2576
   15SAPS   C11 1872   4.895   5.762   1.813  0.4718 -0.5080  0.2372
   15SAPS  H11A 1873   4.973   5.760   1.892  1.5738 -0.2892 -0.8044
   15SAPS  H11B 1874   4.867   5.658   1.788  3.9040 -1.6727  0.6859
   15SAPS     P 1875   4.689   5.808   1.976 -0.0672  0.2148  0.0873
   15SAPS   O13 1876   4.622   5.928   2.028  0.1644  0.3734 -0.3585
   15SAPS   O14 1877   4.600   5.699   1.938 -0.7691  0.1387  0.4199
   15SAPS   O12 1878   4.780   5.837   1.852  0.5413  0.0065 -0.0789
   15SAPS   O11 1879   4.776   5.738   2.087  0.2608 -0.6346 -0.5543
   15SAPS    C1 1880   4.792   5.815   2.213  0.2127 -0.0482  0.0324
   15SAPS    HA 1881   4.802   5.924   2.199 -0.6192  0.0096 -0.1919
   15SAPS    HB 1882   4.700   5.806   2.276  0.3523  0.6993  0.3497
   15SAPS    C2 1883   4.909   5.764   2.307 -0.2902 -0.4822 -0.0694
   15SAPS    HS 1884   4.995   5.765   2.237 -0.9145  0.8141 -0.8357
   15SAPS   O21 1885   4.867   5.631   2.342 -0.5358 -0.0423  0.6147
   15SAPS   C21 1886   4.970   5.551   2.357  0.0761 -0.0454 -0.1785
   15SAPS   O22 1887   5.084   5.594   2.363  0.2911 -0.1382  0.3988
   15SAPS   C22 1888   4.926   5.406   2.379  0.2126 -0.4159 -0.0844
   15SAPS   H2R 1889   4.818   5.391   2.402  0.3315  0.3055  1.0100
   15SAPS   H2S 1890   4.953   5.344   2.291  1.1197  0.2312 -0.2707
   15SAPS    C3 1891   4.933   5.858   2.428  0.6928 -0.4969 -0.1494
   15SAPS    HX 1892   4.984   5.952   2.395  1.0434  0.1695  2.1390
   15SAPS    HY 1893   5.001   5.807   2.500 -0.3884  0.7224  1.8082
   15SAPS   O31 1894   4.815   5.896   2.494 -0.1275 -0.2854 -0.0067
   15SAPS   C31 1895   4.757   6.012   2.477 -0.5284 -1.1041  0.0249
   15SAPS   O32 1896   4.789   6.096   2.392 -0.4129  0.4907  0.0472
   15SAPS   C32 1897   4.640   6.023   2.576  0.1247  1.0168 -0.3422
   15SAPS   H2X 1898   4.544   6.012   2.520  1.3850 -0.8705 -2.2748
   15SAPS   H2Y 1899   4.644   6.129   2.610  0.2097  0.1986  2.4794
   15SAPS   C23 1900   5.017   5.349   2.495 -0.2459 -0.4080  0.4123
   15SAPS   H3R 1901   5.122   5.362   2.463 -0.3469  2.4757  0.9991
   15SAPS   H3S 1902   4.991   5.241   2.490  0.7865 -0.6038 -1.3912
   15SAPS   C24 1903   4.992   5.394   2.634  0.1790  0.3711  0.3927
   15SAPS   H4R 1904   5.033   5.496   2.647  1.1734  0.0785 -0.3716
   15SAPS   H4S 1905   5.065   5.334   2.692 -0.9566 -0.7749  0.6955
   15SAPS   C25 1906   4.855   5.390   2.694  0.5042 -0.4702 -0.3215
   15SAPS   H5R 1907   4.776   5.413   2.620  1.6139  2.7221 -0.6821
   15SAPS   C26 1908   4.814   5.377   2.821 -0.7543 -0.1910 -0.2503
   15SAPS   H6R 1909   4.708   5.402   2.838 -1.1437 -0.2663 -2.3099
   15SAPS   C27 1910   4.904   5.360   2.940 -0.0717 -1.0167  0.4058
   15SAPS   H7R 1911   4.992   5.300   2.909 -0.6079 -1.4986 -0.2286
   15SAPS   H7S 1912   4.847   5.299   3.014 -1.3053 -2.2846 -1.5159
   15SAPS   C28 1913   4.962   5.486   2.999 -0.7167  0.1077  0.2301
   15SAPS   H8R 1914   5.038   5.542   2.942 -0.9552  1.5169  1.2326
   15SAPS   C29 1915   4.937   5.524   3.123  0.3955  0.3086 -0.6022
   15SAPS   H9R 1916   4.978   5.621   3.155 -0.0072  0.9616 -1.9955
   15SAPS  C210 1917   4.841   5.468   3.223  0.5153  0.5530  0.4015
   15SAPS  H10R 1918   4.757   5.410   3.179  0.9753  0.6523 -0.6412
   15SAPS  H10S 1919   4.796   5.565   3.254 -0.7709  0.6295 -1.5082
   15SAPS  C211 1920   4.912   5.384   3.328 -0.1306 -0.5475 -0.0382
   15SAPS  H11R 1921   4.977   5.304   3.289  0.6232 -0.1454  0.3626
   15SAPS  C212 1922   4.902   5.405   3.462  0.7411  0.1994  0.4949
   15SAPS  H12R 1923   4.973   5.364   3.536  2.5486  3.7332  0.9151
   15SAPS  C213 1924   4.817   5.516   3.519  0.3574 -0.2484  0.0128
   15SAPS  H13R 1925   4.714   5.475   3.518  0.9835 -1.8992 -1.1618
   15SAPS  H13S 1926   4.816   5.610   3.461 -1.6710  0.4017  1.0180
   15SAPS  C214 1927   4.852   5.553   3.663 -0.6298  0.4532 -0.2609
   15SAPS  H14R 1928   4.878   5.659   3.676  0.8636  0.0776 -0.0165
   15SAPS  C215 1929   4.842   5.477   3.774  0.0179  0.2125  1.1027
   15SAPS  H15R 1930   4.861   5.514   3.876  2.9453  0.2764  0.6217
   15SAPS  C216 1931   4.777   5.339   3.777 -0.0510 -0.5430 -0.2207
   15SAPS  H16R 1932   4.860   5.269   3.801  1.2497  0.0248 -2.7703
   15SAPS  H16S 1933   4.727   5.315   3.681  1.0575 -0.2538 -0.8805
   15SAPS  C217 1934   4.673   5.324   3.886 -0.0986 -0.2707 -0.6876
   15SAPS  H17R 1935   4.575   5.368   3.857 -1.2004 -2.4107 -0.3979
   15SAPS  H17S 1936   4.715   5.373   3.977 -0.6374  3.2171 -2.1719
   15SAPS  C218 1937   4.639   5.177   3.918 -0.0146 -0.6315 -0.5095
   15SAPS  H18R 1938   4.703   5.135   3.999  0.4142  0.8765 -0.0139
   15SAPS  H18S 1939   4.660   5.119   3.826  0.8951 -0.8751 -0.1621
   15SAPS  C219 1940   4.491   5.158   3.964 -0.3783  1.3630  0.9004
   15SAPS  H19R 1941   4.426   5.219   3.897  1.6235  3.5338  0.8000
   15SAPS  H19S 1942   4.474   5.196   4.067 -0.0668  1.3643  0.9511
   15SAPS  C220 1943   4.451   5.011   3.956  0.2516 -0.2927  0.4655
   15SAPS  H20R 1944   4.463   4.969   3.854 -2.8020  1.2703 -0.6630
   15SAPS  H20S 1945   4.351   4.988   3.997 -0.8266  2.7204 -0.2156
   15SAPS  H20T 1946   4.522   4.963   4.027 -3.5177 -2.1528  3.3174
   15SAPS   C33 1947   4.627   5.924   2.699 -0.2602  1.0540 -0.1998
   15SAPS   H3X 1948   4.642   5.816   2.675 -0.1465  0.9633  0.2724
   15SAPS   H3Y 1949   4.519   5.930   2.723 -0.4124  0.7251 -0.7902
   15SAPS   C34 1950   4.720   5.966   2.814 -0.6189  0.6153  0.4915
   15SAPS   H4X 1951   4.688   6.065   2.852 -0.3764  0.6045  0.7304
   15SAPS   H4Y 1952   4.824   5.969   2.773  0.3002  0.4877  2.6881
   15SAPS   C35 1953   4.732   5.865   2.929  0.1495  0.1803 -0.0012
   15SAPS   H5X 1954   4.827   5.879   2.986 -0.1585  0.2809  0.4943
   15SAPS   H5Y 1955   4.738   5.763   2.887 -1.0689 -0.4151  1.1907
   15SAPS   C36 1956   4.614   5.873   3.031 -0.8081 -0.2252  0.3572
   15SAPS   H6X 1957   4.514   5.865   2.985 -1.2512 -0.6369  1.3687
   15SAPS   H6Y 1958   4.626   5.972   3.081  1.3844 -1.7373  3.1619
   15SAPS   C37 1959   4.629   5.770   3.144  0.2333  0.2389 -0.7306
   15SAPS   H7X 1960   4.719   5.793   3.205  1.0755  0.0671 -1.8761
   15SAPS   H7Y 1961   4.639   5.669   3.098 -1.2107 -1.2898  2.0569
   15SAPS   C38 1962   4.510   5.761   3.239 -0.2528 -0.0524  0.5692
   15SAPS   H8X 1963   4.423   5.751   3.171  0.4367  1.0567 -0.5274
   15SAPS   H8Y 1964   4.490   5.853   3.297  0.0136 -0.3829  1.2010
   15SAPS   C39 1965   4.510   5.647   3.335  0.2830  0.1254 -0.2625
   15SAPS   H9X 1966   4.601   5.650   3.398 -0.1130 -1.0051  0.3938
   15SAPS   H9Y 1967   4.522   5.560   3.267 -1.1572  0.8662 -1.5418
   15SAPS  C310 1968   4.382   5.638   3.425  0.0111 -0.7009 -0.0375
   15SAPS  H10X 1969   4.398   5.552   3.493  0.2530  0.6629  1.7226
   15SAPS  H10Y 1970   4.295   5.607   3.365 -0.1898  0.7830 -0.5714
   15SAPS  C311 1971   4.377   5.763   3.513 -0.2822  0.9465  0.2837
   15SAPS  H11X 1972   4.331   5.840   3.448 -0.1857  0.3842 -0.4640
   15SAPS  H11Y 1973   4.481   5.778   3.551  0.0036 -2.7146  1.3130
   15SAPS  C312 1974   4.272   5.753   3.626  0.3136 -1.2113 -0.2955
   15SAPS  H12X 1975   4.168   5.730   3.595  0.1691 -2.0944  0.7779
   15SAPS  H12Y 1976   4.274   5.847   3.685  0.5147 -0.7339 -1.0479
   15SAPS  C313 1977   4.292   5.655   3.736 -0.1348  0.1190  0.0563
   15SAPS  H13X 1978   4.386   5.685   3.787  0.8449  0.2415 -1.7622
   15SAPS  H13Y 1979   4.312   5.553   3.696 -0.5169  0.7587 -1.8627
   15SAPS  C314 1980   4.174   5.650   3.836  0.7985 -0.0878 -0.1585
   15SAPS  H14X 1981   4.181   5.563   3.905  0.4292  0.2456  0.3052
   15SAPS  H14Y 1982   4.068   5.646   3.801 -0.0958  0.6509  2.2166
   15SAPS  C315 1983   4.176   5.772   3.930  0.2303  0.5765  0.0303
   15SAPS  H15X 1984   4.147   5.861   3.870  0.6610  1.1101  0.5896
   15SAPS  H15Y 1985   4.282   5.782   3.964 -0.6243 -1.1086  3.6987
   15SAPS  C316 1986   4.093   5.739   4.055  1.4043 -0.2686  0.1999
   15SAPS  H16X 1987   4.092   5.826   4.125 -3.8572 -0.9478  1.4026
   15SAPS  H16Y 1988   4.139   5.653   4.108 -0.1953 -1.7105 -0.6529
   15SAPS  C317 1989   3.940   5.714   4.032  0.2725  0.2309  0.1525
   15SAPS  H17X 1990   3.898   5.663   4.121 -1.0544 -0.4795 -0.8365
   15SAPS  H17Y 1991   3.930   5.627   3.963 -0.4326  0.3129  0.1416
   15SAPS  C318 1992   3.852   5.837   3.985  0.5511 -0.7509  0.5187
   15SAPS  H18X 1993   3.906   5.893   3.905  1.4282  0.3312  1.8279
   15SAPS  H18Y 1994   3.833   5.919   4.058 -3.0390  0.9566 -2.0343
   15SAPS  H18Z 1995   3.754   5.806   3.945  0.8423  0.4057 -1.2350
   16SAPS     N 1996   6.133   4.174   1.594  0.4245  0.1521  0.3820
   16SAPS   HN1 1997   6.176   4.082   1.612  1.9872  1.1616  2.2560
   16SAPS   HN2 1998   6.134   4.189   1.491 -1.2709 -1.2734  0.1085
   16SAPS   HN3 1999   6.193   4.245   1.640  1.3553  1.1214 -2.1808
   16SAPS   C12 2000   5.986   4.174   1.639  0.0877 -0.4113 -0.4894
   16SAPS  H12A 2001   5.936   4.269   1.634  0.2714  0.0586  3.4889
   16SAPS   C13 2002   5.901   4.082   1.550  0.2777 -0.4157 -0.1844
   16SAPS  O13A 2003   5.954   4.000   1.483  0.2656 -0.0438  0.5586
   16SAPS  O13B 2004   5.777   4.088   1.558 -0.4224 -0.3350 -0.4582
   16SAPS   C11 2005   5.992   4.113   1.796  0.3400 -0.2485  0.6407
   16SAPS  H11A 2006   6.047   4.017   1.784 -1.4145 -1.1495 -0.7358
   16SAPS  H11B 2007   5.888   4.084   1.823 -0.9631  2.6840 -0.7839
   16SAPS     P 2008   5.958   4.318   1.942  0.4496 -0.0566 -0.0763
   16SAPS   O13 2009   6.048   4.431   1.919  0.1763  0.3703  0.8649
   16SAPS   O14 2010   5.829   4.327   1.875 -0.1112 -0.3033 -0.0598
   16SAPS   O12 2011   6.042   4.200   1.896  0.5956  1.2961 -0.0254
   16SAPS   O11 2012   5.952   4.293   2.095  0.2503  0.1041 -0.9095
   16SAPS    C1 2013   5.853   4.193   2.133  0.2793 -0.5770 -0.1729
   16SAPS    HA 2014   5.828   4.116   2.057 -0.4072 -2.1975  1.5862
   16SAPS    HB 2015   5.901   4.129   2.210 -2.1783  0.4458  2.3802
   16SAPS    C2 2016   5.722   4.247   2.192  0.0746 -0.4160 -0.5355
   16SAPS    HS 2017   5.661   4.304   2.118 -0.0149 -1.1712 -1.0514
   16SAPS   O21 2018   5.755   4.338   2.300 -0.4225 -0.2845  0.3763
   16SAPS   C21 2019   5.777   4.459   2.257 -0.1177  0.0023  0.1388
   16SAPS   O22 2020   5.753   4.505   2.142 -0.4528 -0.1794 -0.1487
   16SAPS   C22 2021   5.843   4.534   2.374 -0.4355  0.3706 -0.5177
   16SAPS   H2R 2022   5.784   4.627   2.390  1.5777  1.2729  2.4468
   16SAPS   H2S 2023   5.844   4.471   2.466 -4.6260 -3.1381 -2.5226
   16SAPS    C3 2024   5.624   4.137   2.236 -0.1959 -0.2854 -0.1843
   16SAPS    HX 2025   5.659   4.089   2.330 -0.7448 -3.4214 -1.4704
   16SAPS    HY 2026   5.621   4.060   2.157  0.6714  0.3663 -0.8755
   16SAPS   O31 2027   5.501   4.199   2.258 -0.3784 -0.0643  0.2021
   16SAPS   C31 2028   5.423   4.201   2.152  0.8467  0.3917 -0.3576
   16SAPS   O32 2029   5.445   4.151   2.043  0.2743  0.4958 -0.0772
   16SAPS   C32 2030   5.292   4.274   2.183 -0.6234 -0.1722 -0.0328
   16SAPS   H2X 2031   5.241   4.221   2.266  0.2565 -0.4581  0.3397
   16SAPS   H2Y 2032   5.237   4.264   2.087 -1.3193 -1.4711  0.4876
   16SAPS   C23 2033   5.984   4.567   2.332  0.7897 -0.0993  0.4833
   16SAPS   H3R 2034   5.996   4.650   2.259  0.4722 -1.3941 -1.0967
   16SAPS   H3S 2035   6.025   4.471   2.292 -0.4338 -0.3529 -0.2095
   16SAPS   C24 2036   6.077   4.603   2.449  0.3714  0.0469  0.3587
   16SAPS   H4R 2037   6.170   4.637   2.399 -0.8605  1.3950 -1.0970
   16SAPS   H4S 2038   6.079   4.509   2.509 -2.6717 -0.0098  0.5000
   16SAPS   C25 2039   6.037   4.708   2.547  0.0691  0.3212  0.6164
   16SAPS   H5R 2040   5.974   4.784   2.498  0.2075  0.2612  0.3452
   16SAPS   C26 2041   6.053   4.700   2.675  0.7882  0.1106  0.4009
   16SAPS   H6R 2042   6.019   4.787   2.734  0.6500  0.3419 -0.0192
   16SAPS   C27 2043   6.123   4.586   2.749 -0.2206 -0.1034 -0.1860
   16SAPS   H7R 2044   6.211   4.548   2.692  0.2205 -0.1634  0.5182
   16SAPS   H7S 2045   6.052   4.506   2.779  0.1715 -0.1643  0.6194
   16SAPS   C28 2046   6.178   4.645   2.879 -0.2797 -0.1134  0.0882
   16SAPS   H8R 2047   6.267   4.709   2.879  0.4387 -1.1066  0.3978
   16SAPS   C29 2048   6.113   4.638   2.999 -0.4421 -0.9439  0.0829
   16SAPS   H9R 2049   6.168   4.671   3.089 -1.3242 -0.9056  0.6285
   16SAPS  C210 2050   5.983   4.566   3.027 -0.1013 -0.2967  0.2127
   16SAPS  H10R 2051   6.009   4.460   3.046  0.6103 -0.1131  0.2880
   16SAPS  H10S 2052   5.921   4.557   2.935  1.3021 -0.6733 -0.7286
   16SAPS  C211 2053   5.913   4.623   3.154  0.0016 -0.4047 -0.8178
   16SAPS  H11R 2054   5.885   4.728   3.143  0.5682 -0.1681 -0.0359
   16SAPS  C212 2055   5.889   4.574   3.278 -0.3159 -0.6213  0.4603
   16SAPS  H12R 2056   5.813   4.627   3.337  0.9522  1.6611  0.1483
   16SAPS  C213 2057   5.925   4.440   3.336  0.9484  0.2209 -0.0875
   16SAPS  H13R 2058   6.016   4.395   3.290  0.5372 -1.8345  0.9661
   16SAPS  H13S 2059   5.846   4.365   3.314  3.0381 -2.3348  0.5017
   16SAPS  C214 2060   5.946   4.447   3.486  0.6103  0.5149 -0.4736
   16SAPS  H14R 2061   5.917   4.542   3.533 -0.1468 -0.3346  0.8481
   16SAPS  C215 2062   6.027   4.371   3.556 -0.5761  0.6256 -0.1930
   16SAPS  H15R 2063   6.045   4.375   3.665 -0.0520 -4.6720  0.1696
   16SAPS  C216 2064   6.111   4.251   3.504 -1.0939 -0.2439  0.4098
   16SAPS  H16R 2065   6.192   4.232   3.578 -0.2127  1.9692  0.1105
   16SAPS  H16S 2066   6.145   4.272   3.401 -0.4787 -1.4030  0.3608
   16SAPS  C217 2067   6.052   4.114   3.492  1.1261  0.3129  0.5954
   16SAPS  H17R 2068   5.968   4.117   3.419  1.0787 -1.3513  0.5479
   16SAPS  H17S 2069   6.010   4.082   3.590  0.4082 -2.0915 -0.4203
   16SAPS  C218 2070   6.154   4.012   3.432  0.6264 -1.1115  0.3522
   16SAPS  H18R 2071   6.244   4.005   3.497 -0.5333  0.0721  2.1799
   16SAPS  H18S 2072   6.188   4.050   3.334  0.8401 -2.1582  0.0161
   16SAPS  C219 2073   6.105   3.870   3.412  0.1014  0.1795  0.8155
   16SAPS  H19R 2074   6.017   3.873   3.343 -0.3985 -4.5753  0.8744
   16SAPS  H19S 2075   6.062   3.841   3.510  0.1425  0.4488  0.9144
   16SAPS  C220 2076   6.210   3.775   3.353 -0.1769 -0.3465  0.1668
   16SAPS  H20R 2077   6.216   3.799   3.245 -1.9642  0.2621  0.1660
   16SAPS  H20S 2078   6.183   3.668   3.361 -0.8815 -0.3654 -1.9697
   16SAPS  H20T 2079   6.311   3.797   3.394  0.4182  1.3168 -1.9833
   16SAPS   C33 2080   5.314   4.427   2.203 -0.4943  0.6486  0.1155
   16SAPS   H3X 2081   5.216   4.475   2.181 -0.7749 -0.3738 -0.9844
   16SAPS   H3Y 2082   5.388   4.458   2.126  0.5836 -0.1082  0.8293
   16SAPS   C34 2083   5.366   4.463   2.344  0.1978  0.1698 -0.2319
   16SAPS   H4X 2084   5.473   4.432   2.346 -0.6896 -3.5548 -1.7335
   16SAPS   H4Y 2085   5.318   4.408   2.427 -0.2203 -0.6783 -1.0147
   16SAPS   C35 2086   5.349   4.610   2.384  0.3479  0.3177 -0.0090
   16SAPS   H5X 2087   5.244   4.643   2.379 -0.2923 -1.5248  0.4474
   16SAPS   H5Y 2088   5.413   4.677   2.323 -0.2277  0.6203 -0.2844
   16SAPS   C36 2089   5.393   4.644   2.530 -0.1492  1.1860 -0.0857
   16SAPS   H6X 2090   5.329   4.587   2.600 -1.1905  0.6149 -1.4677
   16SAPS   H6Y 2091   5.364   4.751   2.539 -2.1950  0.6291  0.3633
   16SAPS   C37 2092   5.541   4.618   2.552 -0.2748  0.5376  1.0938
   16SAPS   H7X 2093   5.581   4.663   2.459  0.3951  0.4227  1.3194
   16SAPS   H7Y 2094   5.574   4.512   2.557 -2.2574 -0.2808 -1.3403
   16SAPS   C38 2095   5.611   4.698   2.666  1.0333  0.3479 -0.2100
   16SAPS   H8X 2096   5.592   4.805   2.643  3.0132  0.8310  0.2711
   16SAPS   H8Y 2097   5.721   4.688   2.671  1.1922  2.1134  4.3115
   16SAPS   C39 2098   5.573   4.653   2.809 -0.3114 -0.0519  0.0997
   16SAPS   H9X 2099   5.631   4.561   2.832 -3.5752 -2.6098 -1.1020
   16SAPS   H9Y 2100   5.466   4.626   2.821 -0.2438  0.2222  1.5300
   16SAPS  C310 2101   5.606   4.762   2.918  0.4105  0.0115  0.3334
   16SAPS  H10X 2102   5.715   4.783   2.909  0.4164 -0.5430 -1.1701
   16SAPS  H10Y 2103   5.602   4.710   3.016  0.5785  0.1179  0.3971
   16SAPS  C311 2104   5.535   4.894   2.922  0.2519 -0.0528 -0.8808
   16SAPS  H11X 2105   5.430   4.871   2.950  0.5203 -1.1074 -0.7173
   16SAPS  H11Y 2106   5.537   4.938   2.820 -0.6502  0.8893 -0.5213
   16SAPS  C312 2107   5.601   4.987   3.023  0.1368 -0.2153  0.2578
   16SAPS  H12X 2108   5.666   5.056   2.964 -1.0306  0.3911 -0.3640
   16SAPS  H12Y 2109   5.672   4.933   3.088 -0.9001 -0.3335  1.3157
   16SAPS  C313 2110   5.504   5.066   3.111 -0.5773 -0.7254 -0.3374
   16SAPS  H13X 2111   5.452   5.132   3.039  0.7040  3.5537  2.3182
   16SAPS  H13Y 2112   5.576   5.124   3.172  1.0226 -3.2347  0.3210
   16SAPS  C314 2113   5.420   4.983   3.206  0.4384  0.1579  0.0806
   16SAPS  H14X 2114   5.486   4.940   3.285  1.5162  0.1170 -0.8105
   16SAPS  H14Y 2115   5.372   4.907   3.141  0.8046 -0.3665  0.4212
   16SAPS  C315 2116   5.314   5.060   3.282 -0.6725  0.0696  0.2851
   16SAPS  H15X 2117   5.273   5.143   3.220 -0.3174  0.6257  0.7769
   16SAPS  H15Y 2118   5.368   5.117   3.361  2.3823 -1.9358 -0.1809
   16SAPS  C316 2119   5.208   4.982   3.348  0.7819 -0.1859 -0.0887
   16SAPS  H16X 2120   5.253   4.940   3.441  0.4862  1.2287  0.7250
   16SAPS  H16Y 2121   5.166   4.906   3.279  0.3626  0.0574 -0.1092
   16SAPS  C317 2122   5.105   5.070   3.416 -0.6014 -1.1089  0.2304
   16SAPS  H17X 2123   5.045   5.111   3.331  1.0958 -0.0017 -0.4977
   16SAPS  H17Y 2124   5.149   5.161   3.462  1.0243 -1.1291 -1.1992
   16SAPS  C318 2125   5.017   4.992   3.515 -0.0423 -0.4925 -1.1253
   16SAPS  H18X 2126   4.945   4.922   3.467  0.3701  0.2511 -2.9184
   16SAPS  H18Y 2127   4.947   5.057   3.571 -0.1140 -1.4317 -0.1015
   16SAPS  H18Z 2128   5.086   4.937   3.584 -1.7598  1.3321  2.2689
   17SAPS     N 2129   2.691   5.489   2.019  0.4615  0.0429  0.0400
   17SAPS   HN1 2130   2.774   5.429   2.037  0.6126  0.5565  1.1400
   17SAPS   HN2 2131   2.673   5.542   2.107 -0.4394 -2.5214  1.5037
   17SAPS   HN3 2132   2.609   5.430   1.996  1.5599 -1.9181  0.9156
   17SAPS   C12 2133   2.717   5.574   1.903 -0.0030 -0.8308  0.1399
   17SAPS  H12A 2134   2.778   5.659   1.931  0.1548 -0.5156 -1.0823
   17SAPS   C13 2135   2.782   5.513   1.774 -0.0602 -0.3699  0.2105
   17SAPS  O13A 2136   2.825   5.396   1.773 -0.4699 -0.3200 -0.1575
   17SAPS  O13B 2137   2.789   5.584   1.671  0.1501 -0.0134  0.3124
   17SAPS   C11 2138   2.579   5.643   1.871  0.0098 -0.1750  0.2592
   17SAPS  H11A 2139   2.529   5.583   1.793 -1.2642  1.4067 -0.1837
   17SAPS  H11B 2140   2.598   5.736   1.813 -1.5711  0.2898  0.4352
   17SAPS     P 2141   2.393   5.774   1.994 -0.1817  0.1284  0.0588
   17SAPS   O13 2142   2.463   5.896   1.949 -0.6033 -0.0676  0.5356
   17SAPS   O14 2143   2.266   5.750   1.918 -0.1507 -0.4024  0.6921
   17SAPS   O12 2144   2.492   5.657   1.984  0.5605  0.6123 -0.7312
   17SAPS   O11 2145   2.372   5.796   2.148  0.6442 -0.3770 -0.2239
   17SAPS    C1 2146   2.365   5.694   2.239  0.3624 -0.1086  0.2135
   17SAPS    HA 2147   2.451   5.625   2.222 -0.1163 -0.7151  0.2032
   17SAPS    HB 2148   2.379   5.735   2.342  2.2014 -0.6956  0.2473
   17SAPS    C2 2149   2.242   5.602   2.229 -0.4218  0.3626 -0.1030
   17SAPS    HS 2150   2.223   5.582   2.121 -0.3413 -1.1192  0.1316
   17SAPS   O21 2151   2.128   5.677   2.284  0.4379 -0.3966  0.8022
   17SAPS   C21 2152   2.021   5.627   2.239 -0.1753 -0.0338 -0.1332
   17SAPS   O22 2153   2.005   5.538   2.156 -0.1016 -0.6027  0.1322
   17SAPS   C22 2154   1.904   5.694   2.314  0.3393 -0.0604 -0.0025
   17SAPS   H2R 2155   1.886   5.656   2.417 -1.4013  1.3006  0.2490
   17SAPS   H2S 2156   1.939   5.799   2.325  0.4106  0.0087 -0.7900
   17SAPS    C3 2157   2.274   5.455   2.298 -0.2519  0.5427 -0.4247
   17SAPS    HX 2158   2.363   5.411   2.247  0.3712 -0.6154  1.5395
   17SAPS    HY 2159   2.191   5.382   2.286  0.3392 -0.3826  0.8277
   17SAPS   O31 2160   2.313   5.478   2.430 -0.0910 -0.4467  0.2814
   17SAPS   C31 2161   2.208   5.489   2.526 -0.5920  1.1701  0.8003
   17SAPS   O32 2162   2.093   5.472   2.495 -0.3292 -0.2735 -0.6177
   17SAPS   C32 2163   2.256   5.546   2.661 -0.3093 -0.3854 -0.5478
   17SAPS   H2X 2164   2.327   5.627   2.635  0.9689 -1.4216 -0.3580
   17SAPS   H2Y 2165   2.317   5.473   2.719  0.7731 -0.3729 -1.6523
   17SAPS   C23 2166   1.772   5.702   2.237 -0.0145 -0.0932  0.0870
   17SAPS   H3R 2167   1.734   5.600   2.221  1.4313 -0.7774  0.7935
   17SAPS   H3S 2168   1.791   5.758   2.143  0.5797  0.6511  0.6245
   17SAPS   C24 2169   1.660   5.772   2.324 -0.3083 -0.9366  0.5028
   17SAPS   H4R 2170   1.672   5.883   2.323 -0.8728 -0.8714 -0.6622
   17SAPS   H4S 2171   1.668   5.736   2.429 -1.0399 -3.1373 -0.1452
   17SAPS   C25 2172   1.515   5.753   2.276 -0.2261 -0.8088  0.1090
   17SAPS   H5R 2173   1.495   5.821   2.192  1.3467 -0.2082  0.1843
   17SAPS   C26 2174   1.415   5.690   2.331  0.1269  0.5889 -0.1931
   17SAPS   H6R 2175   1.313   5.686   2.291  0.2118 -0.8456 -0.3225
   17SAPS   C27 2176   1.425   5.625   2.471  0.1898  0.2912  0.6352
   17SAPS   H7R 2177   1.332   5.647   2.528 -0.6157  1.5915 -1.0845
   17SAPS   H7S 2178   1.500   5.674   2.537 -0.3334  1.0938  0.6449
   17SAPS   C28 2179   1.462   5.482   2.467  0.5215  0.2037 -0.5665
   17SAPS   H8R 2180   1.414   5.426   2.385 -1.3119  1.1384 -0.2034
   17SAPS   C29 2181   1.531   5.413   2.570  0.2293 -0.0426  0.0892
   17SAPS   H9R 2182   1.542   5.303   2.569 -0.1993 -0.1098  1.3498
   17SAPS  C210 2183   1.586   5.469   2.698  0.0309  0.2964 -0.4959
   17SAPS  H10R 2184   1.537   5.403   2.773 -4.2837  4.3997  0.7574
   17SAPS  H10S 2185   1.552   5.572   2.723 -0.8812 -0.5848  2.3290
   17SAPS  C211 2186   1.730   5.459   2.673 -0.3825 -0.0255  0.0581
   17SAPS  H11R 2187   1.770   5.525   2.594  0.0485 -0.6935 -0.2925
   17SAPS  C212 2188   1.813   5.377   2.736  0.7066 -0.2712  0.1150
   17SAPS  H12R 2189   1.922   5.392   2.737  0.8157 -0.9598  1.9082
   17SAPS  C213 2190   1.773   5.269   2.838  0.3252  0.1712 -0.0959
   17SAPS  H13R 2191   1.865   5.209   2.852 -0.8428 -2.1886 -1.9114
   17SAPS  H13S 2192   1.701   5.200   2.789 -0.8697  0.3505  1.3367
   17SAPS  C214 2193   1.718   5.333   2.969  0.0560  0.5466  0.1839
   17SAPS  H14R 2194   1.705   5.442   2.960 -2.3922  0.1623 -2.4431
   17SAPS  C215 2195   1.677   5.264   3.078  0.2460 -1.1853  0.7097
   17SAPS  H15R 2196   1.643   5.312   3.171  0.9886 -1.2356  1.0146
   17SAPS  C216 2197   1.685   5.113   3.081 -0.1006 -0.4498  0.2102
   17SAPS  H16R 2198   1.721   5.067   2.987 -1.0426  2.0592 -1.4593
   17SAPS  H16S 2199   1.585   5.069   3.102  0.4712 -0.9639  2.0630
   17SAPS  C217 2200   1.771   5.078   3.199  0.7621  0.6648  0.4986
   17SAPS  H17R 2201   1.738   5.133   3.290  0.2702  2.7925 -0.8952
   17SAPS  H17S 2202   1.877   5.094   3.170  0.1868  3.0285 -0.5557
   17SAPS  C218 2203   1.749   4.922   3.227 -0.4280 -0.7413  0.1430
   17SAPS  H18R 2204   1.643   4.905   3.253 -0.5080  2.5160  2.6792
   17SAPS  H18S 2205   1.814   4.898   3.314 -1.3811 -2.4344  0.4121
   17SAPS  C219 2206   1.775   4.816   3.118 -0.3068  0.1348 -0.3604
   17SAPS  H19R 2207   1.695   4.825   3.041 -0.5610  0.9595 -0.0079
   17SAPS  H19S 2208   1.764   4.715   3.163  0.7078  0.3912  0.4990
   17SAPS  C220 2209   1.912   4.822   3.039  0.5075  0.1557 -0.2372
   17SAPS  H20R 2210   1.939   4.915   2.985  3.2591 -0.4137  0.0093
   17SAPS  H20S 2211   1.905   4.753   2.952  1.8028  1.8818 -1.7809
   17SAPS  H20T 2212   2.000   4.800   3.102  1.5582 -2.1869 -2.3145
   17SAPS   C33 2213   2.150   5.608   2.751  0.4388 -0.5825 -0.1696
   17SAPS   H3X 2214   2.064   5.538   2.757  0.4620 -0.5808  0.2522
   17SAPS   H3Y 2215   2.110   5.702   2.708  3.4027  1.7501  1.7130
   17SAPS   C34 2216   2.191   5.640   2.897 -0.3361 -0.0643 -0.2697
   17SAPS   H4X 2217   2.243   5.556   2.947  0.4678  1.0013  0.7634
   17SAPS   H4Y 2218   2.101   5.656   2.960  1.3368 -0.1659  2.3198
   17SAPS   C35 2219   2.291   5.755   2.919 -0.0342  0.3717  0.2879
   17SAPS   H5X 2220   2.253   5.855   2.887 -0.7343  0.8026  2.2843
   17SAPS   H5Y 2221   2.383   5.742   2.859 -1.8658  1.7254 -3.1261
   17SAPS   C36 2222   2.330   5.754   3.068 -0.2850 -0.1896 -0.5733
   17SAPS   H6X 2223   2.400   5.840   3.070 -0.5106  0.0930 -2.2997
   17SAPS   H6Y 2224   2.390   5.664   3.088 -2.4630 -1.3079  1.3648
   17SAPS   C37 2225   2.227   5.757   3.179  0.5101 -0.4333 -0.2042
   17SAPS   H7X 2226   2.158   5.670   3.181 -3.1326  2.2071 -0.6849
   17SAPS   H7Y 2227   2.160   5.843   3.156  0.9287  0.1501  0.7255
   17SAPS   C38 2228   2.289   5.791   3.314 -0.0267 -0.5466  0.3452
   17SAPS   H8X 2229   2.328   5.895   3.321  1.5967 -1.2204  2.1770
   17SAPS   H8Y 2230   2.370   5.723   3.349 -0.1119 -2.0172 -2.1088
   17SAPS   C39 2231   2.187   5.786   3.429 -0.0435  0.4231 -0.2652
   17SAPS   H9X 2232   2.155   5.680   3.432 -1.0265  0.7390  1.3559
   17SAPS   H9Y 2233   2.092   5.842   3.415 -0.7113 -0.4300  0.7621
   17SAPS  C310 2234   2.252   5.815   3.566  0.0189  0.2366  0.7267
   17SAPS  H10X 2235   2.310   5.909   3.574  1.4769 -0.3063 -2.1116
   17SAPS  H10Y 2236   2.318   5.729   3.594  0.7099  0.1412 -1.0819
   17SAPS  C311 2237   2.132   5.810   3.671 -0.0941 -0.5083 -0.0915
   17SAPS  H11X 2238   2.063   5.725   3.654  1.0985 -1.8190  1.3870
   17SAPS  H11Y 2239   2.078   5.906   3.656 -0.7040 -0.9936 -1.1641
   17SAPS  C312 2240   2.174   5.795   3.816 -0.8449  0.0328  0.3198
   17SAPS  H12X 2241   2.226   5.697   3.828  0.0432  0.5182  0.5129
   17SAPS  H12Y 2242   2.089   5.785   3.887  0.2070 -0.9236  1.4993
   17SAPS  C313 2243   2.253   5.914   3.870 -1.2058  0.2705  0.1858
   17SAPS  H13X 2244   2.300   5.970   3.786  0.9941 -0.1319  1.0914
   17SAPS  H13Y 2245   2.329   5.877   3.941 -1.4435 -1.7449 -0.5566
   17SAPS  C314 2246   2.155   6.008   3.944 -0.5800  0.6743  0.5314
   17SAPS  H14X 2247   2.102   5.956   4.026  1.7362 -1.1555  0.9645
   17SAPS  H14Y 2248   2.076   6.046   3.876  1.6367  3.5601 -0.6647
   17SAPS  C315 2249   2.224   6.137   3.995  0.1128  0.6335 -1.0324
   17SAPS  H15X 2250   2.318   6.169   3.944 -0.2041  1.8421 -0.8847
   17SAPS  H15Y 2251   2.259   6.119   4.099  0.7817  0.5260 -1.2749
   17SAPS  C316 2252   2.123   6.256   3.989 -0.4962  0.0474 -0.2559
   17SAPS  H16X 2253   2.030   6.221   4.040  0.3864 -0.5567  1.0106
   17SAPS  H16Y 2254   2.095   6.278   3.884 -0.9272 -1.1260 -0.4061
   17SAPS  C317 2255   2.172   6.383   4.059  0.0499 -0.1076  0.5619
   17SAPS  H17X 2256   2.270   6.423   4.025 -0.7957  1.2949 -0.3432
   17SAPS  H17Y 2257   2.184   6.368   4.169  0.2721 -0.7772  0.4514
   17SAPS  C318 2258   2.072   6.500   4.062 -0.3274  0.2073 -0.3986
   17SAPS  H18X 2259   2.064   6.550   3.963  0.1388  2.2052  0.5239
   17SAPS  H18Y 2260   2.114   6.577   4.130  2.9509 -2.1870  0.4840
   17SAPS  H18Z 2261   1.967   6.470   4.085 -0.4692  1.0366  0.0949
   18SAPS     N 2262   6.581   3.745   1.845 -0.3766  0.4815 -0.1083
   18SAPS   HN1 2263   6.683   3.763   1.832 -0.1425 -1.1578 -0.8015
   18SAPS   HN2 2264   6.537   3.839   1.845 -1.8486 -0.1848  0.6273
   18SAPS   HN3 2265   6.565   3.706   1.939  2.0533  2.1755  1.1205
   18SAPS   C12 2266   6.526   3.652   1.735 -0.0722 -0.2374 -0.2507
   18SAPS  H12A 2267   6.422   3.634   1.758 -0.0924  1.1274  0.8889
   18SAPS   C13 2268   6.529   3.711   1.598  0.2615  0.1995 -0.3081
   18SAPS  O13A 2269   6.555   3.837   1.589  0.1528 -0.3387 -0.4648
   18SAPS  O13B 2270   6.474   3.644   1.503  0.0510 -0.1069  0.2899
   18SAPS   C11 2271   6.612   3.524   1.743 -0.0297  0.2952  1.1249
   18SAPS  H11A 2272   6.716   3.546   1.712  0.0206  1.3182  1.9642
   18SAPS  H11B 2273   6.574   3.455   1.664 -0.7819  2.6568 -0.6953
   18SAPS     P 2274   6.508   3.359   1.905 -0.1635  0.1242 -0.1761
   18SAPS   O13 2275   6.376   3.423   1.935 -0.3495 -0.1746  0.4825
   18SAPS   O14 2276   6.501   3.246   1.807  0.7824  0.6510  0.8984
   18SAPS   O12 2277   6.624   3.459   1.869  0.7869  0.2369 -0.1932
   18SAPS   O11 2278   6.562   3.305   2.045 -0.2792 -0.5953  0.4475
   18SAPS    C1 2279   6.532   3.382   2.162 -0.1395 -0.6005 -0.6654
   18SAPS    HA 2280   6.579   3.482   2.150  1.8224 -1.4858 -0.7045
   18SAPS    HB 2281   6.423   3.393   2.180  0.3939  3.9319  1.1799
   18SAPS    C2 2282   6.603   3.323   2.291  0.4107  0.4761 -0.0485
   18SAPS    HS 2283   6.567   3.377   2.381  0.3455 -1.7720  1.3556
   18SAPS   O21 2284   6.749   3.325   2.283  0.4983 -0.7755  0.4065
   18SAPS   C21 2285   6.796   3.445   2.329 -0.6849 -0.4842  0.3292
   18SAPS   O22 2286   6.727   3.544   2.339 -0.1004  0.0392  0.5267
   18SAPS   C22 2287   6.947   3.449   2.349 -0.8574 -0.0669  0.0910
   18SAPS   H2R 2288   6.975   3.342   2.352 -2.7152 -0.6899 -2.0102
   18SAPS   H2S 2289   7.002   3.479   2.257  1.2900 -3.0289  0.2563
   18SAPS    C3 2290   6.556   3.176   2.311 -0.1128 -0.5379 -0.3537
   18SAPS    HX 2291   6.611   3.113   2.239 -0.1381  1.0505 -1.8356
   18SAPS    HY 2292   6.448   3.162   2.288 -0.0063 -3.4366  0.5030
   18SAPS   O31 2293   6.569   3.134   2.454  0.4610 -0.2992  0.4181
   18SAPS   C31 2294   6.666   3.053   2.490 -0.3651  0.0061 -0.0787
   18SAPS   O32 2295   6.759   3.015   2.422  0.4800 -0.1382  0.3284
   18SAPS   C32 2296   6.660   3.029   2.644  0.0769 -0.2342 -0.6242
   18SAPS   H2X 2297   6.759   3.062   2.682 -0.2979 -0.7523  0.8680
   18SAPS   H2Y 2298   6.650   2.923   2.673 -1.3207  0.1830  0.5431
   18SAPS   C23 2299   6.996   3.539   2.465  0.7801 -0.5642 -0.4259
   18SAPS   H3R 2300   6.948   3.638   2.475  0.0282 -0.8172 -1.4075
   18SAPS   H3S 2301   7.100   3.572   2.441  0.5916 -1.4989 -2.7900
   18SAPS   C24 2302   7.010   3.476   2.611 -0.0519  0.4644  0.3726
   18SAPS   H4R 2303   7.083   3.532   2.672  0.0095  1.6304 -0.7307
   18SAPS   H4S 2304   7.044   3.370   2.603 -0.7539  0.2086  0.6246
   18SAPS   C25 2305   6.878   3.469   2.682  0.2283  0.1737 -0.2943
   18SAPS   H5R 2306   6.800   3.521   2.625  1.6144  1.4909 -1.0764
   18SAPS   C26 2307   6.859   3.405   2.800  0.1157 -0.8731 -0.2881
   18SAPS   H6R 2308   6.757   3.390   2.838  0.6997 -1.4659  1.1070
   18SAPS   C27 2309   6.972   3.338   2.875 -0.2671  0.5448  0.3937
   18SAPS   H7R 2310   6.970   3.371   2.981  0.0478 -2.0956  1.2855
   18SAPS   H7S 2311   7.072   3.358   2.831 -0.5955 -0.7264 -1.0037
   18SAPS   C28 2312   6.954   3.189   2.860 -0.0405  0.1827  0.4608
   18SAPS   H8R 2313   6.968   3.161   2.755  1.2300  0.6803  0.4804
   18SAPS   C29 2314   6.959   3.085   2.951 -0.0943  0.2608 -0.2518
   18SAPS   H9R 2315   6.923   2.988   2.914  0.1100  0.6448 -1.5285
   18SAPS  C210 2316   6.961   3.095   3.102 -0.3303 -0.6863 -0.4872
   18SAPS  H10R 2317   6.989   3.201   3.122 -1.3010  0.3121 -3.6911
   18SAPS  H10S 2318   7.049   3.033   3.129 -0.1632 -0.4893 -0.5743
   18SAPS  C211 2319   6.840   3.035   3.163  0.5685 -0.3965  0.4952
   18SAPS  H11R 2320   6.755   3.010   3.097 -1.5560 -0.5662  3.1140
   18SAPS  C212 2321   6.808   3.021   3.294 -0.0475  0.0364 -0.8271
   18SAPS  H12R 2322   6.715   2.970   3.324  0.8898 -1.3314 -0.1314
   18SAPS  C213 2323   6.882   3.073   3.411  0.2911 -0.0551  0.2560
   18SAPS  H13R 2324   6.992   3.065   3.392 -0.0431 -1.2688 -1.3742
   18SAPS  H13S 2325   6.858   3.015   3.503  0.0902 -2.3531 -1.1845
   18SAPS  C214 2326   6.838   3.214   3.422 -0.0410 -0.4433 -0.0572
   18SAPS  H14R 2327   6.883   3.283   3.349 -0.6168  0.6149  0.5654
   18SAPS  C215 2328   6.755   3.261   3.519 -1.0013 -0.2952 -0.2387
   18SAPS  H15R 2329   6.729   3.368   3.518 -0.9533 -0.2723  0.3303
   18SAPS  C216 2330   6.696   3.186   3.636  0.2637 -0.3989 -0.3190
   18SAPS  H16R 2331   6.686   3.081   3.601 -0.3275  0.1090 -1.7477
   18SAPS  H16S 2332   6.594   3.220   3.666 -0.1092 -1.0084 -0.8912
   18SAPS  C217 2333   6.794   3.200   3.757  0.7493  0.1894  0.3764
   18SAPS  H17R 2334   6.829   3.304   3.771  0.1472  0.7753 -2.0392
   18SAPS  H17S 2335   6.879   3.136   3.724 -0.9651 -2.5191  0.8333
   18SAPS  C218 2336   6.740   3.160   3.897  0.7984  0.0536 -0.2582
   18SAPS  H18R 2337   6.722   3.051   3.904  0.4893  0.2205  2.7254
   18SAPS  H18S 2338   6.641   3.210   3.905  0.7489 -0.1878  0.7991
   18SAPS  C219 2339   6.843   3.197   4.011 -0.1397  0.3631 -0.7513
   18SAPS  H19R 2340   6.839   3.306   4.031 -1.3859 -0.0259  1.5144
   18SAPS  H19S 2341   6.947   3.181   3.974 -0.7368 -0.7262 -2.0562
   18SAPS  C220 2342   6.807   3.099   4.124 -0.6548 -0.1849 -0.4830
   18SAPS  H20R 2343   6.704   3.105   4.165 -0.8822 -0.8149 -0.9615
   18SAPS  H20S 2344   6.884   3.124   4.201 -1.8275 -0.0088  0.6731
   18SAPS  H20T 2345   6.818   2.995   4.088 -1.7247  0.3062 -2.3875
   18SAPS   C33 2346   6.551   3.100   2.729  0.2205 -0.0369 -0.0054
   18SAPS   H3X 2347   6.453   3.050   2.709  0.7407 -1.2658  0.4148
   18SAPS   H3Y 2348   6.538   3.206   2.696 -1.3834 -0.5336 -1.1255
   18SAPS   C34 2349   6.579   3.105   2.882 -0.3533  0.5322 -0.3316
   18SAPS   H4X 2350   6.680   3.143   2.908 -1.6353  4.6354 -0.6206
   18SAPS   H4Y 2351   6.576   2.999   2.915 -1.3111  1.0747  1.4826
   18SAPS   C35 2352   6.472   3.187   2.950 -0.3374  0.0262  0.1451
   18SAPS   H5X 2353   6.380   3.130   2.924 -0.1614 -0.4694  0.6018
   18SAPS   H5Y 2354   6.473   3.284   2.897 -0.6208  0.6086  1.1892
   18SAPS   C36 2355   6.504   3.194   3.094 -0.4797 -0.2523 -0.6733
   18SAPS   H6X 2356   6.600   3.250   3.097 -1.7842  2.0469  1.2845
   18SAPS   H6Y 2357   6.508   3.095   3.144 -2.6999 -0.0982 -0.1212
   18SAPS   C37 2358   6.403   3.276   3.175  0.4323  0.5337  0.1100
   18SAPS   H7X 2359   6.322   3.201   3.190  0.3281  1.2372  3.8665
   18SAPS   H7Y 2360   6.364   3.365   3.121 -1.5026 -0.3083  0.0412
   18SAPS   C38 2361   6.442   3.315   3.324  0.4048 -0.1011  1.0161
   18SAPS   H8X 2362   6.494   3.413   3.327 -0.3976  0.3371  0.7895
   18SAPS   H8Y 2363   6.504   3.233   3.366 -0.2912 -1.3246 -0.2866
   18SAPS   C39 2364   6.307   3.328   3.406  0.6578 -0.1716 -0.4947
   18SAPS   H9X 2365   6.266   3.229   3.436 -0.6239  1.1671  2.5316
   18SAPS   H9Y 2366   6.228   3.387   3.355 -1.7200 -1.0498  1.9089
   18SAPS  C310 2367   6.323   3.398   3.540 -0.4442  0.7961  0.6922
   18SAPS  H10X 2368   6.366   3.498   3.516 -0.2711  0.0526 -2.5508
   18SAPS  H10Y 2369   6.394   3.340   3.602 -0.5078  0.4673  0.4599
   18SAPS  C311 2370   6.194   3.425   3.619 -0.0680  0.7008  0.1604
   18SAPS  H11X 2371   6.147   3.327   3.642  1.1915  0.4647  1.9414
   18SAPS  H11Y 2372   6.131   3.480   3.546  2.9758  0.5679 -2.8561
   18SAPS  C312 2373   6.222   3.499   3.748 -0.1793  0.2694  0.1522
   18SAPS  H12X 2374   6.263   3.424   3.819 -1.6760 -0.2637  0.4857
   18SAPS  H12Y 2375   6.124   3.529   3.790 -0.4183  0.5006 -0.5661
   18SAPS  C313 2376   6.311   3.624   3.741 -1.0294  0.1088  0.3202
   18SAPS  H13X 2377   6.290   3.694   3.657 -1.8617 -0.4914  0.0071
   18SAPS  H13Y 2378   6.418   3.596   3.748 -1.8170 -2.8680  3.3995
   18SAPS  C314 2379   6.284   3.695   3.874  0.1796  0.1015  0.1395
   18SAPS  H14X 2380   6.278   3.621   3.957 -2.0395  0.4503  0.3402
   18SAPS  H14Y 2381   6.183   3.738   3.865  0.7047  1.3551  0.0305
   18SAPS  C315 2382   6.398   3.796   3.909 -0.0565 -0.4777 -0.2980
   18SAPS  H15X 2383   6.386   3.859   3.819 -1.5718 -2.0723 -1.2859
   18SAPS  H15Y 2384   6.496   3.743   3.904 -0.6198 -1.4790 -1.1734
   18SAPS  C316 2385   6.378   3.880   4.032 -0.4232  0.0136  0.5567
   18SAPS  H16X 2386   6.381   3.817   4.124 -2.3690 -1.2291 -0.1388
   18SAPS  H16Y 2387   6.279   3.930   4.023 -0.6883 -0.6870 -0.7477
   18SAPS  C317 2388   6.479   3.998   4.046 -0.1568  0.0958  1.1999
   18SAPS  H17X 2389   6.421   4.079   4.094  0.6787 -0.0238  2.4605
   18SAPS  H17Y 2390   6.502   4.040   3.946 -2.7390 -0.0414  0.4909
   18SAPS  C318 2391   6.601   3.958   4.128 -0.3382 -0.0428 -0.1041
   18SAPS  H18X 2392   6.587   3.896   4.219  0.9765 -0.3937 -0.1142
   18SAPS  H18Y 2393   6.668   4.044   4.147 -1.1396  0.5355  0.1686
   18SAPS  H18Z 2394   6.657   3.889   4.061  0.1892  1.9529 -1.8367
   19SAPS     N 2395   2.669   1.050   1.724 -0.2179  0.8676 -0.4791
   19SAPS   HN1 2396   2.654   1.052   1.827  0.3698  2.0122 -0.3919
   19SAPS   HN2 2397   2.772   1.051   1.705  0.0907 -0.3727  0.9516
   19SAPS   HN3 2398   2.632   1.138   1.684  0.3707  1.3462 -0.0013
   19SAPS   C12 2399   2.607   0.934   1.641 -0.0940  0.1594  0.7645
   19SAPS  H12A 2400   2.504   0.917   1.669  0.0803  1.2631  2.2282
   19SAPS   C13 2401   2.598   0.972   1.489  0.1751 -0.3154 -0.3825
   19SAPS  O13A 2402   2.685   1.057   1.451  0.5529  0.3220  0.0731
   19SAPS  O13B 2403   2.520   0.905   1.420  0.7343  0.9149  0.0360
   19SAPS   C11 2404   2.683   0.797   1.659  0.0987 -0.0398 -0.7463
   19SAPS  H11A 2405   2.645   0.718   1.591  0.8536  1.4175 -2.9864
   19SAPS  H11B 2406   2.676   0.765   1.766 -2.0748 -1.6155 -1.2900
   19SAPS     P 2407   2.929   0.727   1.683  0.0627  0.1218  0.6598
   19SAPS   O13 2408   2.892   0.585   1.655 -0.0817 -0.2973  0.1096
   19SAPS   O14 2409   3.057   0.776   1.633 -0.4464  0.1755  0.0311
   19SAPS   O12 2410   2.813   0.827   1.630 -0.9508 -0.3419  0.8590
   19SAPS   O11 2411   2.933   0.738   1.840  0.0556 -0.1338 -0.2337
   19SAPS    C1 2412   3.053   0.791   1.906  0.4210 -0.5660 -0.1596
   19SAPS    HA 2413   3.093   0.876   1.847  1.5662  0.0775  1.4452
   19SAPS    HB 2414   3.031   0.830   2.008  4.1147  0.0623  0.5261
   19SAPS    C2 2415   3.163   0.688   1.916 -0.2559 -0.8323 -0.1011
   19SAPS    HS 2416   3.198   0.651   1.818  3.3686 -0.1814  0.8093
   19SAPS   O21 2417   3.122   0.580   2.000  0.0710 -0.0733 -0.5358
   19SAPS   C21 2418   3.186   0.465   1.982  0.8087 -0.4284  0.0341
   19SAPS   O22 2419   3.291   0.449   1.925 -0.8391 -0.5256 -0.0564
   19SAPS   C22 2420   3.103   0.354   2.041 -0.3971 -0.4100 -0.2921
   19SAPS   H2R 2421   3.001   0.397   2.049 -1.0416 -1.9012 -0.0635
   19SAPS   H2S 2422   3.098   0.274   1.964  0.9624  1.4155 -2.4070
   19SAPS    C3 2423   3.291   0.769   1.967 -0.0434 -0.0441  0.4070
   19SAPS    HX 2424   3.332   0.832   1.885  1.9632 -3.2149 -1.2215
   19SAPS    HY 2425   3.371   0.695   1.990  0.8514  1.0559  0.8951
   19SAPS   O31 2426   3.270   0.850   2.087  0.0592  0.5537 -0.0005
   19SAPS   C31 2427   3.314   0.786   2.201  0.0486  0.1131 -0.2763
   19SAPS   O32 2428   3.337   0.667   2.206 -0.1269 -0.3026 -0.2195
   19SAPS   C32 2429   3.295   0.876   2.311 -0.2775 -0.2118 -0.2898
   19SAPS   H2X 2430   3.195   0.922   2.297 -0.0101  0.3928 -0.2011
   19SAPS   H2Y 2431   3.368   0.959   2.318 -0.0794 -0.3843 -0.3115
   19SAPS   C23 2432   3.156   0.307   2.178 -0.2728 -0.3865 -0.3367
   19SAPS   H3R 2433   3.266   0.292   2.185 -0.1351  0.9272  0.6841
   19SAPS   H3S 2434   3.122   0.209   2.216 -1.1039  1.0920  3.0576
   19SAPS   C24 2435   3.116   0.406   2.291  0.1712 -0.0892  0.5401
   19SAPS   H4R 2436   3.012   0.373   2.316 -1.5177  2.9328 -1.7949
   19SAPS   H4S 2437   3.113   0.505   2.242 -0.2690 -0.9753 -1.2973
   19SAPS   C25 2438   3.220   0.406   2.408  0.5074  0.5812  0.3070
   19SAPS   H5R 2439   3.318   0.448   2.383  0.7188 -0.7262 -1.2119
   19SAPS   C26 2440   3.203   0.351   2.527 -0.2469 -0.2866 -0.0981
   19SAPS   H6R 2441   3.286   0.370   2.598 -0.4054 -1.0695  0.3082
   19SAPS   C27 2442   3.084   0.288   2.591  0.0670 -0.0578  0.4607
   19SAPS   H7R 2443   3.117   0.211   2.665  1.4312  0.3736  0.3338
   19SAPS   H7S 2444   3.039   0.238   2.503 -1.3086  0.1802  1.0135
   19SAPS   C28 2445   2.983   0.369   2.660 -0.5612  0.3725  0.9254
   19SAPS   H8R 2446   2.933   0.439   2.591 -0.1815  0.9819  1.2640
   19SAPS   C29 2447   2.962   0.376   2.793 -0.2041  0.8589 -0.0255
   19SAPS   H9R 2448   2.892   0.450   2.834  0.7516  1.9744 -0.3593
   19SAPS  C210 2449   3.035   0.290   2.896 -0.1610 -0.4639  0.2696
   19SAPS  H10R 2450   3.138   0.329   2.912 -1.2325  2.7664 -0.0335
   19SAPS  H10S 2451   3.052   0.191   2.847  3.2294  0.7640 -1.3743
   19SAPS  C211 2452   2.970   0.259   3.028 -0.4140 -0.2798  0.1259
   19SAPS  H11R 2453   2.948   0.152   3.038  0.6938 -0.6312 -0.9147
   19SAPS  C212 2454   2.971   0.347   3.133  0.2177 -0.6155 -0.7103
   19SAPS  H12R 2455   2.921   0.327   3.228  2.2495 -2.2213  0.1035
   19SAPS  C213 2456   3.040   0.485   3.123  0.4156  0.8766  0.1515
   19SAPS  H13R 2457   3.036   0.524   3.019  1.4822  1.6345  0.3806
   19SAPS  H13S 2458   3.145   0.454   3.136  0.3887 -0.8261 -2.8191
   19SAPS  C214 2459   3.007   0.593   3.219 -0.0187 -0.3187 -0.3998
   19SAPS  H14R 2460   3.091   0.611   3.287 -1.2056 -1.1529  1.3919
   19SAPS  C215 2461   2.898   0.679   3.214 -0.5061 -0.0654 -0.6485
   19SAPS  H15R 2462   2.887   0.752   3.295 -0.8243  1.0896 -1.7148
   19SAPS  C216 2463   2.790   0.673   3.113  0.0048  0.5572  0.0307
   19SAPS  H16R 2464   2.823   0.627   3.018 -0.1371 -1.9391  1.1196
   19SAPS  H16S 2465   2.747   0.773   3.092  0.2314  0.6188 -0.1430
   19SAPS  C217 2466   2.678   0.574   3.163 -0.3509  0.3590 -0.8515
   19SAPS  H17R 2467   2.617   0.625   3.240 -1.3834  0.0160 -1.4335
   19SAPS  H17S 2468   2.720   0.495   3.228 -0.3806  0.7936 -0.2952
   19SAPS  C218 2469   2.577   0.520   3.060  0.3141  0.0855 -0.3592
   19SAPS  H18R 2470   2.512   0.453   3.121  2.2870  0.7200  2.6611
   19SAPS  H18S 2471   2.631   0.445   2.998 -1.5472 -2.4721  0.9312
   19SAPS  C219 2472   2.503   0.635   2.997  0.3672  0.3673  0.2363
   19SAPS  H19R 2473   2.582   0.690   2.941  3.3150 -4.0619 -0.5548
   19SAPS  H19S 2474   2.464   0.697   3.080 -0.2827 -0.5029  0.5979
   19SAPS  C220 2475   2.394   0.594   2.897  0.5920 -0.0635  0.1646
   19SAPS  H20R 2476   2.369   0.687   2.842 -2.3439 -1.3121 -0.8348
   19SAPS  H20S 2477   2.302   0.551   2.941 -1.3425  2.2086 -1.4105
   19SAPS  H20T 2478   2.440   0.523   2.824 -0.0141  1.0693 -1.3867
   19SAPS   C33 2479   3.294   0.805   2.448 -0.0550  0.1910 -0.2933
   19SAPS   H3X 2480   3.223   0.719   2.442 -1.2671  1.2434 -1.5422
   19SAPS   H3Y 2481   3.266   0.866   2.537  2.0065 -1.9626  2.0095
   19SAPS   C34 2482   3.426   0.748   2.498  0.7275 -0.2830  0.8597
   19SAPS   H4X 2483   3.502   0.828   2.490 -1.1039  1.4147 -0.5439
   19SAPS   H4Y 2484   3.451   0.669   2.424 -0.9670 -0.2293  0.2000
   19SAPS   C35 2485   3.422   0.685   2.636 -0.1359  0.1699 -0.8316
   19SAPS   H5X 2486   3.334   0.619   2.651 -1.3137  1.6868 -0.8001
   19SAPS   H5Y 2487   3.409   0.768   2.708  0.4619  0.5041 -1.0974
   19SAPS   C36 2488   3.554   0.626   2.674 -0.2594  0.0149  0.3835
   19SAPS   H6X 2489   3.637   0.676   2.619 -1.2582  2.5525  1.0381
   19SAPS   H6Y 2490   3.558   0.517   2.651 -0.6143  0.0119  0.3384
   19SAPS   C37 2491   3.585   0.639   2.826 -0.1671  0.2211 -0.0768
   19SAPS   H7X 2492   3.571   0.744   2.861 -0.9981  0.4376 -1.0157
   19SAPS   H7Y 2493   3.691   0.616   2.852 -0.7181 -0.9522  1.2194
   19SAPS   C38 2494   3.486   0.544   2.900 -0.2987 -0.2563 -0.2857
   19SAPS   H8X 2495   3.492   0.443   2.853 -0.5619  0.2872 -1.5309
   19SAPS   H8Y 2496   3.384   0.579   2.874  0.6344  1.8333 -1.3638
   19SAPS   C39 2497   3.497   0.532   3.049  0.5312  0.6970 -0.0970
   19SAPS   H9X 2498   3.605   0.538   3.075  0.0416 -0.5685  2.5690
   19SAPS   H9Y 2499   3.452   0.443   3.098 -1.1812  0.6930 -1.5550
   19SAPS  C310 2500   3.434   0.649   3.131 -0.1182 -0.6069  0.4753
   19SAPS  H10X 2501   3.325   0.628   3.121 -0.7829  2.3147  0.6574
   19SAPS  H10Y 2502   3.456   0.750   3.091  2.7548 -1.2941  0.1319
   19SAPS  C311 2503   3.469   0.637   3.279 -1.0223 -0.7586 -0.3488
   19SAPS  H11X 2504   3.576   0.659   3.300 -0.5655 -1.7529 -1.5288
   19SAPS  H11Y 2505   3.437   0.543   3.329 -1.5384  0.5377  1.8934
   19SAPS  C312 2506   3.400   0.745   3.370  0.5699 -0.1987  0.3901
   19SAPS  H12X 2507   3.298   0.754   3.325  0.3503  0.5403  1.0055
   19SAPS  H12Y 2508   3.448   0.845   3.362 -0.7201  0.4019 -0.1746
   19SAPS  C313 2509   3.370   0.699   3.511 -1.3599 -0.1276 -0.2528
   19SAPS  H13X 2510   3.468   0.678   3.559 -0.2311 -3.1686 -3.4122
   19SAPS  H13Y 2511   3.318   0.601   3.508 -4.6231  1.4474  0.6389
   19SAPS  C314 2512   3.273   0.792   3.579 -0.2961 -0.1966  0.1155
   19SAPS  H14X 2513   3.177   0.786   3.523 -0.3764  0.0252  0.2285
   19SAPS  H14Y 2514   3.311   0.896   3.593 -0.9981  0.3628 -1.8251
   19SAPS  C315 2515   3.245   0.739   3.726 -0.3365 -0.1985 -0.0254
   19SAPS  H15X 2516   3.325   0.774   3.793 -1.7499  0.1358  1.5482
   19SAPS  H15Y 2517   3.250   0.628   3.724  0.2128 -0.1744  0.0189
   19SAPS  C316 2518   3.102   0.775   3.781  0.7644  0.0406 -0.5685
   19SAPS  H16X 2519   3.031   0.748   3.700 -0.0125 -0.3092  0.2158
   19SAPS  H16Y 2520   3.103   0.885   3.796  1.6887  0.2439 -1.8782
   19SAPS  C317 2521   3.062   0.691   3.911  0.1019 -0.4376  0.2724
   19SAPS  H17X 2522   3.146   0.697   3.984  0.3131  1.4056 -0.0754
   19SAPS  H17Y 2523   3.042   0.587   3.878 -1.9590  0.2398 -0.7911
   19SAPS  C318 2524   2.943   0.745   3.988  0.7366 -0.2545 -0.3122
   19SAPS  H18X 2525   2.864   0.765   3.913  1.4718 -0.8289 -1.2596
   19SAPS  H18Y 2526   2.964   0.836   4.049 -1.6788 -1.1286  2.0623
   19SAPS  H18Z 2527   2.910   0.672   4.066  2.3817  1.2412  1.9135
   20SAPS     N 2528   4.572   0.876   1.429  0.0882  0.3794 -0.1386
   20SAPS   HN1 2529   4.560   0.867   1.326 -1.0139  0.5596 -0.0354
   20SAPS   HN2 2530   4.669   0.905   1.454  0.1810 -0.2459  0.2297
   20SAPS   HN3 2531   4.551   0.785   1.474 -0.3673  0.4153 -0.2702
   20SAPS   C12 2532   4.467   0.975   1.482  0.2956 -0.1468 -0.2658
   20SAPS  H12A 2533   4.519   1.055   1.532 -2.0873  0.0202  2.2015
   20SAPS   C13 2534   4.378   1.033   1.367  0.4898 -0.4809 -0.7844
   20SAPS  O13A 2535   4.407   1.003   1.254 -0.0348 -0.3657  0.1905
   20SAPS  O13B 2536   4.277   1.107   1.388 -0.8993  0.0254  0.0258
   20SAPS   C11 2537   4.367   0.901   1.580 -0.8307 -0.2682 -0.4649
   20SAPS  H11A 2538   4.310   0.823   1.526  0.7628 -1.6418 -0.2732
   20SAPS  H11B 2539   4.299   0.982   1.612  0.6141 -0.3169  3.2229
   20SAPS     P 2540   4.465   0.702   1.739  0.0153  0.2560 -0.1204
   20SAPS   O13 2541   4.488   0.634   1.611  0.1227 -0.4334  0.0839
   20SAPS   O14 2542   4.580   0.691   1.832  0.0697  0.2835 -0.4234
   20SAPS   O12 2543   4.432   0.853   1.701  0.0299  0.4189 -0.2808
   20SAPS   O11 2544   4.337   0.654   1.809  0.0038 -0.0105  0.2967
   20SAPS    C1 2545   4.210   0.722   1.802 -0.6032  0.5139  0.1019
   20SAPS    HA 2546   4.211   0.833   1.805 -1.2425  0.5096  0.8701
   20SAPS    HB 2547   4.158   0.694   1.707  0.1054 -2.3700  0.4548
   20SAPS    C2 2548   4.123   0.669   1.913 -0.1255 -0.0736 -0.2885
   20SAPS    HS 2549   4.053   0.751   1.939  0.7815  1.5635 -2.6446
   20SAPS   O21 2550   4.196   0.629   2.032 -0.0659  0.5386 -0.1251
   20SAPS   C21 2551   4.239   0.733   2.104 -0.0112 -0.5437 -0.3941
   20SAPS   O22 2552   4.211   0.850   2.080  0.0226 -0.3953  0.1515
   20SAPS   C22 2553   4.327   0.692   2.214  0.0779 -0.2255 -0.2227
   20SAPS   H2R 2554   4.419   0.641   2.179 -0.9781 -1.7380 -0.9024
   20SAPS   H2S 2555   4.353   0.779   2.278 -3.1281  1.0539 -0.4542
   20SAPS    C3 2556   4.046   0.535   1.854 -0.6815 -0.1424  0.4089
   20SAPS    HX 2557   4.126   0.461   1.830 -0.6971 -0.6821  1.8695
   20SAPS    HY 2558   3.999   0.567   1.759  1.6375  0.4837 -0.5934
   20SAPS   O31 2559   3.954   0.478   1.949  0.3418 -0.5143  0.0263
   20SAPS   C31 2560   3.859   0.550   2.004  0.1947  0.3892 -0.0669
   20SAPS   O32 2561   3.829   0.661   1.979  0.2424 -0.5577  0.2053
   20SAPS   C32 2562   3.786   0.468   2.109  0.5168 -0.3934 -0.1148
   20SAPS   H2X 2563   3.837   0.372   2.135 -0.9320 -1.2917 -0.4758
   20SAPS   H2Y 2564   3.688   0.446   2.062 -0.6524  2.3569  0.8308
   20SAPS   C23 2565   4.250   0.601   2.309 -0.2571 -0.7451  0.4467
   20SAPS   H3R 2566   4.146   0.639   2.318 -0.6778 -1.7872  0.1195
   20SAPS   H3S 2567   4.295   0.603   2.411  0.6363  0.4582  0.0657
   20SAPS   C24 2568   4.239   0.453   2.273  0.0822 -0.1859  0.0054
   20SAPS   H4R 2569   4.200   0.431   2.172 -0.3352 -0.8442  0.3021
   20SAPS   H4S 2570   4.165   0.412   2.346  1.2534 -0.3307  1.1608
   20SAPS   C25 2571   4.370   0.388   2.286 -0.3007 -0.2330 -0.2404
   20SAPS   H5R 2572   4.426   0.405   2.192  1.6849 -0.6269  0.8180
   20SAPS   C26 2573   4.419   0.319   2.388  0.1393 -0.3582 -0.3840
   20SAPS   H6R 2574   4.516   0.267   2.384  0.3910 -0.1544  2.0109
   20SAPS   C27 2575   4.338   0.289   2.512  0.3277  0.2953 -0.5701
   20SAPS   H7R 2576   4.234   0.263   2.483 -0.2681  1.1231  0.7398
   20SAPS   H7S 2577   4.320   0.385   2.564 -1.6143 -0.1458 -0.3569
   20SAPS   C28 2578   4.381   0.190   2.612 -0.4227  0.0179 -0.0675
   20SAPS   H8R 2579   4.359   0.091   2.569  2.7064 -0.3175 -1.1445
   20SAPS   C29 2580   4.447   0.203   2.734 -0.1328 -0.0012  0.9061
   20SAPS   H9R 2581   4.489   0.117   2.787  0.7929 -0.7217 -0.9004
   20SAPS  C210 2582   4.484   0.335   2.787  0.0325 -0.0068  0.2608
   20SAPS  H10R 2583   4.460   0.332   2.895 -3.3932  1.1228 -0.3268
   20SAPS  H10S 2584   4.420   0.414   2.741  1.9767  1.5716  0.1150
   20SAPS  C211 2585   4.630   0.378   2.754 -0.3029  0.2312 -0.2347
   20SAPS  H11R 2586   4.640   0.407   2.649  0.0823 -1.0368 -0.5549
   20SAPS  C212 2587   4.735   0.374   2.842  0.1382 -0.2602 -0.1458
   20SAPS  H12R 2588   4.826   0.428   2.813 -0.0103  1.2297  1.9589
   20SAPS  C213 2589   4.721   0.336   2.992  0.7899 -0.1095  0.0084
   20SAPS  H13R 2590   4.668   0.425   3.032 -0.0556 -0.2081 -0.8463
   20SAPS  H13S 2591   4.820   0.352   3.040  1.0309 -0.2851 -0.4223
   20SAPS  C214 2592   4.672   0.199   3.024  0.0052 -0.7186  0.3552
   20SAPS  H14R 2593   4.711   0.114   2.966 -1.5350 -1.0309 -0.2790
   20SAPS  C215 2594   4.583   0.172   3.121 -0.8443  0.1146  0.8260
   20SAPS  H15R 2595   4.570   0.063   3.134  2.8698 -0.6178 -0.4983
   20SAPS  C216 2596   4.510   0.246   3.226  0.5568  0.1055 -0.1730
   20SAPS  H16R 2597   4.413   0.270   3.179  0.9158  4.9690  1.0295
   20SAPS  H16S 2598   4.543   0.348   3.256  0.4304  0.2110 -0.3923
   20SAPS  C217 2599   4.481   0.154   3.349  0.7160 -0.2960  0.4278
   20SAPS  H17R 2600   4.423   0.063   3.320  1.3308 -1.1242  1.6932
   20SAPS  H17S 2601   4.422   0.211   3.424  1.6496  0.3565  0.6877
   20SAPS  C218 2602   4.606   0.119   3.427  0.1319 -0.1578  0.2283
   20SAPS  H18R 2603   4.662   0.215   3.424 -1.6654  0.9359  0.8128
   20SAPS  H18S 2604   4.666   0.038   3.378 -0.1896 -0.3787  0.1995
   20SAPS  C219 2605   4.585   0.067   3.570 -0.5748  0.2548 -0.0488
   20SAPS  H19R 2606   4.516  -0.018   3.555  0.3566 -0.0826 -3.2640
   20SAPS  H19S 2607   4.533   0.144   3.631  0.9909  2.0017 -0.7840
   20SAPS  C220 2608   4.713   0.026   3.645 -0.8989 -0.5609 -0.0602
   20SAPS  H20R 2609   4.781  -0.045   3.594 -0.1178  0.9802 -1.2370
   20SAPS  H20S 2610   4.686  -0.021   3.742 -1.6173 -2.5597 -1.1658
   20SAPS  H20T 2611   4.780   0.112   3.667 -2.0732  0.3139  0.1658
   20SAPS   C33 2612   3.763   0.557   2.238 -0.2069  0.2237  0.0734
   20SAPS   H3X 2613   3.687   0.634   2.213  1.2195  1.2850 -1.2495
   20SAPS   H3Y 2614   3.857   0.605   2.273 -2.5052  3.3832  2.5270
   20SAPS   C34 2615   3.729   0.469   2.359  0.9951  0.0266 -0.3093
   20SAPS   H4X 2616   3.653   0.394   2.327 -0.0266  0.9090  0.0009
   20SAPS   H4Y 2617   3.675   0.539   2.427  0.3639  1.2196 -1.9791
   20SAPS   C35 2618   3.846   0.405   2.429 -0.4021 -0.1091 -0.8825
   20SAPS   H5X 2619   3.939   0.452   2.392  1.3269 -2.5349  0.1616
   20SAPS   H5Y 2620   3.854   0.299   2.397 -1.3687 -0.3894 -0.2580
   20SAPS   C36 2621   3.840   0.421   2.582  0.5346 -0.0804  0.3996
   20SAPS   H6X 2622   3.748   0.368   2.617 -0.8485  0.9972 -1.4119
   20SAPS   H6Y 2623   3.822   0.527   2.606 -2.7954 -0.6687  1.0070
   20SAPS   C37 2624   3.963   0.364   2.655 -0.8467 -0.6682 -1.3678
   20SAPS   H7X 2625   4.026   0.454   2.673  0.2791 -1.8220  0.8485
   20SAPS   H7Y 2626   4.021   0.289   2.598 -1.7970  0.0142 -3.3220
   20SAPS   C38 2627   3.929   0.313   2.795 -0.7557 -0.8160  0.6519
   20SAPS   H8X 2628   3.853   0.232   2.799 -1.8207  0.1174 -0.2052
   20SAPS   H8Y 2629   3.868   0.392   2.844  0.3582 -0.8535  2.1883
   20SAPS   C39 2630   4.054   0.255   2.873 -0.2452 -0.2356 -0.4451
   20SAPS   H9X 2631   4.135   0.330   2.885 -0.3070  0.0756 -1.8133
   20SAPS   H9Y 2632   4.098   0.183   2.801 -2.0958 -1.0088 -0.8654
   20SAPS  C310 2633   4.011   0.184   2.999 -0.4740 -0.0579  0.4453
   20SAPS  H10X 2634   3.943   0.100   2.971  0.5946 -1.0529  0.7445
   20SAPS  H10Y 2635   3.955   0.259   3.060 -1.7218 -0.7261  0.1718
   20SAPS  C311 2636   4.112   0.138   3.102 -0.5453 -0.0120  0.1330
   20SAPS  H11X 2637   4.170   0.222   3.147 -0.4616 -0.9165  1.8020
   20SAPS  H11Y 2638   4.186   0.062   3.070  0.6822  0.9036  0.6841
   20SAPS  C312 2639   4.039   0.076   3.226  0.2211 -0.2619 -0.2319
   20SAPS  H12X 2640   3.982  -0.017   3.203 -0.4967  0.1121  0.0065
   20SAPS  H12Y 2641   3.971   0.147   3.277  1.0740 -1.0812  2.1789
   20SAPS  C313 2642   4.141   0.036   3.337  0.1171 -0.4320 -0.2297
   20SAPS  H13X 2643   4.183   0.129   3.380 -0.0799 -0.3541 -0.2064
   20SAPS  H13Y 2644   4.223  -0.020   3.286 -1.1165 -2.4105 -0.1439
   20SAPS  C314 2645   4.069  -0.047   3.446 -0.5145  0.3422  0.2842
   20SAPS  H14X 2646   4.004  -0.128   3.406  3.4584 -2.7004 -0.6558
   20SAPS  H14Y 2647   3.993   0.016   3.496  0.5875  0.8748  1.3429
   20SAPS  C315 2648   4.166  -0.091   3.561  0.2229  0.0729 -0.0002
   20SAPS  H15X 2649   4.230  -0.007   3.594  2.0819 -0.5782 -1.7188
   20SAPS  H15Y 2650   4.234  -0.169   3.520 -1.6750 -1.3405 -0.6014
   20SAPS  C316 2651   4.100  -0.161   3.678  0.0528  0.2703  0.2154
   20SAPS  H16X 2652   4.181  -0.200   3.743 -0.0699 -0.8510 -0.2823
   20SAPS  H16Y 2653   4.059  -0.260   3.649  1.1162 -0.1366  0.0404
   20SAPS  C317 2654   4.001  -0.082   3.760 -0.1517  0.2725  0.0089
   20SAPS  H17X 2655   3.921  -0.050   3.689  1.5774  1.9779 -1.2872
   20SAPS  H17Y 2656   4.057   0.013   3.777 -0.9322  0.6702  0.4031
   20SAPS  C318 2657   3.949  -0.163   3.873  0.8840  0.1250 -0.9333
   20SAPS  H18X 2658   3.887  -0.246   3.832 -0.3275  0.6217 -0.1729
   20SAPS  H18Y 2659   3.885  -0.105   3.943 -0.6160 -2.2401 -0.2500
   20SAPS  H18Z 2660   4.036  -0.204   3.928  1.7657  0.7731 -1.8115
   21CHL1    C3 2661   2.860   3.954   5.669  0.0365 -0.0414  0.1789
   21CHL1    H3 2662   2.897   3.849   5.661  1.5281  0.3961  0.9839
   21CHL1    O3 2663   2.824   3.987   5.802 -0.4741  0.3355  0.3092
   21CHL1   H3' 2664   2.897   3.956   5.855 -3.0424 -2.2193  2.7073
   21CHL1    C4 2665   2.976   4.037   5.616 -0.3932  0.8903  0.2824
   21CHL1   H4A 2666   2.955   4.144   5.639  2.3104  1.8834 -1.3174
   21CHL1   H4B 2667   3.070   4.009   5.667 -0.5133  0.5147  0.3028
   21CHL1    C5 2668   3.001   4.025   5.462 -0.1741  0.3056 -0.0117
   21CHL1    C6 2669   3.113   3.976   5.408 -0.7085 -0.2926 -0.0740
   21CHL1    H6 2670   3.200   3.966   5.475 -2.2782 -0.0435  2.1052
   21CHL1    C7 2671   3.132   3.952   5.262  0.0008  0.1567  0.1692
   21CHL1   H7A 2672   3.232   3.989   5.233 -0.4553 -1.3521 -4.0635
   21CHL1   H7B 2673   3.125   3.846   5.230 -0.8598  0.3271 -0.2519
   21CHL1    C8 2674   3.039   4.043   5.181 -0.2268 -0.3242 -0.1047
   21CHL1    H8 2675   3.060   4.150   5.202 -3.6071  0.4413 -0.1890
   21CHL1   C14 2676   3.057   4.017   5.034 -0.3048  0.3108 -0.4746
   21CHL1   H14 2677   3.028   3.913   5.010 -0.2921  0.2864 -0.3868
   21CHL1   C15 2678   3.200   4.033   4.975  0.2596  0.0356  0.1853
   21CHL1  H15A 2679   3.258   4.121   5.009  0.5743 -0.5699  1.2600
   21CHL1  H15B 2680   3.263   3.946   5.005  0.3969 -0.7418 -2.1346
   21CHL1   C16 2681   3.169   4.035   4.819  0.0754  0.3332  0.6726
   21CHL1  H16A 2682   3.218   4.124   4.774  0.7741  0.4155  1.5596
   21CHL1  H16B 2683   3.210   3.952   4.758 -1.9947  0.8248 -1.5234
   21CHL1   C17 2684   3.015   4.030   4.801  0.0191  0.1251  0.1434
   21CHL1   H17 2685   2.981   3.925   4.796  1.6879 -0.4798  0.8045
   21CHL1   C13 2686   2.962   4.089   4.936 -0.6733  0.0383  0.2520
   21CHL1   C18 2687   2.994   4.240   4.938 -0.1335  0.0766 -0.1754
   21CHL1  H18A 2688   2.933   4.300   4.867 -0.9982  0.2443  0.7024
   21CHL1  H18B 2689   2.990   4.285   5.039  0.5341 -0.1201 -0.0582
   21CHL1  H18C 2690   3.097   4.263   4.902  0.1458 -2.4107 -1.1605
   21CHL1   C12 2691   2.819   4.049   4.974 -0.2271 -0.0606  0.2970
   21CHL1  H12A 2692   2.751   4.119   4.923  1.1929  0.8532 -0.3929
   21CHL1  H12B 2693   2.806   3.940   4.958  0.6293 -0.3571  1.4373
   21CHL1   C11 2694   2.799   4.079   5.127 -0.1157  0.5332  0.0444
   21CHL1  H11A 2695   2.822   4.187   5.130  0.4772  0.4352 -0.7624
   21CHL1  H11B 2696   2.692   4.059   5.150 -0.6528 -0.2693 -2.7445
   21CHL1    C9 2697   2.896   4.020   5.225  0.4910 -0.1825 -0.0612
   21CHL1    H9 2698   2.872   3.911   5.219 -2.6649  0.5031 -2.2733
   21CHL1   C10 2699   2.874   4.056   5.379  1.2263 -0.5128  0.3087
   21CHL1   C19 2700   2.830   4.213   5.400 -0.1336  0.6324  0.3565
   21CHL1  H19A 2701   2.807   4.233   5.507  1.0056  2.6534  0.2744
   21CHL1  H19B 2702   2.914   4.275   5.364 -0.3572  0.9902  0.4385
   21CHL1  H19C 2703   2.741   4.250   5.345  0.0984  0.6249 -0.0252
   21CHL1    C1 2704   2.752   3.979   5.431  0.0650 -0.3451 -0.0694
   21CHL1   H1A 2705   2.656   4.013   5.387  0.2457  0.8794  0.4421
   21CHL1   H1B 2706   2.765   3.873   5.399  2.0607  0.9365 -4.2009
   21CHL1    C2 2707   2.735   3.977   5.581  0.0865  0.2538 -0.5002
   21CHL1   H2A 2708   2.657   3.903   5.607 -1.2375  1.7392 -0.1272
   21CHL1   H2B 2709   2.688   4.076   5.591  1.3917  0.9448 -0.9263
   21CHL1   C20 2710   2.965   4.081   4.661  0.6012  0.9276 -0.6418
   21CHL1   H20 2711   2.993   4.189   4.663 -0.6936  1.3140  2.9665
   21CHL1   C21 2712   2.815   4.060   4.651 -0.0226 -0.3371  0.5792
   21CHL1  H21A 2713   2.771   4.135   4.720  0.3940 -0.4424  0.9628
   21CHL1  H21B 2714   2.771   3.962   4.680  1.4262 -1.0413  0.5110
   21CHL1  H21C 2715   2.777   4.083   4.549  1.6768 -0.0742 -0.0297
   21CHL1   C22 2716   3.045   4.010   4.552 -0.3987 -0.2053  0.2237
   21CHL1  H22A 2717   3.150   4.044   4.564  0.2667 -1.4087 -1.5903
   21CHL1  H22B 2718   3.040   3.899   4.560 -0.4643 -0.2120  0.0875
   21CHL1   C23 2719   2.998   4.046   4.412 -0.7013  0.2019  0.0230
   21CHL1  H23A 2720   2.892   4.013   4.406 -1.0058  0.9812  0.7840
   21CHL1  H23B 2721   3.002   4.156   4.399  2.5307  0.6169  2.9708
   21CHL1   C24 2722   3.089   3.970   4.319  0.3509  0.0539 -0.2556
   21CHL1  H24A 2723   3.196   3.967   4.352  0.0988 -4.8950  0.8894
   21CHL1  H24B 2724   3.062   3.864   4.334  1.3294 -0.0419  1.0893
   21CHL1   C25 2725   3.087   4.017   4.182  0.5786 -0.7151  0.2398
   21CHL1   H25 2726   2.981   4.027   4.151 -0.4906  3.9986  4.1468
   21CHL1   C26 2727   3.158   4.156   4.171  0.3440 -0.6969 -0.6936
   21CHL1  H26A 2728   3.264   4.153   4.206 -0.0502 -2.2935  0.4948
   21CHL1  H26B 2729   3.155   4.191   4.066  1.3756 -2.4372 -1.3391
   21CHL1  H26C 2730   3.101   4.230   4.232  1.3092  0.6186 -1.3447
   21CHL1   C27 2731   3.156   3.920   4.084  0.3664  1.0537  0.0493
   21CHL1  H27A 2732   3.161   3.962   3.981  1.5146  2.0922  0.5064
   21CHL1  H27B 2733   3.262   3.904   4.113  1.0259  1.7030 -1.8695
   21CHL1  H27C 2734   3.111   3.818   4.087 -2.6368  2.3038  1.4678
   22CHL1    C3 2735   2.826   3.409   5.680  0.1217 -0.7355  0.8360
   22CHL1    H3 2736   2.756   3.333   5.640 -1.6361  2.6865 -3.5465
   22CHL1    O3 2737   2.814   3.414   5.818  0.0931  0.0518 -0.3497
   22CHL1   H3' 2738   2.743   3.476   5.839 -0.0907 -0.3677  0.2859
   22CHL1    C4 2739   2.969   3.385   5.630  0.4385  0.5643 -0.5206
   22CHL1   H4A 2740   3.048   3.442   5.684 -0.6014 -0.1564  1.8784
   22CHL1   H4B 2741   2.989   3.285   5.674 -1.9939 -0.5711 -1.7914
   22CHL1    C5 2742   2.978   3.387   5.481  0.4222 -0.3505 -0.6915
   22CHL1    C6 2743   3.026   3.280   5.414 -0.1305 -0.6386  0.0253
   22CHL1    H6 2744   3.073   3.202   5.476 -2.2797 -1.4021  0.7975
   22CHL1    C7 2745   3.047   3.281   5.270  0.0604  0.3064  0.3314
   22CHL1   H7A 2746   3.156   3.270   5.251 -0.3466 -1.2775 -1.3711
   22CHL1   H7B 2747   2.989   3.202   5.218  0.5254  0.7267 -0.8506
   22CHL1    C8 2748   3.011   3.417   5.200 -1.2489 -0.6421  0.3049
   22CHL1    H8 2749   3.096   3.488   5.198 -0.3868 -1.5275 -3.7722
   22CHL1   C14 2750   2.977   3.389   5.049 -0.5269  0.3757 -0.4443
   22CHL1   H14 2751   2.884   3.329   5.056  0.0151 -0.5268 -0.8185
   22CHL1   C15 2752   3.078   3.308   4.967 -0.6223  0.9125  0.6019
   22CHL1  H15A 2753   3.179   3.346   4.992 -0.8756  0.7565  1.9139
   22CHL1  H15B 2754   3.094   3.198   4.964  0.6767  1.0997 -1.2350
   22CHL1   C16 2755   3.038   3.349   4.823 -0.3808 -0.4801 -0.1325
   22CHL1  H16A 2756   3.127   3.400   4.782 -2.0159  1.5008 -1.4535
   22CHL1  H16B 2757   3.010   3.264   4.757 -0.6474  0.3546 -1.1099
   22CHL1   C17 2758   2.928   3.453   4.832 -0.9361 -0.3682 -0.4228
   22CHL1   H17 2759   2.838   3.388   4.831  0.2007 -2.0103 -1.2027
   22CHL1   C13 2760   2.940   3.511   4.972 -0.5207 -0.4012 -0.7979
   22CHL1   C18 2761   3.055   3.612   4.974  0.1539  0.9338  0.1202
   22CHL1  H18A 2762   3.032   3.701   4.911 -1.3258  0.4211 -0.0941
   22CHL1  H18B 2763   3.070   3.641   5.080  1.5822  0.8703 -0.0369
   22CHL1  H18C 2764   3.151   3.565   4.942 -0.6926 -0.2073 -0.8549
   22CHL1   C12 2765   2.812   3.571   5.037  0.2934  0.2125 -0.2833
   22CHL1  H12A 2766   2.769   3.661   4.986 -2.3109 -0.9362 -0.2870
   22CHL1  H12B 2767   2.730   3.497   5.024  0.1477  0.4066 -0.5064
   22CHL1   C11 2768   2.837   3.600   5.182  0.3430 -0.0234  0.4082
   22CHL1  H11A 2769   2.913   3.681   5.188  1.2797 -0.7700 -0.9842
   22CHL1  H11B 2770   2.740   3.630   5.228 -0.6605 -0.3267 -1.4179
   22CHL1    C9 2771   2.890   3.478   5.259  0.3668  0.0517 -0.0930
   22CHL1    H9 2772   2.813   3.399   5.242  0.3584  0.3413 -1.5086
   22CHL1   C10 2773   2.913   3.511   5.410 -0.1008  0.3684  0.7393
   22CHL1   C19 2774   3.014   3.629   5.429  0.2255 -0.1706  0.5794
   22CHL1  H19A 2775   2.953   3.722   5.422 -0.3555 -0.5476  0.6091
   22CHL1  H19B 2776   3.055   3.634   5.532 -0.0948  1.3213  0.6628
   22CHL1  H19C 2777   3.091   3.639   5.350 -2.4465  3.2040 -1.8908
   22CHL1    C1 2778   2.778   3.540   5.474  0.3726  0.8212 -0.5015
   22CHL1   H1A 2779   2.734   3.632   5.430  1.1114  0.1154 -2.8946
   22CHL1   H1B 2780   2.710   3.463   5.431  0.4745  1.0501 -1.0819
   22CHL1    C2 2781   2.775   3.536   5.622 -0.5471 -0.3553  0.1569
   22CHL1   H2A 2782   2.672   3.567   5.650  0.0330  2.1470 -0.2196
   22CHL1   H2B 2783   2.837   3.621   5.658 -0.6877 -0.1225 -0.1440
   22CHL1   C20 2784   2.921   3.544   4.697  0.1042  0.5036 -0.4552
   22CHL1   H20 2785   3.011   3.610   4.693  1.3295 -0.8783  1.7777
   22CHL1   C21 2786   2.797   3.635   4.709  0.2664 -0.6594  0.5076
   22CHL1  H21A 2787   2.792   3.707   4.794  0.4925 -1.6802  1.4008
   22CHL1  H21B 2788   2.710   3.572   4.737  0.2766  0.3347  3.0699
   22CHL1  H21C 2789   2.789   3.683   4.609 -0.6396 -1.4489  0.1825
   22CHL1   C22 2790   2.903   3.465   4.567 -0.1140  0.0154  0.0085
   22CHL1  H22A 2791   2.967   3.374   4.555  3.5097  2.2660  0.6975
   22CHL1  H22B 2792   2.796   3.436   4.564 -0.3293  0.8484 -1.8584
   22CHL1   C23 2793   2.925   3.557   4.437  0.0317  0.3946 -0.6534
   22CHL1  H23A 2794   2.841   3.627   4.416  0.7232  0.9738 -1.5505
   22CHL1  H23B 2795   3.006   3.632   4.431 -2.2630  3.3792  1.9933
   22CHL1   C24 2796   2.921   3.468   4.316 -1.0576  0.1196 -0.0949
   22CHL1  H24A 2797   3.014   3.408   4.316 -2.1826 -1.8013  1.8905
   22CHL1  H24B 2798   2.840   3.392   4.326  0.4955 -1.5454  0.2958
   22CHL1   C25 2799   2.923   3.548   4.185  0.1437 -0.2532  0.6551
   22CHL1   H25 2800   3.007   3.621   4.191  1.7890 -2.0981  1.3064
   22CHL1   C26 2801   2.952   3.459   4.063 -0.6358 -0.4187 -0.0269
   22CHL1  H26A 2802   2.957   3.518   3.968 -1.3721  3.5249  2.1603
   22CHL1  H26B 2803   3.044   3.397   4.075 -2.5956 -3.2426  1.4022
   22CHL1  H26C 2804   2.871   3.386   4.045  0.3013 -1.3312 -0.6958
   22CHL1   C27 2805   2.797   3.630   4.163  0.3516  0.0943  0.0729
   22CHL1  H27A 2806   2.783   3.705   4.244  0.3628  0.4799 -0.2780
   22CHL1  H27B 2807   2.807   3.658   4.056  1.8313  0.5993  0.3223
   22CHL1  H27C 2808   2.707   3.565   4.168  0.9754 -0.7295  0.8756
   23CHL1    C3 2809   2.419   3.696   5.584 -0.8244  0.5726 -0.3008
   23CHL1    H3 2810   2.525   3.718   5.562 -0.1978 -0.5734  1.3653
   23CHL1    O3 2811   2.402   3.711   5.722  0.1866  0.2523  0.1677
   23CHL1   H3' 2812   2.308   3.729   5.729  0.4252  1.3640  0.6520
   23CHL1    C4 2813   2.326   3.794   5.517  0.3385  0.3727 -0.1453
   23CHL1   H4A 2814   2.217   3.786   5.533  0.6198 -0.1541  1.6758
   23CHL1   H4B 2815   2.336   3.897   5.557 -0.1724  0.8472 -1.2004
   23CHL1    C5 2816   2.356   3.801   5.366  0.2201 -0.0244  0.1981
   23CHL1    C6 2817   2.388   3.915   5.299 -0.0089  0.3272  0.6088
   23CHL1    H6 2818   2.408   4.012   5.346  0.0305  1.1014 -0.9579
   23CHL1    C7 2819   2.406   3.910   5.150  0.8492  0.1161  0.2802
   23CHL1   H7A 2820   2.346   3.991   5.101  0.8981  0.6646  1.1081
   23CHL1   H7B 2821   2.510   3.924   5.115  1.0338 -0.0926  0.7456
   23CHL1    C8 2822   2.345   3.785   5.074 -0.8470  0.1151 -1.6288
   23CHL1    H8 2823   2.235   3.797   5.080 -0.7225  0.8164  2.9143
   23CHL1   C14 2824   2.392   3.767   4.931 -0.2785  0.6334  0.3137
   23CHL1   H14 2825   2.501   3.745   4.931 -0.2968  0.4638  1.9911
   23CHL1   C15 2826   2.379   3.880   4.831 -0.3668 -0.5033 -0.4180
   23CHL1  H15A 2827   2.274   3.916   4.842 -0.9658 -1.8518 -1.2853
   23CHL1  H15B 2828   2.450   3.964   4.838  0.4087 -1.1206 -0.7100
   23CHL1   C16 2829   2.387   3.818   4.688  0.2774 -0.2346  0.4504
   23CHL1  H16A 2830   2.288   3.851   4.649 -0.2645 -0.8035  1.3135
   23CHL1  H16B 2831   2.460   3.862   4.617  1.0156 -2.3670 -0.2087
   23CHL1   C17 2832   2.396   3.665   4.704  0.0559 -0.1555  0.4866
   23CHL1   H17 2833   2.499   3.625   4.712 -0.6731 -3.1718 -2.7816
   23CHL1   C13 2834   2.335   3.645   4.848  0.0645 -0.3098  0.6360
   23CHL1   C18 2835   2.174   3.652   4.847 -0.2876  0.8802  0.3645
   23CHL1  H18A 2836   2.139   3.552   4.814 -0.5142  1.0659  0.0405
   23CHL1  H18B 2837   2.137   3.672   4.950 -0.0998 -0.2761  0.6757
   23CHL1  H18C 2838   2.138   3.734   4.782  0.8648  0.8422 -0.3597
   23CHL1   C12 2839   2.387   3.523   4.928 -0.0294 -0.4485  0.6159
   23CHL1  H12A 2840   2.368   3.423   4.883 -2.3923 -0.0365  0.5744
   23CHL1  H12B 2841   2.497   3.536   4.922 -0.2444  0.9048 -1.8756
   23CHL1   C11 2842   2.343   3.534   5.077 -0.7595 -0.1285 -0.5957
   23CHL1  H11A 2843   2.236   3.504   5.085 -0.3548 -1.3063  0.9463
   23CHL1  H11B 2844   2.388   3.449   5.132 -1.3422  1.6760  2.9085
   23CHL1    C9 2845   2.381   3.662   5.155 -0.3310  0.7608 -0.0499
   23CHL1    H9 2846   2.492   3.667   5.163 -0.3718  0.9241  0.4268
   23CHL1   C10 2847   2.332   3.663   5.304  0.5612  0.1131  0.3792
   23CHL1   C19 2848   2.185   3.622   5.305  0.5370 -0.0804 -0.1825
   23CHL1  H19A 2849   2.180   3.512   5.289  2.3999 -0.2701  0.2587
   23CHL1  H19B 2850   2.134   3.646   5.400  0.5082 -2.7988  0.5877
   23CHL1  H19C 2851   2.141   3.684   5.224  1.4817  1.3595  0.3616
   23CHL1    C1 2852   2.414   3.549   5.389  0.3593  0.5245 -0.0020
   23CHL1   H1A 2853   2.401   3.449   5.343  0.0114 -0.5651  2.3171
   23CHL1   H1B 2854   2.522   3.572   5.374  0.3614 -0.2645 -1.3536
   23CHL1    C2 2855   2.398   3.548   5.539 -0.4153  0.0584  0.0888
   23CHL1   H2A 2856   2.471   3.473   5.575 -1.6239 -1.6711 -0.9278
   23CHL1   H2B 2857   2.293   3.524   5.567  0.0115 -0.1921  1.5774
   23CHL1   C20 2858   2.343   3.578   4.582  0.1110  1.0616  0.1416
   23CHL1   H20 2859   2.349   3.472   4.616 -1.3737  0.9223  0.0314
   23CHL1   C21 2860   2.448   3.588   4.467  1.0056 -0.4774 -0.3134
   23CHL1  H21A 2861   2.432   3.688   4.423 -1.0836 -0.6006  0.0712
   23CHL1  H21B 2862   2.436   3.512   4.386  2.0621  0.2019 -1.1296
   23CHL1  H21C 2863   2.549   3.575   4.511  0.9932  0.2952 -0.0425
   23CHL1   C22 2864   2.213   3.613   4.518 -0.3447  0.6031 -0.4557
   23CHL1  H22A 2865   2.124   3.637   4.580 -1.0627 -1.6316 -0.5475
   23CHL1  H22B 2866   2.217   3.706   4.457 -0.7271  1.6999  1.1193
   23CHL1   C23 2867   2.158   3.499   4.423  0.4225 -0.3536  0.1248
   23CHL1  H23A 2868   2.233   3.496   4.341  1.0873 -0.6691  0.7331
   23CHL1  H23B 2869   2.163   3.401   4.476  3.0080 -0.5296 -0.3002
   23CHL1   C24 2870   2.021   3.535   4.366 -0.0155  0.2008  0.2249
   23CHL1  H24A 2871   1.941   3.567   4.436 -0.1236 -0.3219  0.3495
   23CHL1  H24B 2872   2.043   3.627   4.307  0.9469 -0.2725 -0.1717
   23CHL1   C25 2873   1.967   3.423   4.279  0.5441  0.4713  0.4499
   23CHL1   H25 2874   1.954   3.337   4.347 -0.7421 -2.0742 -2.7573
   23CHL1   C26 2875   1.834   3.476   4.222 -0.6548  0.1940 -0.0634
   23CHL1  H26A 2876   1.765   3.405   4.170 -0.3893  1.4628 -2.2821
   23CHL1  H26B 2877   1.774   3.502   4.312  0.8178 -1.3916  1.4499
   23CHL1  H26C 2878   1.850   3.561   4.152 -0.2775  0.4736  0.3567
   23CHL1   C27 2879   2.053   3.383   4.165  0.2910 -0.3387  0.0423
   23CHL1  H27A 2880   2.023   3.302   4.096  0.4563 -0.2444 -0.1402
   23CHL1  H27B 2881   2.082   3.474   4.107  1.5182 -0.2459  0.7720
   23CHL1  H27C 2882   2.150   3.341   4.199  0.0054 -0.6437  0.4941
   24CHL1    C3 2883   2.986   4.921   5.690  0.2890 -0.6362  0.0353
   24CHL1    H3 2884   2.950   5.023   5.663  0.8976 -0.7091 -1.1161
   24CHL1    O3 2885   3.012   4.938   5.830 -0.1816 -0.1808 -0.4357
   24CHL1   H3' 2886   2.938   4.982   5.871  1.0548  1.3402  0.2752
   24CHL1    C4 2887   2.887   4.806   5.667  0.1222 -0.3349 -0.3090
   24CHL1   H4A 2888   2.907   4.707   5.714  2.6593  0.2295 -0.0313
   24CHL1   H4B 2889   2.787   4.832   5.707  0.1094 -0.6455 -0.1393
   24CHL1    C5 2890   2.856   4.790   5.520 -0.7914 -0.0602 -1.1391
   24CHL1    C6 2891   2.728   4.796   5.481 -0.2901 -0.8458 -0.8677
   24CHL1    H6 2892   2.658   4.811   5.565  1.8541  2.3689  0.5804
   24CHL1    C7 2893   2.683   4.790   5.339  0.3463  0.0570 -0.7041
   24CHL1   H7A 2894   2.601   4.715   5.334  0.2055  0.2021 -0.5885
   24CHL1   H7B 2895   2.642   4.891   5.319  3.5718  1.8885  1.0446
   24CHL1    C8 2896   2.794   4.738   5.249 -0.6224 -1.3068  1.1344
   24CHL1    H8 2897   2.806   4.630   5.273 -0.4304 -0.9439  2.7812
   24CHL1   C14 2898   2.764   4.763   5.099  0.3885 -0.1876 -0.2174
   24CHL1   H14 2899   2.762   4.874   5.090 -2.0417 -0.2631 -1.7380
   24CHL1   C15 2900   2.629   4.731   5.036 -0.9230  0.0700 -0.2692
   24CHL1  H15A 2901   2.593   4.632   5.070  0.2162 -0.6504 -1.0678
   24CHL1  H15B 2902   2.562   4.818   5.049  0.1201  1.2321 -2.1410
   24CHL1   C16 2903   2.650   4.714   4.878  0.5560  0.3786 -0.7283
   24CHL1  H16A 2904   2.639   4.607   4.851 -2.0185 -0.2495  2.3376
   24CHL1  H16B 2905   2.571   4.774   4.828  1.7230  0.8356 -2.1204
   24CHL1   C17 2906   2.795   4.757   4.865  0.1907  0.1332  0.1149
   24CHL1   H17 2907   2.793   4.868   4.859  1.4612  0.2772  1.5506
   24CHL1   C13 2908   2.866   4.716   4.999 -0.1701 -0.3343 -0.0452
   24CHL1   C18 2909   2.876   4.565   5.009 -0.9463  0.2945 -0.5610
   24CHL1  H18A 2910   2.774   4.522   5.003 -0.4902 -1.2388  1.4271
   24CHL1  H18B 2911   2.937   4.527   4.924  1.5844  1.3834  0.6675
   24CHL1  H18C 2912   2.911   4.516   5.102  0.3313  0.7435 -0.7863
   24CHL1   C12 2913   3.004   4.780   5.028 -0.4389 -0.2035 -0.6626
   24CHL1  H12A 2914   3.075   4.726   4.961  0.7563 -1.0393  1.1496
   24CHL1  H12B 2915   3.008   4.888   5.005  0.3581 -0.0449  0.1367
   24CHL1   C11 2916   3.043   4.753   5.173 -0.6688 -0.0491  0.1517
   24CHL1  H11A 2917   3.070   4.646   5.181  0.2283  0.2642  1.7212
   24CHL1  H11B 2918   3.134   4.814   5.194 -0.3836 -0.6609  0.7181
   24CHL1    C9 2919   2.932   4.801   5.275 -0.4059  0.0760  0.4797
   24CHL1    H9 2920   2.909   4.908   5.257  0.5112  0.3306  0.7409
   24CHL1   C10 2921   2.975   4.780   5.425 -0.3592  0.4542 -0.0997
   24CHL1   C19 2922   3.030   4.631   5.443 -0.4866  0.8565  0.2152
   24CHL1  H19A 2923   3.122   4.605   5.387 -0.5030 -1.9154  1.3199
   24CHL1  H19B 2924   3.045   4.623   5.553 -1.6737  2.8549  0.5814
   24CHL1  H19C 2925   2.951   4.558   5.415  0.4779  0.1286 -0.6768
   24CHL1    C1 2926   3.083   4.886   5.460 -0.3187  0.2481  0.1350
   24CHL1   H1A 2927   3.174   4.862   5.401 -0.9543  1.9712 -1.6953
   24CHL1   H1B 2928   3.032   4.983   5.438 -1.2194 -0.4119 -0.7722
   24CHL1    C2 2929   3.116   4.893   5.617  0.5334  0.8534 -0.0235
   24CHL1   H2A 2930   3.179   4.984   5.616  0.9094  0.5900 -1.3243
   24CHL1   H2B 2931   3.169   4.808   5.665  0.5460  1.1400  0.4764
   24CHL1   C20 2932   2.848   4.703   4.732 -0.0586 -0.6816 -0.0030
   24CHL1   H20 2933   2.859   4.593   4.740  2.9619 -0.3976  1.4298
   24CHL1   C21 2934   2.993   4.751   4.715 -1.2375 -0.5867 -0.1476
   24CHL1  H21A 2935   2.998   4.854   4.757  0.4008 -0.8521  0.3965
   24CHL1  H21B 2936   3.023   4.769   4.610  0.9341  1.1802  0.6785
   24CHL1  H21C 2937   3.071   4.689   4.764  1.4046  2.7431  0.2910
   24CHL1   C22 2938   2.756   4.726   4.614  0.4305 -0.8149  0.3735
   24CHL1  H22A 2939   2.801   4.676   4.525 -1.6149  0.2428 -1.3565
   24CHL1  H22B 2940   2.665   4.666   4.635  0.2530 -0.7968 -0.3104
   24CHL1   C23 2941   2.719   4.871   4.577 -0.2087  0.2666  0.4408
   24CHL1  H23A 2942   2.660   4.921   4.657  1.9762  0.9095  1.7152
   24CHL1  H23B 2943   2.818   4.914   4.553  1.3347 -3.4123 -0.4893
   24CHL1   C24 2944   2.618   4.868   4.454  0.3656  0.2942 -0.4371
   24CHL1  H24A 2945   2.582   4.973   4.451 -3.1469 -0.7656  0.3334
   24CHL1  H24B 2946   2.680   4.845   4.364  0.2132  1.6433 -0.9157
   24CHL1   C25 2947   2.491   4.777   4.464  0.8243  0.1159  0.0004
   24CHL1   H25 2948   2.522   4.674   4.490  0.0887 -0.2291 -0.4812
   24CHL1   C26 2949   2.391   4.813   4.575  0.2857 -0.1613  0.0779
   24CHL1  H26A 2950   2.439   4.824   4.675  0.7616  2.9366 -0.4007
   24CHL1  H26B 2951   2.343   4.911   4.556 -0.9116 -0.7576 -0.0754
   24CHL1  H26C 2952   2.326   4.724   4.594 -2.3548  1.5858 -0.2126
   24CHL1   C27 2953   2.413   4.781   4.332  0.1432 -0.0675  0.4274
   24CHL1  H27A 2954   2.318   4.725   4.348 -0.5746  1.3312  1.2591
   24CHL1  H27B 2955   2.380   4.884   4.310 -1.3449 -0.6726 -0.3369
   24CHL1  H27C 2956   2.471   4.734   4.251 -0.4820 -0.7689  0.3729
   25CHL1    C3 2957   3.575   5.263   5.621 -0.3524  0.2441  0.6262
   25CHL1    H3 2958   3.677   5.247   5.580 -0.7680 -0.0655 -0.3177
   25CHL1    O3 2959   3.582   5.297   5.757 -0.0090  0.0161 -0.5866
   25CHL1   H3' 2960   3.577   5.218   5.811  1.0891  2.1179  2.9827
   25CHL1    C4 2961   3.508   5.376   5.541 -0.5372 -0.4020 -0.7918
   25CHL1   H4A 2962   3.410   5.400   5.587  1.1086  1.6372  1.9678
   25CHL1   H4B 2963   3.577   5.463   5.553 -1.1807  0.1010 -0.6999
   25CHL1    C5 2964   3.501   5.355   5.396 -0.0337  0.2474  0.5229
   25CHL1    C6 2965   3.566   5.426   5.301 -0.4376 -0.3622  0.1822
   25CHL1    H6 2966   3.634   5.510   5.323 -1.0919  0.2594 -0.1446
   25CHL1    C7 2967   3.554   5.409   5.156  0.3828  0.2393 -0.1799
   25CHL1   H7A 2968   3.525   5.501   5.100 -1.4204  1.0636  1.9661
   25CHL1   H7B 2969   3.653   5.372   5.121  0.9600  2.1387 -0.6909
   25CHL1    C8 2970   3.439   5.314   5.118 -0.2114 -0.0414 -0.4191
   25CHL1    H8 2971   3.340   5.364   5.127  0.4894  1.3685 -0.1253
   25CHL1   C14 2972   3.455   5.274   4.975 -0.4021  0.0056 -0.4665
   25CHL1   H14 2973   3.554   5.225   4.958  0.9868  2.3799  0.3703
   25CHL1   C15 2974   3.443   5.387   4.876 -0.6406  0.1244  0.5950
   25CHL1  H15A 2975   3.359   5.458   4.888  0.0255  1.7931 -3.1242
   25CHL1  H15B 2976   3.544   5.433   4.875 -0.7972  0.4741 -1.2381
   25CHL1   C16 2977   3.415   5.318   4.741  0.4657 -0.2788  0.0260
   25CHL1  H16A 2978   3.328   5.363   4.687  0.9505  0.7530  0.0798
   25CHL1  H16B 2979   3.504   5.338   4.677 -0.1387  3.2306  0.0792
   25CHL1   C17 2980   3.397   5.168   4.779  0.2306 -0.6008 -0.0027
   25CHL1   H17 2981   3.501   5.130   4.786  0.2964 -0.1122  2.5624
   25CHL1   C13 2982   3.353   5.172   4.926  0.6209  0.1551 -0.3512
   25CHL1   C18 2983   3.210   5.214   4.926  1.2956  0.5556 -0.1410
   25CHL1  H18A 2984   3.138   5.132   4.907  0.8256  0.9630 -0.1581
   25CHL1  H18B 2985   3.179   5.249   5.027 -1.5908 -1.5590 -0.1909
   25CHL1  H18C 2986   3.185   5.289   4.847  1.1227 -0.5981 -1.2137
   25CHL1   C12 2987   3.369   5.042   5.011  0.1538 -0.7469  0.4048
   25CHL1  H12A 2988   3.298   4.963   4.979  0.9636 -1.8443  1.2539
   25CHL1  H12B 2989   3.469   4.998   4.991  0.5595  0.8718 -1.4566
   25CHL1   C11 2990   3.350   5.076   5.160  0.2131  0.1723  0.0363
   25CHL1  H11A 2991   3.241   5.089   5.177 -0.0967 -1.0438 -0.8548
   25CHL1  H11B 2992   3.383   4.988   5.218  2.2007 -0.3524 -1.7613
   25CHL1    C9 2993   3.439   5.195   5.210 -0.0338  0.4861 -0.4704
   25CHL1    H9 2994   3.543   5.159   5.194 -0.2369  1.0131 -3.8269
   25CHL1   C10 2995   3.413   5.230   5.358 -0.1227  0.2963  0.4097
   25CHL1   C19 2996   3.260   5.265   5.379 -0.4224  0.5580  0.5206
   25CHL1  H19A 2997   3.249   5.296   5.485  1.2469  2.5884  0.1644
   25CHL1  H19B 2998   3.248   5.362   5.327  5.4119  1.6837  0.6481
   25CHL1  H19C 2999   3.189   5.185   5.349 -0.0088 -0.9323  3.1840
   25CHL1    C1 3000   3.454   5.110   5.454  0.1252 -0.2432  0.3928
   25CHL1   H1A 3001   3.378   5.031   5.439  0.6594 -0.9524  1.3332
   25CHL1   H1B 3002   3.553   5.081   5.413  0.4918 -2.3624  2.5244
   25CHL1    C2 3003   3.484   5.146   5.598 -0.3422  0.2050 -0.4424
   25CHL1   H2A 3004   3.532   5.061   5.650 -0.1033  0.7259  0.2054
   25CHL1   H2B 3005   3.390   5.177   5.649 -1.1229 -0.5069 -1.4166
   25CHL1   C20 3006   3.324   5.074   4.680 -0.0239 -0.8579 -0.9338
   25CHL1   H20 3007   3.249   5.020   4.740  2.0634 -0.4208  2.3163
   25CHL1   C21 3008   3.432   4.980   4.624  0.5200 -0.1513  0.2440
   25CHL1  H21A 3009   3.495   4.923   4.695 -0.2611 -3.6910 -1.6613
   25CHL1  H21B 3010   3.490   5.034   4.546  1.0733 -0.3400  0.5150
   25CHL1  H21C 3011   3.386   4.898   4.565  0.7064  0.4709 -0.7758
   25CHL1   C22 3012   3.247   5.140   4.567 -0.3000 -0.7469 -0.3073
   25CHL1  H22A 3013   3.187   5.227   4.601  2.8532  2.0568 -1.4201
   25CHL1  H22B 3014   3.325   5.179   4.498 -0.5126  0.4655  0.1103
   25CHL1   C23 3015   3.154   5.044   4.497  1.3891 -0.1921 -0.0169
   25CHL1  H23A 3016   3.221   4.984   4.432  0.6248  0.5533 -1.5469
   25CHL1  H23B 3017   3.113   4.978   4.576 -1.2174 -2.3568 -2.9104
   25CHL1   C24 3018   3.046   5.100   4.401 -0.5170  0.5400  0.4013
   25CHL1  H24A 3019   2.983   5.021   4.355 -1.1646  1.4302 -0.2827
   25CHL1  H24B 3020   2.986   5.171   4.463 -0.5489  0.1343  0.8392
   25CHL1   C25 3021   3.107   5.184   4.288  0.0708 -0.5319  0.4787
   25CHL1   H25 3022   3.168   5.265   4.334  0.0552 -1.3191  1.9359
   25CHL1   C26 3023   3.201   5.101   4.199  0.1834 -0.2482 -0.3608
   25CHL1  H26A 3024   3.135   5.031   4.144  0.1554 -1.5137  1.2057
   25CHL1  H26B 3025   3.243   5.167   4.120  0.6556 -1.0988 -0.8376
   25CHL1  H26C 3026   3.276   5.057   4.268 -1.3317 -1.1807  0.7640
   25CHL1   C27 3027   3.000   5.244   4.201  0.2147 -0.4033 -0.0090
   25CHL1  H27A 3028   2.930   5.312   4.254 -0.3534 -1.0876  0.1232
   25CHL1  H27B 3029   3.043   5.296   4.113  1.4174  0.9882  1.3283
   25CHL1  H27C 3030   2.956   5.156   4.150 -1.7576 -1.1595  2.7446
   26CHL1    C3 3031   2.952   2.762   5.621 -0.8924  0.5116 -0.2668
   26CHL1    H3 3032   2.843   2.758   5.600 -0.8532 -1.5085 -0.2227
   26CHL1    O3 3033   2.981   2.758   5.759  0.9974  0.0358  0.5647
   26CHL1   H3' 3034   3.031   2.839   5.771 -0.7226  1.2825 -0.3338
   26CHL1    C4 3035   3.032   2.641   5.570 -0.3629  0.1120  1.0108
   26CHL1   H4A 3036   3.139   2.656   5.597 -0.5737  0.1877  1.8199
   26CHL1   H4B 3037   2.997   2.551   5.626 -1.3786 -1.8575 -2.4564
   26CHL1    C5 3038   3.022   2.634   5.417  0.6291 -0.8912 -0.3811
   26CHL1    C6 3039   2.967   2.523   5.359 -0.2867 -0.7452  0.2703
   26CHL1    H6 3040   2.935   2.438   5.421  2.2509 -0.3553  2.2750
   26CHL1    C7 3041   2.950   2.512   5.211  0.3435 -0.0265  0.8434
   26CHL1   H7A 3042   2.971   2.406   5.183 -1.6657 -0.0443 -0.8470
   26CHL1   H7B 3043   2.840   2.521   5.199  0.4740  0.3204 -0.1929
   26CHL1    C8 3044   3.019   2.620   5.135  0.3792  0.4941  0.2345
   26CHL1    H8 3045   3.127   2.604   5.150  0.6469  2.6426  0.9386
   26CHL1   C14 3046   2.974   2.610   4.990  0.3071  0.3029 -0.0239
   26CHL1   H14 3047   2.867   2.638   4.982  0.0045 -1.3196 -3.4203
   26CHL1   C15 3048   2.982   2.477   4.926  0.0756  0.2668  0.1143
   26CHL1  H15A 3049   3.074   2.427   4.963  1.8569  1.3042 -2.5850
   26CHL1  H15B 3050   2.894   2.417   4.955  1.4281 -1.2047  1.3502
   26CHL1   C16 3051   2.990   2.506   4.776 -0.9895  0.3515 -0.5897
   26CHL1  H16A 3052   3.080   2.462   4.728  1.5848  3.5809  0.9305
   26CHL1  H16B 3053   2.894   2.475   4.729 -1.9100 -0.6052  1.7506
   26CHL1   C17 3054   2.992   2.664   4.765 -0.1234 -0.4980  0.2301
   26CHL1   H17 3055   2.888   2.702   4.751  1.0539  2.9626  0.0528
   26CHL1   C13 3056   3.050   2.706   4.899 -0.1933 -0.4424  0.0317
   26CHL1   C18 3057   3.202   2.672   4.894 -0.4201  0.3804 -0.9070
   26CHL1  H18A 3058   3.253   2.683   4.992 -0.4511  0.2258 -0.8736
   26CHL1  H18B 3059   3.219   2.570   4.854 -1.0610 -0.5768  1.1540
   26CHL1  H18C 3060   3.259   2.746   4.835 -0.8858  2.3684  1.0132
   26CHL1   C12 3061   3.017   2.850   4.944 -0.3961  0.2632  0.1875
   26CHL1  H12A 3062   3.043   2.931   4.873  0.6346 -0.9572 -0.8723
   26CHL1  H12B 3063   2.907   2.855   4.955 -0.2540  1.7888  1.2987
   26CHL1   C11 3064   3.055   2.876   5.090  0.1988 -0.1054  0.1274
   26CHL1  H11A 3065   3.165   2.863   5.083  0.0329 -0.4883 -3.3015
   26CHL1  H11B 3066   3.028   2.977   5.127  0.4265  0.0577 -0.1493
   26CHL1    C9 3067   3.003   2.766   5.191 -0.7593  0.0177  0.1921
   26CHL1    H9 3068   2.895   2.787   5.199 -0.2809  2.4254  1.1709
   26CHL1   C10 3069   3.057   2.767   5.341 -0.2992 -1.0048  0.0696
   26CHL1   C19 3070   3.212   2.784   5.348 -0.5034 -0.0411  0.4502
   26CHL1  H19A 3071   3.267   2.694   5.313 -0.4320  0.7341 -1.5473
   26CHL1  H19B 3072   3.240   2.871   5.286 -0.6856 -0.5414 -0.3545
   26CHL1  H19C 3073   3.242   2.803   5.453 -1.6263 -1.2372  1.0268
   26CHL1    C1 3074   2.981   2.887   5.412  0.4079  0.1895 -0.2125
   26CHL1   H1A 3075   3.011   2.982   5.362  0.4673  1.3321  1.8964
   26CHL1   H1B 3076   2.877   2.863   5.384  1.3411 -2.9054 -1.4789
   26CHL1    C2 3077   3.009   2.894   5.556 -0.0773 -0.3459 -0.4087
   26CHL1   H2A 3078   2.955   2.977   5.606 -3.3781 -1.8903 -1.1498
   26CHL1   H2B 3079   3.115   2.913   5.581 -0.7442  1.1059  1.5622
   26CHL1   C20 3080   3.069   2.709   4.633  0.5735 -0.0527 -0.5549
   26CHL1   H20 3081   3.171   2.667   4.624  1.5474  1.9399  0.6952
   26CHL1   C21 3082   3.077   2.865   4.620 -0.2113 -0.4388 -0.0700
   26CHL1  H21A 3083   2.982   2.922   4.626  1.0343  1.6230  1.4711
   26CHL1  H21B 3084   3.141   2.885   4.531  0.4044 -0.1785  0.4188
   26CHL1  H21C 3085   3.142   2.903   4.702  0.2228 -1.0616 -0.1188
   26CHL1   C22 3086   2.995   2.664   4.505 -0.1029  0.0258  0.1120
   26CHL1  H22A 3087   2.975   2.555   4.511 -2.2311  0.2756 -1.3556
   26CHL1  H22B 3088   2.891   2.704   4.495  0.2818  1.9858  2.7428
   26CHL1   C23 3089   3.058   2.688   4.367 -1.1544 -0.7421 -0.7004
   26CHL1  H23A 3090   2.988   2.639   4.296 -1.7435 -0.8884 -0.0299
   26CHL1  H23B 3091   3.063   2.797   4.346  0.3558 -0.6628 -0.0082
   26CHL1   C24 3092   3.193   2.626   4.350  0.0442 -0.3392  0.7411
   26CHL1  H24A 3093   3.266   2.685   4.409  1.5980 -2.0131  0.5607
   26CHL1  H24B 3094   3.190   2.533   4.411  0.3103 -0.9128 -0.1037
   26CHL1   C25 3095   3.251   2.611   4.205  0.3002 -0.0020 -0.6431
   26CHL1   H25 3096   3.166   2.561   4.154 -0.9544  2.8060 -1.4818
   26CHL1   C26 3097   3.269   2.745   4.134 -0.3285 -0.0503  0.0328
   26CHL1  H26A 3098   3.271   2.718   4.026 -2.0976 -2.7558  0.5851
   26CHL1  H26B 3099   3.176   2.804   4.145 -1.1360 -0.9859 -1.5525
   26CHL1  H26C 3100   3.361   2.802   4.159 -0.2681  0.2586 -0.8474
   26CHL1   C27 3101   3.383   2.533   4.217  0.0798  0.0359 -0.2959
   26CHL1  H27A 3102   3.424   2.487   4.124 -1.3033  0.5255 -1.1741
   26CHL1  H27B 3103   3.462   2.590   4.270 -0.4249  1.0181 -0.5715
   26CHL1  H27C 3104   3.365   2.444   4.280 -0.4531 -0.4487 -1.1124
   27CHL1    C3 3105   2.463   2.985   5.670 -0.4603  0.5337 -0.3631
   27CHL1    H3 3106   2.368   2.934   5.644 -0.9741  1.1113  0.2986
   27CHL1    O3 3107   2.465   2.985   5.816  0.1785 -0.0286 -0.1511
   27CHL1   H3' 3108   2.524   3.053   5.850 -0.9939  1.0727 -0.2262
   27CHL1    C4 3109   2.587   2.922   5.609  0.5052  0.0085 -0.1521
   27CHL1   H4A 3110   2.678   2.973   5.646  0.9919  1.5566 -3.1907
   27CHL1   H4B 3111   2.586   2.817   5.645 -1.7867  0.2619  0.7487
   27CHL1    C5 3112   2.580   2.931   5.464 -0.1839 -0.2378  0.0537
   27CHL1    C6 3113   2.564   2.817   5.398  0.5647  0.1072 -0.2091
   27CHL1    H6 3114   2.560   2.727   5.462 -0.6269 -0.4945 -1.0800
   27CHL1    C7 3115   2.573   2.815   5.250  1.0999 -0.3793 -0.4458
   27CHL1   H7A 3116   2.643   2.740   5.206  2.7023  0.6857  0.1772
   27CHL1   H7B 3117   2.470   2.789   5.218  0.8056 -0.1407  0.3058
   27CHL1    C8 3118   2.618   2.956   5.187  0.1485 -0.0764  0.3235
   27CHL1    H8 3119   2.725   2.964   5.215 -0.0975  1.6038  0.8723
   27CHL1   C14 3120   2.580   2.953   5.038  0.2752 -0.0668  0.1646
   27CHL1   H14 3121   2.469   2.950   5.041  0.1311  2.0160 -1.2678
   27CHL1   C15 3122   2.618   2.829   4.954  0.5725 -0.5186 -0.9984
   27CHL1  H15A 3123   2.714   2.788   4.994 -0.2729 -2.3956 -0.7890
   27CHL1  H15B 3124   2.540   2.751   4.964  0.4635 -0.4166 -1.0569
   27CHL1   C16 3125   2.614   2.885   4.813 -0.4380 -0.4383 -0.1532
   27CHL1  H16A 3126   2.716   2.894   4.771 -0.2530 -2.7265 -0.3132
   27CHL1  H16B 3127   2.554   2.822   4.745 -0.6061 -1.4992  0.9355
   27CHL1   C17 3128   2.560   3.030   4.821 -0.3275  0.9221 -0.5051
   27CHL1   H17 3129   2.449   3.020   4.832 -0.1668 -2.6791 -0.9540
   27CHL1   C13 3130   2.613   3.073   4.957 -0.4552  0.2284 -0.0172
   27CHL1   C18 3131   2.756   3.104   4.956 -0.1252  0.5752 -0.5267
   27CHL1  H18A 3132   2.825   3.048   4.889 -0.0190  0.5519 -0.3981
   27CHL1  H18B 3133   2.771   3.210   4.926  0.2699  1.3266  2.1046
   27CHL1  H18C 3134   2.794   3.087   5.059 -0.3642  1.5666 -0.2661
   27CHL1   C12 3135   2.549   3.194   5.028  0.0275 -0.6891  0.3106
   27CHL1  H12A 3136   2.592   3.290   4.994  2.0731 -1.6251  0.0521
   27CHL1  H12B 3137   2.439   3.195   5.015  0.2613 -1.5353 -2.4340
   27CHL1   C11 3138   2.569   3.205   5.185  0.1501  0.5612 -0.0038
   27CHL1  H11A 3139   2.676   3.236   5.186  0.4048 -0.2884 -0.3039
   27CHL1  H11B 3140   2.510   3.292   5.222 -0.2322  0.2701  0.0639
   27CHL1    C9 3141   2.540   3.069   5.259  0.3142  0.4591 -0.0144
   27CHL1    H9 3142   2.433   3.039   5.255 -0.0736  1.3030  2.3615
   27CHL1   C10 3143   2.580   3.072   5.403 -0.0656 -0.2181 -0.5160
   27CHL1   C19 3144   2.722   3.139   5.418  0.2626 -0.2332 -0.4216
   27CHL1  H19A 3145   2.715   3.246   5.386 -3.5949 -0.7565 -1.8281
   27CHL1  H19B 3146   2.751   3.146   5.525 -0.8346  0.3060 -0.1461
   27CHL1  H19C 3147   2.802   3.080   5.369 -0.4606 -2.6529  1.1610
   27CHL1    C1 3148   2.473   3.154   5.484 -0.1968  0.6260 -0.1519
   27CHL1   H1A 3149   2.479   3.260   5.452 -2.2834  0.1439 -2.5113
   27CHL1   H1B 3150   2.372   3.145   5.438 -0.6803  2.8409  0.3610
   27CHL1    C2 3151   2.465   3.131   5.632  0.0325 -0.3325 -0.4119
   27CHL1   H2A 3152   2.374   3.168   5.685  0.1390 -1.0722  0.3154
   27CHL1   H2B 3153   2.546   3.185   5.686 -0.2348 -1.0287  0.7397
   27CHL1   C20 3154   2.599   3.105   4.705  0.5403 -0.1300 -0.5541
   27CHL1   H20 3155   2.709   3.117   4.693  0.5408  0.3244 -0.1736
   27CHL1   C21 3156   2.553   3.250   4.709  0.1122 -0.6743 -0.0325
   27CHL1  H21A 3157   2.601   3.314   4.786 -1.8346 -1.6987  2.1744
   27CHL1  H21B 3158   2.444   3.262   4.727  0.1319  1.9991 -1.1850
   27CHL1  H21C 3159   2.566   3.298   4.610  2.5094  1.4395  1.2148
   27CHL1   C22 3160   2.548   3.047   4.572 -0.8770  0.3486 -0.1594
   27CHL1  H22A 3161   2.574   3.118   4.491  0.4686 -1.1873 -1.1424
   27CHL1  H22B 3162   2.616   2.960   4.562  1.9134  2.2351  1.1898
   27CHL1   C23 3163   2.404   3.013   4.568  0.3037 -0.5401  0.3377
   27CHL1  H23A 3164   2.374   2.942   4.648 -1.8635  1.3181  1.2923
   27CHL1  H23B 3165   2.339   3.097   4.603 -0.7420 -0.9802 -0.4735
   27CHL1   C24 3166   2.372   2.972   4.424  0.8934  0.2526 -0.2179
   27CHL1  H24A 3167   2.376   3.067   4.366 -1.3491  0.1181 -0.6715
   27CHL1  H24B 3168   2.444   2.900   4.380  1.5180  0.9631 -0.3930
   27CHL1   C25 3169   2.226   2.934   4.397  0.3254 -0.2408  0.2721
   27CHL1   H25 3170   2.186   2.869   4.478 -1.4754  0.3113 -0.1245
   27CHL1   C26 3171   2.135   3.058   4.407 -0.7251  0.2868  0.4508
   27CHL1  H26A 3172   2.136   3.097   4.511 -0.0165 -2.0080  1.3787
   27CHL1  H26B 3173   2.156   3.138   4.334  1.4124 -0.6339 -0.0454
   27CHL1  H26C 3174   2.036   3.020   4.376  0.4900 -2.6362 -0.2201
   27CHL1   C27 3175   2.204   2.871   4.258 -0.6029 -0.0613  0.8875
   27CHL1  H27A 3176   2.211   2.945   4.176 -0.1921 -1.5783 -0.5065
   27CHL1  H27B 3177   2.104   2.824   4.242  0.0183 -0.3830 -3.0440
   27CHL1  H27C 3178   2.280   2.796   4.227  1.3064  2.8001 -1.9463
   28CHL1    C3 3179   4.294   2.196   5.636  0.2767  0.4322  0.0006
   28CHL1    H3 3180   4.341   2.296   5.642  3.4785 -1.0025  0.8879
   28CHL1    O3 3181   4.327   2.135   5.759 -0.3116  0.1657 -0.2005
   28CHL1   H3' 3182   4.277   2.053   5.757 -0.1822  0.0943 -0.9851
   28CHL1    C4 3183   4.143   2.199   5.611  0.1686  0.0041 -1.0225
   28CHL1   H4A 3184   4.096   2.101   5.636  0.0583  0.1710 -0.5696
   28CHL1   H4B 3185   4.100   2.256   5.695 -2.2771 -3.5258  0.3583
   28CHL1    C5 3186   4.098   2.246   5.474 -0.4772 -0.4233  0.4623
   28CHL1    C6 3187   4.017   2.348   5.454  0.1679 -0.2359  0.7419
   28CHL1    H6 3188   3.962   2.404   5.531 -0.4602  2.2519 -1.3719
   28CHL1    C7 3189   3.982   2.398   5.316 -0.4420 -0.4769  0.1649
   28CHL1   H7A 3190   3.875   2.426   5.322 -0.3828 -0.2805  0.3522
   28CHL1   H7B 3191   4.039   2.493   5.302 -1.6768  0.0097 -1.9875
   28CHL1    C8 3192   4.016   2.305   5.193 -0.0790 -0.1890 -0.0723
   28CHL1    H8 3193   3.940   2.225   5.183 -0.6059  0.3873 -0.7231
   28CHL1   C14 3194   4.028   2.384   5.066  0.0194  0.2513  0.3614
   28CHL1   H14 3195   4.106   2.461   5.081  0.9199 -0.4823 -0.4254
   28CHL1   C15 3196   3.899   2.464   5.032 -0.4846 -0.8084  0.3186
   28CHL1  H15A 3197   3.806   2.420   5.074 -0.8279 -0.4145 -0.0223
   28CHL1  H15B 3198   3.909   2.559   5.087 -1.0833  0.7015 -2.0188
   28CHL1   C16 3199   3.903   2.484   4.877  0.3316  0.3720  0.5319
   28CHL1  H16A 3200   3.808   2.444   4.837  1.5005 -0.8763 -1.0839
   28CHL1  H16B 3201   3.902   2.592   4.850  1.0029  0.3128  0.2465
   28CHL1   C17 3202   4.032   2.418   4.829  0.2685 -0.4336 -0.2179
   28CHL1   H17 3203   4.110   2.494   4.849  0.4856 -0.5042 -0.7731
   28CHL1   C13 3204   4.061   2.308   4.939  0.6884 -0.2174 -0.1312
   28CHL1   C18 3205   3.958   2.193   4.925 -0.1840  0.3885  0.4767
   28CHL1  H18A 3206   3.963   2.118   5.007 -1.7337 -0.4006 -0.1103
   28CHL1  H18B 3207   3.851   2.221   4.928 -0.4711 -0.5571 -0.3964
   28CHL1  H18C 3208   3.973   2.139   4.829  3.5057  2.5604 -0.3684
   28CHL1   C12 3209   4.203   2.264   4.964  0.1593 -0.5822 -0.0448
   28CHL1  H12A 3210   4.240   2.216   4.871 -0.2678  0.4393 -0.7610
   28CHL1  H12B 3211   4.254   2.362   4.978  0.4023 -0.9106  1.5426
   28CHL1   C11 3212   4.229   2.188   5.095 -0.3573 -0.0194 -0.5404
   28CHL1  H11A 3213   4.192   2.085   5.076 -0.1477 -0.3919  0.9025
   28CHL1  H11B 3214   4.339   2.179   5.111 -0.0979  2.3279 -0.6627
   28CHL1    C9 3215   4.159   2.252   5.221 -0.0034  0.3173  0.1562
   28CHL1    H9 3216   4.215   2.347   5.228 -1.5402  1.3941 -1.3167
   28CHL1   C10 3217   4.171   2.182   5.355  0.2184 -0.1587 -0.0321
   28CHL1   C19 3218   4.104   2.038   5.340 -0.4529  0.2061  0.5337
   28CHL1  H19A 3219   4.014   2.050   5.278 -0.5142  1.7127  0.8673
   28CHL1  H19B 3220   4.178   1.967   5.297  1.0633  1.7206  0.5485
   28CHL1  H19C 3221   4.083   1.987   5.437 -0.6557 -0.8500 -0.0428
   28CHL1    C1 3222   4.324   2.183   5.388  0.2956  0.2619  0.0947
   28CHL1   H1A 3223   4.379   2.116   5.319 -1.6656 -2.3650  0.9286
   28CHL1   H1B 3224   4.363   2.287   5.387  2.2384 -0.4151 -1.7950
   28CHL1    C2 3225   4.363   2.117   5.521  0.1312 -0.1232 -0.1513
   28CHL1   H2A 3226   4.473   2.132   5.534  1.0318 -4.8856 -0.2211
   28CHL1   H2B 3227   4.345   2.010   5.546  2.3052 -0.0401  2.2388
   28CHL1   C20 3228   4.039   2.377   4.682 -0.3253 -0.2246 -0.3924
   28CHL1   H20 3229   4.126   2.307   4.678  1.1311  1.4745  0.2004
   28CHL1   C21 3230   4.082   2.510   4.620 -1.1535  0.1376  0.0655
   28CHL1  H21A 3231   4.177   2.543   4.668  0.0254 -1.1941 -1.2353
   28CHL1  H21B 3232   4.003   2.584   4.642 -0.7896  0.4156  0.4331
   28CHL1  H21C 3233   4.089   2.510   4.509 -2.6025  1.0136 -0.0383
   28CHL1   C22 3234   3.914   2.314   4.621  0.2192  0.1626  0.5463
   28CHL1  H22A 3235   3.872   2.235   4.687 -1.2255 -1.1342 -1.8080
   28CHL1  H22B 3236   3.841   2.396   4.608 -0.1484 -0.3324 -0.6004
   28CHL1   C23 3237   3.944   2.247   4.485 -0.2687 -0.5687  0.3144
   28CHL1  H23A 3238   3.981   2.317   4.407  1.1738 -1.2878  0.3240
   28CHL1  H23B 3239   4.032   2.183   4.506 -0.9149 -1.4538  0.3382
   28CHL1   C24 3240   3.832   2.174   4.410 -0.1701 -0.2163 -0.1314
   28CHL1  H24A 3241   3.790   2.099   4.481  0.1494  0.7789  1.1393
   28CHL1  H24B 3242   3.750   2.248   4.408 -1.1321 -1.1538  1.8118
   28CHL1   C25 3243   3.866   2.118   4.280 -0.1326  0.2802  0.0349
   28CHL1   H25 3244   3.908   2.197   4.214 -1.1977  0.6247 -0.2527
   28CHL1   C26 3245   3.978   2.007   4.286 -0.2004  0.2334  0.4040
   28CHL1  H26A 3246   4.077   2.057   4.290  0.3391 -0.8780  1.3365
   28CHL1  H26B 3247   3.966   1.942   4.375  0.0600 -0.3695  0.0089
   28CHL1  H26C 3248   3.976   1.940   4.197  0.4965 -0.5667  0.9710
   28CHL1   C27 3249   3.734   2.063   4.218  0.4333 -0.8532  0.2885
   28CHL1  H27A 3250   3.762   2.011   4.124  0.2931 -0.0663 -0.1918
   28CHL1  H27B 3251   3.696   1.990   4.294  0.9710  0.5530  1.9761
   28CHL1  H27C 3252   3.664   2.147   4.201  0.8846  0.2646  3.2450
   29CHL1    C3 3253   1.902   3.903   5.607 -0.6532 -0.0251 -0.1879
   29CHL1    H3 3254   1.997   3.851   5.581 -0.8297 -0.9465  0.9044
   29CHL1    O3 3255   1.890   3.888   5.750 -0.2037 -0.1575  0.0647
   29CHL1   H3' 3256   1.953   3.952   5.785  1.0585 -1.5700  0.4916
   29CHL1    C4 3257   1.894   4.047   5.556 -0.7175 -0.1759 -0.2614
   29CHL1   H4A 3258   1.796   4.096   5.577 -1.4412 -1.9427  0.6747
   29CHL1   H4B 3259   1.972   4.110   5.606 -1.7677  1.4801 -0.6196
   29CHL1    C5 3260   1.919   4.048   5.405 -0.3417 -0.1176  0.2124
   29CHL1    C6 3261   2.021   4.118   5.350  0.3206  0.1982 -0.0492
   29CHL1    H6 3262   2.082   4.177   5.420  0.1792 -0.4090  0.5955
   29CHL1    C7 3263   2.037   4.134   5.204  0.3541 -0.1283  0.8139
   29CHL1   H7A 3264   2.033   4.243   5.178 -2.5117 -0.7351 -1.9710
   29CHL1   H7B 3265   2.136   4.093   5.176  0.2429 -0.2591  0.6116
   29CHL1    C8 3266   1.917   4.077   5.116 -1.0209  0.5396 -0.4546
   29CHL1    H8 3267   1.828   4.143   5.122 -1.4647 -0.1114  0.1704
   29CHL1   C14 3268   1.952   4.054   4.965 -0.2621 -0.5312  0.5627
   29CHL1   H14 3269   2.044   3.991   4.968 -0.3376 -0.6102  1.3215
   29CHL1   C15 3270   1.999   4.181   4.885 -0.6271 -0.0578 -0.3182
   29CHL1  H15A 3271   1.925   4.264   4.889 -0.2269  0.2717  2.3120
   29CHL1  H15B 3272   2.087   4.233   4.927  0.0101 -1.9713  0.8972
   29CHL1   C16 3273   2.002   4.137   4.738  0.3203 -0.1351  0.1378
   29CHL1  H16A 3274   1.935   4.205   4.680 -2.3616 -2.1639  0.6532
   29CHL1  H16B 3275   2.107   4.121   4.705  1.7046  1.7415  3.1960
   29CHL1   C17 3276   1.934   3.996   4.743  0.3813  0.7108 -0.2345
   29CHL1   H17 3277   2.016   3.921   4.756  0.0890  0.7781  2.6643
   29CHL1   C13 3278   1.852   3.987   4.873 -0.4881 -0.5705 -0.3569
   29CHL1   C18 3279   1.717   4.067   4.865  0.6474 -0.6094  0.5527
   29CHL1  H18A 3280   1.672   4.086   4.965 -0.7506 -3.4818  0.5888
   29CHL1  H18B 3281   1.708   4.155   4.798 -0.5096 -0.2364  1.1554
   29CHL1  H18C 3282   1.639   3.997   4.829  0.2959 -0.1044  0.3197
   29CHL1   C12 3283   1.827   3.848   4.936 -0.2403  0.0296 -1.2826
   29CHL1  H12A 3284   1.741   3.802   4.883 -1.6824  0.5740  0.5210
   29CHL1  H12B 3285   1.917   3.783   4.929 -0.5724 -0.3005 -3.1138
   29CHL1   C11 3286   1.777   3.860   5.086  0.2968 -0.1461  0.2912
   29CHL1  H11A 3287   1.679   3.911   5.096  0.0694 -0.2602 -1.1970
   29CHL1  H11B 3288   1.777   3.755   5.124  3.6636 -1.1634 -2.0671
   29CHL1    C9 3289   1.876   3.944   5.175 -0.7010 -0.1243 -0.3161
   29CHL1    H9 3290   1.972   3.889   5.183 -0.7885 -0.1818  0.3507
   29CHL1   C10 3291   1.822   3.964   5.322  0.5523  0.5497 -0.2540
   29CHL1   C19 3292   1.684   4.041   5.317 -1.4246 -0.0230  0.3194
   29CHL1  H19A 3293   1.692   4.135   5.259  1.4927 -0.0960  0.4537
   29CHL1  H19B 3294   1.606   3.979   5.268 -0.4052 -1.0275 -0.0639
   29CHL1  H19C 3295   1.641   4.061   5.418  1.5597 -0.1302  1.7199
   29CHL1    C1 3296   1.802   3.818   5.386  0.0446 -0.5524  0.0514
   29CHL1   H1A 3297   1.710   3.776   5.340  0.5321 -0.9943 -0.5239
   29CHL1   H1B 3298   1.887   3.752   5.360 -0.0279 -0.6306  0.0150
   29CHL1    C2 3299   1.794   3.820   5.541  0.0774  0.0582 -0.4429
   29CHL1   H2A 3300   1.798   3.717   5.583 -0.5333  0.7368  1.3867
   29CHL1   H2B 3301   1.696   3.855   5.579 -0.7959 -1.6665 -1.0076
   29CHL1   C20 3302   1.869   3.956   4.610  0.3288 -0.5989  0.4728
   29CHL1   H20 3303   1.786   4.028   4.595  2.5012  2.2211  1.1295
   29CHL1   C21 3304   1.793   3.823   4.617 -0.5585 -0.1398  0.4292
   29CHL1  H21A 3305   1.856   3.746   4.668 -1.5247 -0.1225  1.7206
   29CHL1  H21B 3306   1.760   3.791   4.516  0.6923 -0.0294 -0.0292
   29CHL1  H21C 3307   1.698   3.820   4.676 -0.3868 -2.0908  0.6945
   29CHL1   C22 3308   1.970   3.967   4.492  0.1519  0.4708  0.0709
   29CHL1  H22A 3309   2.008   4.071   4.480  1.5963 -0.2039 -1.7775
   29CHL1  H22B 3310   2.058   3.902   4.510 -0.4084 -0.0532  0.9703
   29CHL1   C23 3311   1.904   3.945   4.350  0.5097  0.1097 -0.6612
   29CHL1  H23A 3312   1.879   3.838   4.341 -0.5165  0.3018 -0.2245
   29CHL1  H23B 3313   1.810   4.004   4.349  0.1339 -0.4193 -3.3681
   29CHL1   C24 3314   1.987   3.977   4.229 -0.2766  0.2547  0.0917
   29CHL1  H24A 3315   2.019   4.082   4.247 -1.9230  1.0064 -1.2109
   29CHL1  H24B 3316   2.077   3.911   4.231 -1.4895 -1.4822  2.0008
   29CHL1   C25 3317   1.919   3.983   4.091  0.7365 -0.5053  0.5306
   29CHL1   H25 3318   1.842   4.063   4.088  1.2968  0.0585 -2.8114
   29CHL1   C26 3319   2.026   4.029   3.984 -0.1662  0.3398 -1.0416
   29CHL1  H26A 3320   1.989   3.991   3.886 -0.4757 -2.9761  0.2289
   29CHL1  H26B 3321   2.020   4.140   3.987 -2.5860  0.2595 -0.6077
   29CHL1  H26C 3322   2.131   4.008   4.013  0.1925  3.8016  0.6278
   29CHL1   C27 3323   1.867   3.847   4.048  0.1477 -0.0962 -0.0449
   29CHL1  H27A 3324   1.788   3.832   4.125 -2.0012 -2.9499 -2.5183
   29CHL1  H27B 3325   1.826   3.864   3.946  1.0789 -0.6165 -0.5218
   29CHL1  H27C 3326   1.952   3.776   4.059  0.1638 -0.1806 -0.6657
   30CHL1    C3 3327   2.774   5.310   5.567  0.3675  0.1889  0.5601
   30CHL1    H3 3328   2.673   5.355   5.575 -0.0334 -0.7058  0.6774
   30CHL1    O3 3329   2.825   5.280   5.701 -0.5805  0.1381  0.8172
   30CHL1   H3' 3330   2.846   5.369   5.731 -0.7023  1.0813 -1.6453
   30CHL1    C4 3331   2.762   5.172   5.480 -0.0438  0.5287  0.2317
   30CHL1   H4A 3332   2.862   5.124   5.481 -0.1493  0.3110  0.2265
   30CHL1   H4B 3333   2.695   5.117   5.549  1.4981  0.0602  1.4293
   30CHL1    C5 3334   2.708   5.201   5.345  0.0813  0.3434 -0.2364
   30CHL1    C6 3335   2.588   5.163   5.302 -0.4309 -0.9692 -0.4559
   30CHL1    H6 3336   2.520   5.105   5.365  2.1827 -3.2158  0.4784
   30CHL1    C7 3337   2.542   5.185   5.159  0.3536 -0.0620 -0.4881
   30CHL1   H7A 3338   2.496   5.095   5.112 -3.2137  1.9532 -1.2082
   30CHL1   H7B 3339   2.469   5.268   5.163  2.0258  1.5690 -2.1350
   30CHL1    C8 3340   2.659   5.219   5.071 -0.1797  0.8896 -0.1674
   30CHL1    H8 3341   2.730   5.134   5.067  0.2671  1.2917 -1.9505
   30CHL1   C14 3342   2.611   5.250   4.927 -0.5450 -0.4946  0.4616
   30CHL1   H14 3343   2.543   5.338   4.929  1.6658  1.4954 -2.5450
   30CHL1   C15 3344   2.536   5.148   4.850 -0.3880 -0.4339  0.0529
   30CHL1  H15A 3345   2.599   5.057   4.855  2.1036  1.1895 -0.0735
   30CHL1  H15B 3346   2.438   5.134   4.901 -0.8809  0.5539 -0.5809
   30CHL1   C16 3347   2.533   5.196   4.703  0.0579  0.4243 -0.0705
   30CHL1  H16A 3348   2.567   5.115   4.635  0.3634 -0.3657  0.9921
   30CHL1  H16B 3349   2.429   5.229   4.680 -1.1026 -0.4449  3.3109
   30CHL1   C17 3350   2.632   5.317   4.698 -0.2448 -0.6546  0.3852
   30CHL1   H17 3351   2.579   5.410   4.725  0.7936 -0.1253  0.6677
   30CHL1   C13 3352   2.722   5.301   4.824  0.0299  0.2893 -0.3896
   30CHL1   C18 3353   2.820   5.187   4.789 -0.3605 -0.9987 -0.3613
   30CHL1  H18A 3354   2.910   5.221   4.733  0.8790 -1.1346  1.4597
   30CHL1  H18B 3355   2.848   5.140   4.885  1.0165  2.7863  1.2957
   30CHL1  H18C 3356   2.788   5.100   4.729 -1.8185 -1.0391  0.4373
   30CHL1   C12 3357   2.783   5.428   4.888 -0.6009 -0.7783  0.1199
   30CHL1  H12A 3358   2.852   5.483   4.822  1.0103 -1.1224  1.4516
   30CHL1  H12B 3359   2.708   5.509   4.895  0.4472  0.2099  0.0922
   30CHL1   C11 3360   2.849   5.403   5.028  0.1585 -0.3055 -0.3634
   30CHL1  H11A 3361   2.937   5.339   5.006  0.8864 -0.6532  3.0094
   30CHL1  H11B 3362   2.876   5.501   5.074 -0.3789 -0.9496  1.4150
   30CHL1    C9 3363   2.745   5.329   5.124 -0.2810 -0.9203  0.0303
   30CHL1    H9 3364   2.665   5.404   5.140 -0.3240 -0.7399 -0.9343
   30CHL1   C10 3365   2.809   5.296   5.263  0.5524 -0.3429 -1.3636
   30CHL1   C19 3366   2.941   5.220   5.238 -1.2728  0.7941  0.2505
   30CHL1  H19A 3367   3.020   5.288   5.199  0.7941 -2.0928 -0.9565
   30CHL1  H19B 3368   2.987   5.177   5.329 -1.2589  0.4584  0.0882
   30CHL1  H19C 3369   2.931   5.145   5.156  0.2689  2.0747 -1.1785
   30CHL1    C1 3370   2.840   5.427   5.346  0.1819  0.3333 -0.2579
   30CHL1   H1A 3371   2.918   5.491   5.301  1.0377 -0.2982  0.2893
   30CHL1   H1B 3372   2.747   5.489   5.341 -0.2376 -0.1817  0.8056
   30CHL1    C2 3373   2.874   5.405   5.491 -0.0842  0.2697  0.1110
   30CHL1   H2A 3374   2.869   5.504   5.541  1.0581 -0.0422  0.8924
   30CHL1   H2B 3375   2.978   5.365   5.496 -0.7392 -2.3483 -3.2395
   30CHL1   C20 3376   2.692   5.345   4.563 -0.1882  0.3154  0.8438
   30CHL1   H20 3377   2.749   5.257   4.527 -1.3828  0.0838 -0.5657
   30CHL1   C21 3378   2.799   5.454   4.572  0.7334  0.0655  0.8378
   30CHL1  H21A 3379   2.847   5.469   4.473 -0.9735 -3.2745 -0.6704
   30CHL1  H21B 3380   2.876   5.422   4.645 -0.5418 -0.9548  1.7682
   30CHL1  H21C 3381   2.751   5.548   4.607  0.2961  0.6665 -1.2417
   30CHL1   C22 3382   2.590   5.395   4.452  0.0022  0.0945 -0.3657
   30CHL1  H22A 3383   2.496   5.337   4.460 -0.0926  0.3694  0.6954
   30CHL1  H22B 3384   2.557   5.499   4.470  0.1671 -0.1218  1.3554
   30CHL1   C23 3385   2.651   5.382   4.312  0.2888  0.0802  0.9144
   30CHL1  H23A 3386   2.723   5.466   4.311 -1.7594  1.9446  1.5182
   30CHL1  H23B 3387   2.701   5.282   4.307  0.6293  0.3040 -0.5876
   30CHL1   C24 3388   2.552   5.398   4.196  0.0971  1.2939 -0.0395
   30CHL1  H24A 3389   2.503   5.498   4.202 -1.8522  0.4295 -0.8419
   30CHL1  H24B 3390   2.603   5.404   4.097  0.1418  0.1208 -0.1031
   30CHL1   C25 3391   2.442   5.283   4.185  0.7481 -0.0040  0.2959
   30CHL1   H25 3392   2.383   5.279   4.278  1.3693  1.3362  0.7754
   30CHL1   C26 3393   2.334   5.313   4.067  0.4042 -0.3128 -0.2819
   30CHL1  H26A 3394   2.393   5.335   3.975  1.0866  1.5628  0.5527
   30CHL1  H26B 3395   2.263   5.228   4.060  1.6975 -1.5887  1.2216
   30CHL1  H26C 3396   2.283   5.404   4.105  1.5959  0.6027 -0.8090
   30CHL1   C27 3397   2.502   5.139   4.168 -0.0555  0.0043  0.2506
   30CHL1  H27A 3398   2.579   5.143   4.088 -0.0532  0.2062  0.2603
   30CHL1  H27B 3399   2.557   5.121   4.263 -1.9878  1.3913  1.7083
   30CHL1  H27C 3400   2.424   5.064   4.144 -0.6452  0.0282  1.9369
   31CHL1    C3 3401   1.932   5.140   5.711  0.1323 -0.3709 -0.0795
   31CHL1    H3 3402   2.015   5.080   5.667  0.0658  0.5467 -1.5095
   31CHL1    O3 3403   1.959   5.163   5.848  1.0164  0.8861  0.2075
   31CHL1   H3' 3404   1.880   5.211   5.876  0.1935  0.5752 -1.4322
   31CHL1    C4 3405   1.926   5.269   5.630  0.0133  0.4654  0.4583
   31CHL1   H4A 3406   1.850   5.342   5.666 -0.4068 -0.1601  0.8506
   31CHL1   H4B 3407   2.022   5.324   5.642  0.6709 -0.2237 -1.4151
   31CHL1    C5 3408   1.901   5.239   5.484  0.6126 -0.4778  0.1735
   31CHL1    C6 3409   1.980   5.285   5.392  0.5993  0.1192  1.2109
   31CHL1    H6 3410   2.066   5.346   5.420  0.0450  1.1851  0.6571
   31CHL1    C7 3411   1.962   5.260   5.244 -0.2610  0.4680  0.3924
   31CHL1   H7A 3412   1.958   5.348   5.177 -0.1099 -0.6354 -1.1290
   31CHL1   H7B 3413   2.036   5.186   5.207 -1.5527 -0.4153 -0.4672
   31CHL1    C8 3414   1.829   5.188   5.215  0.4436 -0.4370 -0.2689
   31CHL1    H8 3415   1.754   5.269   5.206  0.8943 -0.1868 -2.2842
   31CHL1   C14 3416   1.834   5.119   5.087 -0.1779  0.0507 -0.3052
   31CHL1   H14 3417   1.918   5.047   5.093 -0.8344 -0.7106 -0.0532
   31CHL1   C15 3418   1.857   5.200   4.955  0.0065  0.0457 -0.3129
   31CHL1  H15A 3419   1.789   5.288   4.963  1.3413  1.0555  0.5611
   31CHL1  H15B 3420   1.963   5.233   4.950  0.2003 -0.2165  1.3373
   31CHL1   C16 3421   1.818   5.112   4.841  0.7610  0.5195  0.3681
   31CHL1  H16A 3422   1.748   5.167   4.774  0.6445 -0.8358 -0.6633
   31CHL1  H16B 3423   1.909   5.089   4.781  0.0595 -2.0569  0.1967
   31CHL1   C17 3424   1.745   4.989   4.912  0.2502  0.2831 -0.5433
   31CHL1   H17 3425   1.829   4.919   4.933 -0.0151  0.6583  2.0860
   31CHL1   C13 3426   1.708   5.039   5.054 -0.2151  0.1289 -0.5066
   31CHL1   C18 3427   1.577   5.133   5.043  0.0209 -0.4206  0.7968
   31CHL1  H18A 3428   1.567   5.194   5.136 -1.3015  0.3121  0.2085
   31CHL1  H18B 3429   1.582   5.194   4.951 -0.9846 -2.0952 -0.4504
   31CHL1  H18C 3430   1.491   5.063   5.036  0.0324 -0.3837  0.2988
   31CHL1   C12 3431   1.700   4.921   5.151 -0.0854 -0.1291 -0.2354
   31CHL1  H12A 3432   1.614   4.855   5.126 -0.3680  0.3824 -0.6216
   31CHL1  H12B 3433   1.796   4.865   5.153 -0.4095 -0.6846  0.3408
   31CHL1   C11 3434   1.682   4.980   5.290 -0.6712 -0.2908  0.1005
   31CHL1  H11A 3435   1.579   5.019   5.304  0.2992  1.7624  2.1697
   31CHL1  H11B 3436   1.695   4.889   5.351 -1.5342 -1.3711 -1.2583
   31CHL1    C9 3437   1.798   5.085   5.326  0.5397  0.4242  0.5267
   31CHL1    H9 3438   1.886   5.018   5.317 -1.0782 -1.8332  0.6680
   31CHL1   C10 3439   1.794   5.139   5.465  0.0210  0.4122 -0.2172
   31CHL1   C19 3440   1.659   5.213   5.476  0.0904  0.4242  0.2208
   31CHL1  H19A 3441   1.653   5.271   5.571 -0.1389  0.8917 -0.0740
   31CHL1  H19B 3442   1.631   5.277   5.390  0.3960  3.1450  2.0292
   31CHL1  H19C 3443   1.583   5.132   5.480 -0.1067  0.5705 -0.4857
   31CHL1    C1 3444   1.798   5.013   5.563 -0.1844  0.0055  0.6801
   31CHL1   H1A 3445   1.704   4.954   5.566 -1.2659  1.6151 -0.1991
   31CHL1   H1B 3446   1.879   4.950   5.520 -0.4158  0.1681 -0.0064
   31CHL1    C2 3447   1.816   5.051   5.702  0.2402 -0.1164  0.0141
   31CHL1   H2A 3448   1.837   4.956   5.757 -0.1622  0.2429  0.8117
   31CHL1   H2B 3449   1.722   5.092   5.745 -0.1334  0.9180 -1.6919
   31CHL1   C20 3450   1.641   4.926   4.819  0.4164  0.1348  0.2879
   31CHL1   H20 3451   1.561   5.003   4.808  1.4147  1.2819  0.7521
   31CHL1   C21 3452   1.575   4.802   4.874 -0.4541  0.1620 -0.3916
   31CHL1  H21A 3453   1.500   4.830   4.951 -0.5618 -2.0622  0.3922
   31CHL1  H21B 3454   1.641   4.727   4.922 -1.1040 -0.4274 -0.4037
   31CHL1  H21C 3455   1.520   4.744   4.797 -0.5151  0.0591 -0.2703
   31CHL1   C22 3456   1.705   4.897   4.677 -0.5090 -0.4646 -0.6035
   31CHL1  H22A 3457   1.737   4.992   4.630 -3.7192  0.7238 -0.6139
   31CHL1  H22B 3458   1.791   4.830   4.699 -2.7798 -2.9172  1.5079
   31CHL1   C23 3459   1.619   4.839   4.562  0.4301  0.1175  0.3689
   31CHL1  H23A 3460   1.546   4.770   4.609 -0.1338  0.3654 -0.1340
   31CHL1  H23B 3461   1.553   4.915   4.515 -0.1089 -1.2826 -1.2325
   31CHL1   C24 3462   1.697   4.779   4.444  0.3368  0.9250  0.3806
   31CHL1  H24A 3463   1.757   4.865   4.406  0.9952  1.4023  2.3431
   31CHL1  H24B 3464   1.764   4.702   4.488 -1.1253 -0.9575 -0.5624
   31CHL1   C25 3465   1.627   4.711   4.329 -0.0898  0.9368  0.0097
   31CHL1   H25 3466   1.564   4.632   4.375  1.1705  0.5576  1.1397
   31CHL1   C26 3467   1.528   4.798   4.263  0.7615 -0.8030  0.6221
   31CHL1  H26A 3468   1.465   4.860   4.331 -1.0075  1.3432 -2.6923
   31CHL1  H26B 3469   1.564   4.871   4.187 -1.4737  0.4465  0.6861
   31CHL1  H26C 3470   1.456   4.733   4.209  0.8305 -0.5567  0.2272
   31CHL1   C27 3471   1.728   4.658   4.221  0.5565  0.4683  0.2259
   31CHL1  H27A 3472   1.778   4.746   4.174  0.7921  1.1986  1.7674
   31CHL1  H27B 3473   1.805   4.586   4.254 -0.3825 -0.1651  1.0976
   31CHL1  H27C 3474   1.662   4.602   4.152  0.3832 -0.6593  1.2821
   32CHL1    C3 3475   4.188   1.148   5.614 -0.4004  0.3362 -0.4099
   32CHL1    H3 3476   4.284   1.093   5.607 -1.9670 -2.4655 -1.1869
   32CHL1    O3 3477   4.150   1.160   5.750 -0.1554 -0.2440 -0.0141
   32CHL1   H3' 3478   4.056   1.177   5.748 -0.2702 -0.5859  1.6709
   32CHL1    C4 3479   4.199   1.282   5.543 -0.7273 -0.9184  0.9502
   32CHL1   H4A 3480   4.099   1.328   5.559 -0.3365  0.9330 -1.3658
   32CHL1   H4B 3481   4.265   1.351   5.601  0.0715 -1.7160  1.0121
   32CHL1    C5 3482   4.225   1.275   5.392 -0.1046 -0.2822 -0.3906
   32CHL1    C6 3483   4.326   1.343   5.331  0.1488  0.0141 -0.1360
   32CHL1    H6 3484   4.381   1.418   5.391  2.0198 -1.0568 -0.4202
   32CHL1    C7 3485   4.372   1.323   5.189  0.5003 -0.1702  0.1924
   32CHL1   H7A 3486   4.375   1.423   5.142  0.4507  1.1355  2.7904
   32CHL1   H7B 3487   4.470   1.270   5.181  0.6507  0.0899  0.2827
   32CHL1    C8 3488   4.276   1.240   5.104 -0.3190  0.5912 -0.2159
   32CHL1    H8 3489   4.190   1.303   5.073 -0.8128 -0.4412 -1.0258
   32CHL1   C14 3490   4.340   1.185   4.971 -0.5987 -0.4768 -0.3431
   32CHL1   H14 3491   4.417   1.114   5.007  0.7680  1.1688  0.1427
   32CHL1   C15 3492   4.422   1.282   4.885  0.3475 -0.0596 -0.0150
   32CHL1  H15A 3493   4.361   1.374   4.879 -1.8849 -1.3351  1.5552
   32CHL1  H15B 3494   4.519   1.314   4.928  0.1275  1.6669 -0.7153
   32CHL1   C16 3495   4.430   1.212   4.750 -1.0544 -0.1719 -0.0922
   32CHL1  H16A 3496   4.419   1.283   4.665  0.9088 -1.3758 -1.4439
   32CHL1  H16B 3497   4.533   1.172   4.740 -1.1755 -1.2354  2.1972
   32CHL1   C17 3498   4.336   1.092   4.750  0.9507  0.0651 -0.3686
   32CHL1   H17 3499   4.400   1.008   4.783 -1.3783 -1.0760  1.5744
   32CHL1   C13 3500   4.246   1.121   4.875  0.3065  0.6735  0.2723
   32CHL1   C18 3501   4.132   1.214   4.830  0.2927 -0.5079 -0.5018
   32CHL1  H18A 3502   4.069   1.167   4.751  0.9556 -0.5904 -0.9893
   32CHL1  H18B 3503   4.061   1.239   4.912  0.4192 -0.9898 -0.2410
   32CHL1  H18C 3504   4.169   1.299   4.769  0.6619 -0.8109 -0.7094
   32CHL1   C12 3505   4.195   0.996   4.954 -0.4375  0.6830  0.0102
   32CHL1  H12A 3506   4.136   0.933   4.884  0.8697 -0.3029 -0.2417
   32CHL1  H12B 3507   4.281   0.930   4.978 -0.4540  0.4296 -0.5925
   32CHL1   C11 3508   4.129   1.030   5.088  0.5649  0.0204  0.2388
   32CHL1  H11A 3509   4.036   1.085   5.063 -0.5117 -1.2538  1.3111
   32CHL1  H11B 3510   4.115   0.931   5.135  0.0578 -0.4120 -0.7868
   32CHL1    C9 3511   4.220   1.121   5.189  0.1676  0.1312  1.2388
   32CHL1    H9 3512   4.310   1.060   5.214  0.4446 -0.0596 -0.1078
   32CHL1   C10 3513   4.156   1.156   5.320  0.4011 -0.0509 -0.4596
   32CHL1   C19 3514   4.013   1.207   5.281  0.5894 -0.7141  0.0000
   32CHL1  H19A 3515   4.007   1.275   5.193  0.5045 -0.1556  0.4298
   32CHL1  H19B 3516   3.958   1.117   5.247  0.9460 -0.2850 -1.8138
   32CHL1  H19C 3517   3.959   1.242   5.372  1.1967  1.1731 -0.3060
   32CHL1    C1 3518   4.145   1.029   5.407  0.4484  0.6650 -0.2978
   32CHL1   H1A 3519   4.071   0.959   5.364  0.1432  0.1924  0.9593
   32CHL1   H1B 3520   4.245   0.981   5.417  0.9545  1.6265 -0.5557
   32CHL1    C2 3521   4.096   1.045   5.548 -0.5432  0.0278  0.5920
   32CHL1   H2A 3522   4.090   0.950   5.605 -0.3181 -1.3488 -1.5641
   32CHL1   H2B 3523   3.994   1.085   5.536 -0.5393 -0.3665 -1.0419
   32CHL1   C20 3524   4.278   1.077   4.616  0.0513 -0.0017  0.5543
   32CHL1   H20 3525   4.216   1.163   4.580 -0.9794 -0.7567  0.4948
   32CHL1   C21 3526   4.173   0.961   4.617  0.2346 -0.0983  0.1082
   32CHL1  H21A 3527   4.125   0.943   4.518 -2.0742  2.0873  0.7130
   32CHL1  H21B 3528   4.080   0.977   4.676 -0.9730 -3.2979 -0.6923
   32CHL1  H21C 3529   4.213   0.876   4.676  1.3476  0.0949 -0.3526
   32CHL1   C22 3530   4.390   1.054   4.502 -0.6136 -0.0460 -0.2469
   32CHL1  H22A 3531   4.490   1.078   4.544  0.1775  0.8564 -2.4870
   32CHL1  H22B 3532   4.395   0.945   4.484 -1.7949 -0.4330  1.4075
   32CHL1   C23 3533   4.386   1.133   4.372 -0.0011  0.0329  0.3088
   32CHL1  H23A 3534   4.366   1.241   4.390 -3.1494 -0.1674 -1.3037
   32CHL1  H23B 3535   4.485   1.118   4.323  0.0821 -1.4892  0.9105
   32CHL1   C24 3536   4.280   1.086   4.271 -0.2112  0.7119  0.1817
   32CHL1  H24A 3537   4.193   1.082   4.339  0.8781  3.9689  1.9759
   32CHL1  H24B 3538   4.263   1.159   4.189  2.4702  2.9905  1.4687
   32CHL1   C25 3539   4.313   0.953   4.200 -0.6384 -0.1970  0.2807
   32CHL1   H25 3540   4.394   0.896   4.250 -1.7622 -0.9905  1.2562
   32CHL1   C26 3541   4.194   0.855   4.200  0.5079 -0.2218 -0.4630
   32CHL1  H26A 3542   4.152   0.845   4.302  0.4487  0.5132 -0.4050
   32CHL1  H26B 3543   4.120   0.916   4.145 -0.0526 -1.5484 -1.2217
   32CHL1  H26C 3544   4.216   0.759   4.150  2.1009  0.3836 -0.9828
   32CHL1   C27 3545   4.374   0.977   4.059 -0.4381 -0.1078  0.3652
   32CHL1  H27A 3546   4.409   0.885   4.008 -0.0768 -0.4102  1.1560
   32CHL1  H27B 3547   4.289   1.025   4.006 -0.1324  0.5996  0.5003
   32CHL1  H27C 3548   4.455   1.053   4.061  1.6494 -2.2232  2.2564
   33CHL1    C3 3549   1.151   3.789   5.875 -0.8150  0.5694 -0.1507
   33CHL1    H3 3550   1.041   3.799   5.875 -1.0595 -1.5696  0.8460
   33CHL1    O3 3551   1.202   3.766   6.008 -0.0261  0.0814 -0.1947
   33CHL1   H3' 3552   1.161   3.682   6.030 -1.0320  0.6314  0.1155
   33CHL1    C4 3553   1.182   3.659   5.792 -0.1031  0.1981 -0.5801
   33CHL1   H4A 3554   1.285   3.621   5.800  0.0288  0.1222 -2.2868
   33CHL1   H4B 3555   1.130   3.567   5.826  3.4131 -0.5327  3.5918
   33CHL1    C5 3556   1.169   3.670   5.638 -0.3020  0.6796  1.0965
   33CHL1    C6 3557   1.097   3.579   5.564  0.7264 -0.8914 -0.4063
   33CHL1    H6 3558   1.050   3.495   5.617 -1.4905 -0.8604 -2.1713
   33CHL1    C7 3559   1.103   3.565   5.419  0.3483 -0.1503  1.0701
   33CHL1   H7A 3560   1.119   3.460   5.386 -1.3665 -0.0884 -0.1117
   33CHL1   H7B 3561   1.012   3.607   5.370  0.5816  1.0699  1.6580
   33CHL1    C8 3562   1.226   3.649   5.357  0.3690 -0.4891 -0.2507
   33CHL1    H8 3563   1.323   3.595   5.370  0.0504 -0.6211  2.0021
   33CHL1   C14 3564   1.197   3.680   5.210 -0.5491 -0.8000  0.1115
   33CHL1   H14 3565   1.105   3.741   5.197 -0.4889 -0.1810  2.2540
   33CHL1   C15 3566   1.161   3.558   5.126  0.3667 -0.0346 -0.8008
   33CHL1  H15A 3567   1.204   3.462   5.162 -2.4788 -0.9148  0.5273
   33CHL1  H15B 3568   1.050   3.560   5.117  0.2366 -2.3233 -0.3472
   33CHL1   C16 3569   1.214   3.600   4.986 -0.1521 -0.1009 -0.4761
   33CHL1  H16A 3570   1.303   3.549   4.943  1.4818  1.6445  0.6607
   33CHL1  H16B 3571   1.129   3.602   4.914  1.3163  2.1305 -2.3084
   33CHL1   C17 3572   1.261   3.751   4.995 -0.0571 -0.9667 -0.2632
   33CHL1   H17 3573   1.176   3.823   4.985 -1.6231 -2.4294  1.6150
   33CHL1   C13 3574   1.305   3.759   5.133 -0.2101 -0.0806  0.4838
   33CHL1   C18 3575   1.448   3.688   5.142  0.5278  0.6165  0.7822
   33CHL1  H18A 3576   1.446   3.585   5.100  4.0904 -0.0112  1.8187
   33CHL1  H18B 3577   1.529   3.744   5.090  0.7797 -0.0043  0.4990
   33CHL1  H18C 3578   1.481   3.682   5.248  3.4031 -0.3216 -0.0660
   33CHL1   C12 3579   1.320   3.893   5.207  0.0066  0.1998 -0.5937
   33CHL1  H12A 3580   1.408   3.935   5.154  0.8976 -1.4728 -0.5072
   33CHL1  H12B 3581   1.237   3.966   5.191  0.3713  0.5595 -0.8750
   33CHL1   C11 3582   1.351   3.874   5.360 -0.2274  0.0750  0.2884
   33CHL1  H11A 3583   1.456   3.842   5.377  0.1026  1.0287  0.1359
   33CHL1  H11B 3584   1.351   3.973   5.409  2.0986  0.7902 -0.9951
   33CHL1    C9 3585   1.239   3.792   5.428  0.2974 -0.2487  0.1202
   33CHL1    H9 3586   1.144   3.848   5.414  0.9405  1.4031  1.8161
   33CHL1   C10 3587   1.255   3.787   5.580 -0.7323 -1.0216 -0.4057
   33CHL1   C19 3588   1.407   3.770   5.610  0.0136 -0.9290  0.4134
   33CHL1  H19A 3589   1.456   3.696   5.543  1.8680  2.0224 -1.7473
   33CHL1  H19B 3590   1.459   3.868   5.608 -1.0343 -0.2522  2.9180
   33CHL1  H19C 3591   1.425   3.752   5.718  0.8769  1.2884  0.6852
   33CHL1    C1 3592   1.198   3.911   5.649 -0.3490 -0.1707 -0.1399
   33CHL1   H1A 3593   1.259   3.997   5.615  1.1187 -1.7900 -1.8270
   33CHL1   H1B 3594   1.093   3.933   5.622 -0.4384 -0.4397 -0.0146
   33CHL1    C2 3595   1.214   3.909   5.803 -0.1624 -0.3194  0.0567
   33CHL1   H2A 3596   1.164   3.997   5.848 -0.2420 -0.8863  1.1184
   33CHL1   H2B 3597   1.323   3.907   5.826  0.2212  0.2331 -1.5501
   33CHL1   C20 3598   1.354   3.781   4.881 -0.3626  0.1117  1.2092
   33CHL1   H20 3599   1.443   3.716   4.891 -0.7171 -0.8536 -1.2869
   33CHL1   C21 3600   1.404   3.927   4.903  0.0986  1.1358  0.0766
   33CHL1  H21A 3601   1.424   3.973   4.803  1.8720 -3.4599 -1.9592
   33CHL1  H21B 3602   1.496   3.933   4.966  0.1474  2.3824 -0.0922
   33CHL1  H21C 3603   1.324   3.984   4.955  0.5226  0.6772  1.2678
   33CHL1   C22 3604   1.291   3.776   4.746 -0.3196 -0.1342  0.1282
   33CHL1  H22A 3605   1.216   3.695   4.733 -2.0478  1.4821 -0.3395
   33CHL1  H22B 3606   1.230   3.863   4.716 -3.6898 -2.3994 -0.1173
   33CHL1   C23 3607   1.395   3.766   4.627 -0.0415  0.4892 -0.3280
   33CHL1  H23A 3608   1.463   3.853   4.616  2.5835 -1.4257 -0.3213
   33CHL1  H23B 3609   1.464   3.678   4.634 -0.6350 -0.2457 -2.7091
   33CHL1   C24 3610   1.318   3.745   4.492  0.3490 -0.9953  0.4971
   33CHL1  H24A 3611   1.256   3.653   4.501  0.2803 -0.8752  1.3261
   33CHL1  H24B 3612   1.236   3.820   4.490 -0.6477 -2.0615 -0.4094
   33CHL1   C25 3613   1.397   3.761   4.363  0.8097  0.2632  0.3333
   33CHL1   H25 3614   1.336   3.750   4.271  0.2896  0.4566  0.6506
   33CHL1   C26 3615   1.451   3.907   4.354  0.5492 -0.1510 -0.1467
   33CHL1  H26A 3616   1.498   3.919   4.253  0.4726  0.1363 -0.1476
   33CHL1  H26B 3617   1.363   3.974   4.357 -0.8120 -1.8803  0.5909
   33CHL1  H26C 3618   1.524   3.930   4.435 -1.0145 -1.3087  1.6617
   33CHL1   C27 3619   1.509   3.655   4.360  0.1348 -0.3061  0.3736
   33CHL1  H27A 3620   1.599   3.678   4.421  1.9552 -1.7748 -1.5612
   33CHL1  H27B 3621   1.475   3.560   4.406 -0.8051  0.0803  0.4856
   33CHL1  H27C 3622   1.545   3.635   4.256 -2.8217 -0.8647 -0.6533
   34CHL1    C3 3623   2.064   5.812   5.665  0.7518 -0.2688 -0.2998
   34CHL1    H3 3624   2.162   5.777   5.628  0.1049 -3.4381  0.6275
   34CHL1    O3 3625   2.078   5.844   5.802 -0.0305 -0.2147 -0.6893
   34CHL1   H3' 3626   1.988   5.867   5.825 -0.0472  0.6694 -1.5270
   34CHL1    C4 3627   2.010   5.936   5.590 -0.4515  0.3760 -0.1129
   34CHL1   H4A 3628   1.910   5.960   5.632 -0.3742 -0.2319  0.4384
   34CHL1   H4B 3629   2.078   6.021   5.614 -0.1316 -0.2822  1.4314
   34CHL1    C5 3630   2.015   5.897   5.442 -0.0316 -0.7194  0.2329
   34CHL1    C6 3631   2.092   5.964   5.356 -0.0934  0.4145 -0.5391
   34CHL1    H6 3632   2.151   6.049   5.391 -2.2002  1.5548  0.4469
   34CHL1    C7 3633   2.084   5.936   5.213  0.1765 -0.6192 -0.3723
   34CHL1   H7A 3634   2.069   6.029   5.153 -1.1351  0.8682  2.0816
   34CHL1   H7B 3635   2.171   5.878   5.177  2.1024  2.3830 -0.9708
   34CHL1    C8 3636   1.963   5.853   5.165  0.1358  0.5663 -0.1871
   34CHL1    H8 3637   1.871   5.914   5.178 -0.3200 -0.4829  1.9167
   34CHL1   C14 3638   1.975   5.809   5.017 -0.7654 -0.0375  0.8660
   34CHL1   H14 3639   2.064   5.743   5.010 -0.9428 -0.2892  0.9336
   34CHL1   C15 3640   2.010   5.916   4.907 -0.2415 -0.7903  0.1514
   34CHL1  H15A 3641   1.952   6.010   4.915  1.8118  0.4267  1.8218
   34CHL1  H15B 3642   2.119   5.930   4.918 -0.0929 -2.6776  1.6118
   34CHL1   C16 3643   1.983   5.843   4.778  0.1330 -0.1833 -0.0593
   34CHL1  H16A 3644   1.916   5.905   4.714 -0.1195  1.5225  1.7612
   34CHL1  H16B 3645   2.073   5.833   4.714  0.1427 -0.0419 -0.0690
   34CHL1   C17 3646   1.905   5.710   4.814 -0.0544 -0.7209  0.2170
   34CHL1   H17 3647   1.983   5.631   4.820  0.4773 -0.2387 -0.3280
   34CHL1   C13 3648   1.854   5.737   4.960  0.4902  0.1280  0.0015
   34CHL1   C18 3649   1.737   5.833   4.959  0.3459 -0.2051 -0.0008
   34CHL1  H18A 3650   1.700   5.859   5.061 -0.3494  0.1600 -0.3336
   34CHL1  H18B 3651   1.755   5.924   4.898  0.1590 -1.5952 -2.2307
   34CHL1  H18C 3652   1.657   5.774   4.909 -0.4562 -0.7673  1.8467
   34CHL1   C12 3653   1.833   5.616   5.056 -0.9112 -0.3423 -0.5992
   34CHL1  H12A 3654   1.750   5.545   5.034  1.1319 -2.8001 -0.8641
   34CHL1  H12B 3655   1.928   5.560   5.040 -1.0607 -0.2794 -1.7678
   34CHL1   C11 3656   1.816   5.650   5.207 -0.0567  0.7405  0.3119
   34CHL1  H11A 3657   1.717   5.699   5.210 -0.5283 -0.2305  3.2366
   34CHL1  H11B 3658   1.805   5.552   5.258 -0.2249 -0.5725 -2.1060
   34CHL1    C9 3659   1.933   5.738   5.262 -0.5721 -0.1250  0.3411
   34CHL1    H9 3660   2.021   5.671   5.270  0.7411  1.2002 -2.0293
   34CHL1   C10 3661   1.916   5.783   5.411 -0.6918 -0.0312 -0.2673
   34CHL1   C19 3662   1.768   5.824   5.439 -0.0835 -0.2310  0.0510
   34CHL1  H19A 3663   1.716   5.731   5.408  0.8361 -0.9124  0.5247
   34CHL1  H19B 3664   1.748   5.847   5.546  0.9708  1.7221 -0.1201
   34CHL1  H19C 3665   1.736   5.908   5.373 -2.9628 -0.6084  0.8094
   34CHL1    C1 3666   1.952   5.659   5.502 -0.2159  0.7038  0.2603
   34CHL1   H1A 3667   1.868   5.587   5.489  0.4557 -0.4437  1.9735
   34CHL1   H1B 3668   2.049   5.621   5.464 -0.0105  0.6874  0.7933
   34CHL1    C2 3669   1.975   5.696   5.656  0.5841  0.5351  0.2333
   34CHL1   H2A 3670   2.012   5.605   5.708  1.3653  0.4887 -0.3810
   34CHL1   H2B 3671   1.872   5.719   5.690  0.4133 -0.4451  0.4179
   34CHL1   C20 3672   1.809   5.675   4.705  0.0625  0.2933 -0.5120
   34CHL1   H20 3673   1.726   5.749   4.705 -0.3977 -0.1461 -2.9366
   34CHL1   C21 3674   1.746   5.536   4.739  0.0142 -0.0653 -0.3796
   34CHL1  H21A 3675   1.672   5.489   4.671 -1.4318 -0.2663  1.2517
   34CHL1  H21B 3676   1.689   5.533   4.834 -2.2615 -0.8116 -1.6833
   34CHL1  H21C 3677   1.836   5.472   4.746  1.9432  2.5832  0.9539
   34CHL1   C22 3678   1.881   5.669   4.570  0.0379  0.0914 -0.5976
   34CHL1  H22A 3679   1.937   5.760   4.543  1.2793 -0.8446 -1.2777
   34CHL1  H22B 3680   1.952   5.584   4.581 -2.6831 -2.1851  1.1771
   34CHL1   C23 3681   1.786   5.637   4.453  0.1838 -0.7991 -0.6744
   34CHL1  H23A 3682   1.724   5.547   4.473 -1.3917  0.6767  1.4507
   34CHL1  H23B 3683   1.719   5.725   4.449 -0.3562 -1.2202 -1.2247
   34CHL1   C24 3684   1.866   5.630   4.319  0.0147 -0.0160 -0.9857
   34CHL1  H24A 3685   1.927   5.719   4.295  0.9326  0.6678  3.1287
   34CHL1  H24B 3686   1.942   5.551   4.339  0.0843  0.1178 -0.7115
   34CHL1   C25 3687   1.783   5.597   4.192  0.0115 -0.2721  0.3567
   34CHL1   H25 3688   1.696   5.532   4.216 -1.5448  1.5345 -0.2022
   34CHL1   C26 3689   1.736   5.737   4.146  0.5120 -0.1010  0.0677
   34CHL1  H26A 3690   1.827   5.796   4.125  1.0470 -0.5675  1.0197
   34CHL1  H26B 3691   1.681   5.718   4.051  1.7428 -0.3883 -0.6155
   34CHL1  H26C 3692   1.673   5.777   4.227  0.5467  0.5305 -0.2148
   34CHL1   C27 3693   1.872   5.536   4.071  0.0953 -0.2659  0.2321
   34CHL1  H27A 3694   1.927   5.446   4.106 -0.7759 -1.2518 -0.8381
   34CHL1  H27B 3695   1.813   5.514   3.979  1.8277  1.3990 -1.3673
   34CHL1  H27C 3696   1.949   5.609   4.038  0.8273 -0.9128  0.4714
   35CHL1    C3 3697   2.617   6.043   5.824  0.0722 -0.3745  0.0351
   35CHL1    H3 3698   2.723   6.062   5.849 -0.6444  2.9716  0.9336
   35CHL1    O3 3699   2.540   6.071   5.944  0.0063  0.4177 -0.8054
   35CHL1   H3' 3700   2.588   6.033   6.018  2.2817  2.1388 -1.3007
   35CHL1    C4 3701   2.584   6.150   5.717 -0.1580  0.8577 -0.3356
   35CHL1   H4A 3702   2.474   6.160   5.707 -0.2812 -0.9486 -0.9462
   35CHL1   H4B 3703   2.628   6.245   5.755  0.6516  0.2770  0.2188
   35CHL1    C5 3704   2.629   6.110   5.575  0.0064 -0.6365  0.6644
   35CHL1    C6 3705   2.697   6.208   5.502  0.5394  0.3748  0.9257
   35CHL1    H6 3706   2.728   6.306   5.541 -1.0533  0.8598  1.0729
   35CHL1    C7 3707   2.742   6.181   5.360  0.0433 -0.2809  0.1484
   35CHL1   H7A 3708   2.736   6.274   5.300  1.4248 -0.8314 -0.8904
   35CHL1   H7B 3709   2.848   6.147   5.368  0.5460  1.5892  3.0104
   35CHL1    C8 3710   2.652   6.070   5.296 -1.1141 -0.2328  0.7632
   35CHL1    H8 3711   2.550   6.114   5.287  0.0123  2.7890  1.6078
   35CHL1   C14 3712   2.707   6.042   5.149  0.4381  0.6455 -0.1635
   35CHL1   H14 3713   2.811   6.007   5.170 -0.6041 -2.1834  0.7687
   35CHL1   C15 3714   2.729   6.157   5.049  0.3645 -0.0062  0.4268
   35CHL1  H15A 3715   2.638   6.214   5.080  0.6061  0.8199 -0.3368
   35CHL1  H15B 3716   2.823   6.214   5.066  0.2379  0.0342  1.0284
   35CHL1   C16 3717   2.716   6.091   4.917 -0.3521 -0.0297  0.2738
   35CHL1  H16A 3718   2.622   6.132   4.874 -0.1698  0.2231  0.1142
   35CHL1  H16B 3719   2.794   6.120   4.844 -2.0082 -2.7767 -2.8187
   35CHL1   C17 3720   2.703   5.939   4.943  0.1985 -0.0896  0.2627
   35CHL1   H17 3721   2.808   5.912   4.967 -0.9348 -2.6797  2.8093
   35CHL1   C13 3722   2.630   5.930   5.075 -0.3459 -0.0594  0.5869
   35CHL1   C18 3723   2.473   5.962   5.057 -0.0118  0.2276  0.3703
   35CHL1  H18A 3724   2.414   5.976   5.151 -3.2123 -0.4248 -1.3808
   35CHL1  H18B 3725   2.452   6.049   4.991  0.7215 -0.5890 -0.9759
   35CHL1  H18C 3726   2.427   5.872   5.012  0.2758  0.1823  0.1688
   35CHL1   C12 3727   2.646   5.803   5.159  0.3787 -0.0675  0.3164
   35CHL1  H12A 3728   2.594   5.719   5.108  1.4455 -2.1044  2.3768
   35CHL1  H12B 3729   2.750   5.763   5.154  0.2049 -0.3549 -1.9627
   35CHL1   C11 3730   2.601   5.819   5.310 -0.5727 -0.2537 -0.1074
   35CHL1  H11A 3731   2.490   5.828   5.304 -0.5484 -0.2780 -0.5753
   35CHL1  H11B 3732   2.614   5.721   5.361  0.9815  0.7923  1.6195
   35CHL1    C9 3733   2.652   5.945   5.386  0.1509 -0.1524 -0.9515
   35CHL1    H9 3734   2.760   5.931   5.405 -0.4273 -2.1049  1.3474
   35CHL1   C10 3735   2.592   5.971   5.526 -0.2928  0.0112  0.0633
   35CHL1   C19 3736   2.434   5.965   5.506  0.4643  0.5976  0.1279
   35CHL1  H19A 3737   2.401   6.016   5.413 -0.2170  1.2943  0.7366
   35CHL1  H19B 3738   2.410   5.857   5.498 -0.4896  0.8437 -0.4480
   35CHL1  H19C 3739   2.369   6.011   5.583  1.3354 -0.0671  1.3062
   35CHL1    C1 3740   2.645   5.877   5.636  0.5170  0.1899 -0.0900
   35CHL1   H1A 3741   2.615   5.780   5.590 -0.4037  0.4646 -0.0964
   35CHL1   H1B 3742   2.756   5.881   5.638  0.4927  0.8672  2.3600
   35CHL1    C2 3743   2.589   5.900   5.773  0.5237 -0.6620  0.8129
   35CHL1   H2A 3744   2.639   5.824   5.836  0.2386 -2.5620 -1.1274
   35CHL1   H2B 3745   2.478   5.893   5.771  0.4817 -0.0604  0.5511
   35CHL1   C20 3746   2.648   5.851   4.833 -0.5589 -0.2608  0.7284
   35CHL1   H20 3747   2.596   5.766   4.882 -1.5759  0.3613  0.7660
   35CHL1   C21 3748   2.781   5.789   4.779  0.0792 -0.1891 -0.0094
   35CHL1  H21A 3749   2.758   5.737   4.683  2.0860  0.0184 -0.6593
   35CHL1  H21B 3750   2.828   5.722   4.854  2.4426  0.1945 -1.0343
   35CHL1  H21C 3751   2.847   5.875   4.753 -0.6488  0.4494  0.2411
   35CHL1   C22 3752   2.560   5.919   4.724  0.1365 -0.8336  0.3911
   35CHL1  H22A 3753   2.477   5.976   4.770  2.5179  3.8366 -0.5355
   35CHL1  H22B 3754   2.620   5.994   4.668  0.3302 -2.7722 -2.1914
   35CHL1   C23 3755   2.503   5.816   4.629 -0.1391 -0.1148 -0.5538
   35CHL1  H23A 3756   2.577   5.749   4.579 -0.3405 -0.9047  0.1673
   35CHL1  H23B 3757   2.436   5.746   4.685  1.5554 -3.8160 -2.7358
   35CHL1   C24 3758   2.424   5.871   4.502  0.3533 -0.3845 -0.1073
   35CHL1  H24A 3759   2.335   5.932   4.530 -2.1355 -2.9768 -1.7757
   35CHL1  H24B 3760   2.506   5.925   4.449 -0.9271  1.3029 -0.4737
   35CHL1   C25 3761   2.375   5.752   4.408 -0.1882 -0.6409  0.4312
   35CHL1   H25 3762   2.462   5.685   4.392 -0.6970 -0.9917 -1.0256
   35CHL1   C26 3763   2.251   5.678   4.469 -0.1933  0.3613 -0.6379
   35CHL1  H26A 3764   2.218   5.586   4.416  1.3261 -0.2539 -0.5611
   35CHL1  H26B 3765   2.283   5.651   4.572 -1.2784 -1.4733 -0.7330
   35CHL1  H26C 3766   2.165   5.749   4.467 -0.8161 -0.3534 -3.6420
   35CHL1   C27 3767   2.340   5.806   4.265  0.0036 -0.0732  0.4350
   35CHL1  H27A 3768   2.252   5.874   4.275 -0.1155 -0.1241 -0.2208
   35CHL1  H27B 3769   2.426   5.849   4.210  0.9509 -0.6661  1.4214
   35CHL1  H27C 3770   2.309   5.714   4.212 -1.3942  0.5852  0.0387
   36CHL1    C3 3771   0.812   3.845   5.685 -0.2045 -0.4664 -0.0846
   36CHL1    H3 3772   0.918   3.813   5.676 -0.6051 -1.2498 -3.3804
   36CHL1    O3 3773   0.766   3.791   5.807  0.2253  0.5130  0.0442
   36CHL1   H3' 3774   0.673   3.815   5.800 -0.0764  0.0522  1.9479
   36CHL1    C4 3775   0.799   3.992   5.687 -0.2857 -0.2727  0.7102
   36CHL1   H4A 3776   0.694   4.019   5.711 -1.3045 -2.8677 -0.4808
   36CHL1   H4B 3777   0.850   4.046   5.771 -0.5108  0.8705  0.1298
   36CHL1    C5 3778   0.847   4.054   5.553  0.2211 -0.4522 -0.5481
   36CHL1    C6 3779   0.945   4.148   5.549  0.0864  0.6184  0.2659
   36CHL1    H6 3780   0.968   4.185   5.650 -1.4185 -0.5447  1.0888
   36CHL1    C7 3781   0.991   4.215   5.419  1.1433  0.0176  0.0226
   36CHL1   H7A 3782   0.987   4.324   5.438  1.4059 -0.1369  1.0308
   36CHL1   H7B 3783   1.098   4.186   5.410  0.9930 -0.7780  0.6893
   36CHL1    C8 3784   0.913   4.177   5.287 -0.1771  0.0133 -0.0276
   36CHL1    H8 3785   0.822   4.239   5.276 -0.6765 -0.7578 -0.3130
   36CHL1   C14 3786   1.000   4.196   5.164 -0.3232  0.1527  0.1775
   36CHL1   H14 3787   1.095   4.138   5.174 -1.1030 -1.2226 -0.1398
   36CHL1   C15 3788   1.044   4.345   5.135 -0.1606  0.7384 -0.4563
   36CHL1  H15A 3789   0.960   4.416   5.155  0.9024  1.2052  2.9506
   36CHL1  H15B 3790   1.120   4.358   5.215 -2.0227  0.1908  1.5038
   36CHL1   C16 3791   1.087   4.339   4.983 -0.2814  0.3775  0.7045
   36CHL1  H16A 3792   1.021   4.418   4.940 -0.2659 -0.2698 -0.5350
   36CHL1  H16B 3793   1.197   4.350   4.981 -0.1955  0.1095  2.4762
   36CHL1   C17 3794   1.044   4.201   4.921 -0.1810  0.8425  0.1723
   36CHL1   H17 3795   1.136   4.138   4.923 -1.2262 -0.7228  1.5450
   36CHL1   C13 3796   0.944   4.153   5.025  0.3401  0.0786  0.3258
   36CHL1   C18 3797   0.807   4.230   4.994  0.4677  0.4405 -0.6798
   36CHL1  H18A 3798   0.745   4.231   5.086 -0.7715 -1.1389 -1.4392
   36CHL1  H18B 3799   0.828   4.334   4.959 -1.3742  0.9850 -0.2797
   36CHL1  H18C 3800   0.747   4.167   4.924 -2.0317 -0.6316  2.2017
   36CHL1   C12 3801   0.921   4.005   5.036  0.3075 -0.1504  0.5625
   36CHL1  H12A 3802   0.878   3.963   4.943  0.1565  0.8173  0.1879
   36CHL1  H12B 3803   1.021   3.959   5.047  0.2951 -0.9830 -2.1338
   36CHL1   C11 3804   0.845   3.976   5.160  0.2120  0.0219 -0.3847
   36CHL1  H11A 3805   0.743   4.011   5.133 -0.2600 -1.3950 -0.4769
   36CHL1  H11B 3806   0.845   3.865   5.159 -0.7151  0.0071  0.3449
   36CHL1    C9 3807   0.888   4.028   5.294 -0.3407 -0.2737 -0.6449
   36CHL1    H9 3808   0.988   3.986   5.320  0.2006  1.0863 -0.4213
   36CHL1   C10 3809   0.799   3.984   5.421 -0.1952 -0.2487  0.6388
   36CHL1   C19 3810   0.650   4.012   5.393 -0.8369  1.1368 -0.3533
   36CHL1  H19A 3811   0.615   3.935   5.321  0.2170  0.6117 -0.3244
   36CHL1  H19B 3812   0.592   3.985   5.484 -1.5621 -1.0804 -1.3861
   36CHL1  H19C 3813   0.633   4.113   5.351  1.0811  1.9306  0.6174
   36CHL1    C1 3814   0.813   3.829   5.440 -0.2128  0.0757 -0.8914
   36CHL1   H1A 3815   0.768   3.778   5.351 -1.0743 -1.4506  0.3587
   36CHL1   H1B 3816   0.918   3.799   5.459 -1.2132 -2.6503  1.1606
   36CHL1    C2 3817   0.747   3.775   5.565  0.1923 -0.2045 -0.3784
   36CHL1   H2A 3818   0.759   3.664   5.573  0.9747 -0.0972  0.0705
   36CHL1   H2B 3819   0.637   3.789   5.566  0.1480  0.0034 -3.0319
   36CHL1   C20 3820   1.006   4.210   4.774 -0.1727 -0.2594 -0.0024
   36CHL1   H20 3821   0.909   4.263   4.758  0.2960  0.6563  0.1394
   36CHL1   C21 3822   0.997   4.066   4.706  0.0333 -0.0241 -0.5792
   36CHL1  H21A 3823   1.014   4.079   4.597  1.1095 -0.1203 -0.4384
   36CHL1  H21B 3824   0.894   4.040   4.737  0.7757 -1.1500  1.1071
   36CHL1  H21C 3825   1.064   3.994   4.758 -0.8157  0.1451  0.8159
   36CHL1   C22 3826   1.097   4.301   4.689  0.2038 -0.7180  0.1008
   36CHL1  H22A 3827   1.062   4.285   4.585 -2.6749  1.3935  0.6218
   36CHL1  H22B 3828   1.075   4.409   4.702 -1.2864 -0.8744 -0.8559
   36CHL1   C23 3829   1.247   4.272   4.695 -0.4126 -0.3591  0.1184
   36CHL1  H23A 3830   1.279   4.246   4.798  0.7969 -0.9317 -0.3714
   36CHL1  H23B 3831   1.276   4.190   4.625 -1.2744  0.0991 -0.8086
   36CHL1   C24 3832   1.338   4.389   4.659  0.5949 -0.5793  0.2659
   36CHL1  H24A 3833   1.302   4.443   4.569 -0.0774 -1.6457 -0.1365
   36CHL1  H24B 3834   1.342   4.459   4.744  0.5393  0.7362 -0.7904
   36CHL1   C25 3835   1.477   4.336   4.630  0.0618 -0.6190  0.7393
   36CHL1   H25 3836   1.488   4.233   4.671 -1.4427 -1.5634 -1.1082
   36CHL1   C26 3837   1.499   4.304   4.482  0.6431  0.1362 -0.0252
   36CHL1  H26A 3838   1.594   4.247   4.470 -0.0196 -1.3050  1.1702
   36CHL1  H26B 3839   1.414   4.244   4.442  1.6994 -1.6681  0.3092
   36CHL1  H26C 3840   1.506   4.397   4.423  2.0811 -0.3930 -0.7314
   36CHL1   C27 3841   1.594   4.418   4.686 -0.1733 -0.4060 -0.5697
   36CHL1  H27A 3842   1.594   4.516   4.632 -0.0095 -0.7444 -1.1940
   36CHL1  H27B 3843   1.588   4.426   4.797  1.8267  1.9457 -0.5439
   36CHL1  H27C 3844   1.684   4.357   4.665  0.1413 -0.7399  1.5298
   37CHL1    C3 3845   0.696   2.151   5.552  0.3680 -0.3911 -0.0843
   37CHL1    H3 3846   0.588   2.168   5.533  0.2683 -1.0596 -0.1370
   37CHL1    O3 3847   0.728   2.136   5.691  0.0158 -0.3449  0.1279
   37CHL1   H3' 3848   0.668   2.201   5.728  0.6650  0.8782 -0.9052
   37CHL1    C4 3849   0.750   2.034   5.469  0.0731  0.0464  0.2061
   37CHL1   H4A 3850   0.860   2.042   5.486  0.6153 -1.7443 -1.9130
   37CHL1   H4B 3851   0.722   1.934   5.510 -0.4340 -0.4675 -1.3443
   37CHL1    C5 3852   0.732   2.044   5.322  0.4046 -0.3842  0.2015
   37CHL1    C6 3853   0.662   1.954   5.246  0.0482  0.2778 -0.1682
   37CHL1    H6 3854   0.625   1.869   5.305 -1.3083  0.2174 -1.0756
   37CHL1    C7 3855   0.639   1.967   5.102  0.7438  0.5310 -0.7506
   37CHL1   H7A 3856   0.672   1.869   5.062  1.7259  1.0990 -1.3688
   37CHL1   H7B 3857   0.529   1.979   5.099  0.5229 -0.1488  1.8605
   37CHL1    C8 3858   0.723   2.072   5.033 -0.3939 -0.0204  0.7576
   37CHL1    H8 3859   0.823   2.027   5.014 -0.2279  0.1876  1.1216
   37CHL1   C14 3860   0.659   2.113   4.899  0.4355  0.4631 -0.1263
   37CHL1   H14 3861   0.565   2.161   4.937 -1.2691 -2.4238 -0.4269
   37CHL1   C15 3862   0.597   2.003   4.808  0.0792 -0.5250  0.6353
   37CHL1  H15A 3863   0.665   1.917   4.788  0.2456 -0.2950  0.2076
   37CHL1  H15B 3864   0.501   1.962   4.845 -1.1269  0.8765 -0.7978
   37CHL1   C16 3865   0.577   2.077   4.675  0.3635 -0.8156  0.7465
   37CHL1  H16A 3866   0.644   2.030   4.600 -0.0633  1.9095 -1.5106
   37CHL1  H16B 3867   0.471   2.074   4.643  0.3058 -0.1523  0.8463
   37CHL1   C17 3868   0.640   2.222   4.690  0.3315  0.6182  0.2465
   37CHL1   H17 3869   0.558   2.294   4.708 -0.4438 -0.0834 -0.4062
   37CHL1   C13 3870   0.728   2.212   4.819 -0.2006  0.1390 -0.9895
   37CHL1   C18 3871   0.864   2.155   4.779  0.1280  0.2344  0.1459
   37CHL1  H18A 3872   0.933   2.131   4.862  2.0358 -0.3924 -1.5564
   37CHL1  H18B 3873   0.854   2.063   4.718  2.8732  1.2791 -2.1103
   37CHL1  H18C 3874   0.927   2.228   4.724  1.6128 -2.6591 -2.2403
   37CHL1   C12 3875   0.759   2.339   4.899  0.3745 -0.2277  0.1076
   37CHL1  H12A 3876   0.819   2.416   4.847 -0.2583 -1.0161 -1.8667
   37CHL1  H12B 3877   0.658   2.384   4.911  0.8090  0.1488  3.3383
   37CHL1   C11 3878   0.817   2.310   5.038  0.6936  0.9850  0.6213
   37CHL1  H11A 3879   0.924   2.284   5.033 -0.0732 -2.3634 -3.2638
   37CHL1  H11B 3880   0.818   2.409   5.089 -0.9993  2.0454 -1.2294
   37CHL1    C9 3881   0.737   2.206   5.115  0.2267  0.4618 -0.5066
   37CHL1    H9 3882   0.631   2.238   5.121  0.2538  0.2993  1.2297
   37CHL1   C10 3883   0.782   2.177   5.262 -1.3109  0.3355 -0.0952
   37CHL1   C19 3884   0.942   2.159   5.266  0.6547 -0.6450  0.0916
   37CHL1  H19A 3885   0.978   2.088   5.188 -0.2119  0.6300 -1.5234
   37CHL1  H19B 3886   0.990   2.255   5.238 -1.7951  0.6712  0.1608
   37CHL1  H19C 3887   0.982   2.132   5.366 -2.1052  1.2428  1.8304
   37CHL1    C1 3888   0.739   2.302   5.350 -0.3463 -0.1526  1.1175
   37CHL1   H1A 3889   0.791   2.388   5.302  2.5638 -1.5537  1.4997
   37CHL1   H1B 3890   0.630   2.317   5.337 -0.5141 -1.6789  0.5824
   37CHL1    C2 3891   0.759   2.285   5.498 -0.3713 -0.0132 -0.1246
   37CHL1   H2A 3892   0.716   2.376   5.545  1.3576  0.7901 -0.0054
   37CHL1   H2B 3893   0.865   2.277   5.532 -1.6119 -0.1174  4.3392
   37CHL1   C20 3894   0.699   2.273   4.555  0.4821 -0.2349 -0.5841
   37CHL1   H20 3895   0.789   2.209   4.543  1.5636  0.9407  0.9333
   37CHL1   C21 3896   0.752   2.414   4.581  0.0117 -1.1583 -0.7692
   37CHL1  H21A 3897   0.799   2.450   4.487 -2.8316  0.0194 -1.8631
   37CHL1  H21B 3898   0.829   2.423   4.661 -0.7045  2.9651 -0.3304
   37CHL1  H21C 3899   0.677   2.494   4.601 -0.1754 -1.1464 -1.5014
   37CHL1   C22 3900   0.602   2.258   4.435 -0.3090 -0.1073 -0.1768
   37CHL1  H22A 3901   0.551   2.161   4.420  0.5497 -0.8113  1.2908
   37CHL1  H22B 3902   0.513   2.326   4.438 -0.8757 -0.8359 -0.3040
   37CHL1   C23 3903   0.672   2.277   4.302 -0.9436  0.1706  0.0739
   37CHL1  H23A 3904   0.703   2.384   4.297  1.4908 -0.5072 -1.3572
   37CHL1  H23B 3905   0.770   2.226   4.310 -0.4379  1.2523  0.9688
   37CHL1   C24 3906   0.596   2.231   4.175 -0.0440 -0.0972 -0.2097
   37CHL1  H24A 3907   0.665   2.240   4.089  0.6267 -1.9960  0.0866
   37CHL1  H24B 3908   0.561   2.125   4.177  0.4241 -0.2755 -0.9658
   37CHL1   C25 3909   0.468   2.321   4.147 -0.2769 -0.5762 -0.1766
   37CHL1   H25 3910   0.414   2.336   4.244  0.9423  0.2420  0.3988
   37CHL1   C26 3911   0.522   2.446   4.095  0.4059  0.0783  0.7109
   37CHL1  H26A 3912   0.441   2.507   4.048  0.8547 -1.7732 -2.8243
   37CHL1  H26B 3913   0.578   2.503   4.172  0.9370  0.1789  0.2650
   37CHL1  H26C 3914   0.587   2.429   4.006 -0.6681 -1.5736  0.1956
   37CHL1   C27 3915   0.380   2.253   4.036  0.0601 -1.0636 -0.1392
   37CHL1  H27A 3916   0.348   2.149   4.059  1.2571 -1.5297 -0.4936
   37CHL1  H27B 3917   0.288   2.316   4.036  0.7045 -0.0921  0.2194
   37CHL1  H27C 3918   0.429   2.258   3.937  0.3003 -0.4115  0.0033
   38CHL1    C3 3919   2.937   0.436   5.470  0.3454  0.1861 -0.0767
   38CHL1    H3 3920   2.890   0.340   5.440  1.6350 -1.1620  1.9263
   38CHL1    O3 3921   2.985   0.428   5.602 -0.4552 -0.1484 -0.1822
   38CHL1   H3' 3922   3.040   0.350   5.608 -2.6352 -1.9238 -1.7400
   38CHL1    C4 3923   3.055   0.446   5.374 -0.7434 -0.8107 -0.7192
   38CHL1   H4A 3924   3.105   0.541   5.402 -0.0128 -1.1342 -0.9049
   38CHL1   H4B 3925   3.135   0.369   5.383  0.9857  1.0485  0.7858
   38CHL1    C5 3926   3.011   0.466   5.231 -0.1636 -0.0185 -0.0080
   38CHL1    C6 3927   3.050   0.376   5.135 -0.4171  0.0376 -0.6095
   38CHL1    H6 3928   3.130   0.306   5.162 -1.0341 -1.1659 -1.8074
   38CHL1    C7 3929   3.014   0.379   4.987 -0.3938 -0.1375 -0.7864
   38CHL1   H7A 3930   3.102   0.360   4.922 -0.5417  0.2788 -1.1151
   38CHL1   H7B 3931   2.941   0.304   4.950  0.7771 -0.7238 -1.9782
   38CHL1    C8 3932   2.945   0.519   4.952  0.2187  0.8478 -0.1633
   38CHL1    H8 3933   3.020   0.600   4.964 -1.7842  2.6027  0.9986
   38CHL1   C14 3934   2.897   0.519   4.809  0.0682 -0.0525 -0.4404
   38CHL1   H14 3935   2.825   0.434   4.800 -1.7012  1.4542 -1.0374
   38CHL1   C15 3936   2.996   0.507   4.694  0.5127 -0.4606 -0.2524
   38CHL1  H15A 3937   3.082   0.575   4.710 -0.5302  0.3198  2.6846
   38CHL1  H15B 3938   3.035   0.405   4.675 -4.2955 -2.7555  0.5479
   38CHL1   C16 3939   2.913   0.549   4.566  0.4605  0.1911 -1.1305
   38CHL1  H16A 3940   2.989   0.608   4.510  0.9339  1.4043  0.7089
   38CHL1  H16B 3941   2.878   0.459   4.512 -1.9612  0.5066 -0.2180
   38CHL1   C17 3942   2.784   0.621   4.628  0.0168  0.9478  0.4609
   38CHL1   H17 3943   2.717   0.533   4.632  0.0127  0.8364 -1.2983
   38CHL1   C13 3944   2.819   0.645   4.775  0.1577  0.1937  0.3146
   38CHL1   C18 3945   2.905   0.774   4.795  0.5683 -0.4318 -0.1682
   38CHL1  H18A 3946   3.001   0.766   4.741  0.6531 -1.4889  0.1181
   38CHL1  H18B 3947   2.847   0.859   4.754 -2.3855 -2.3333 -0.2602
   38CHL1  H18C 3948   2.927   0.811   4.897 -2.0293  2.8399 -0.6252
   38CHL1   C12 3949   2.688   0.648   4.859 -0.1977  0.0035 -0.2025
   38CHL1  H12A 3950   2.637   0.743   4.830 -0.7872 -0.3416 -0.3008
   38CHL1  H12B 3951   2.625   0.559   4.840  1.1816 -0.9825 -0.2938
   38CHL1   C11 3952   2.728   0.649   5.016  0.1460 -0.0393  0.2286
   38CHL1  H11A 3953   2.767   0.752   5.028  0.5712 -0.1263 -0.3595
   38CHL1  H11B 3954   2.637   0.625   5.076  0.6717 -2.5108  0.1299
   38CHL1    C9 3955   2.838   0.544   5.060  0.3846 -0.0415  0.1696
   38CHL1    H9 3956   2.779   0.450   5.068 -0.3765  0.1736 -2.1572
   38CHL1   C10 3957   2.894   0.565   5.205  0.0356 -0.0699  0.1550
   38CHL1   C19 3958   2.947   0.713   5.214 -0.0873 -0.6394  0.3340
   38CHL1  H19A 3959   3.012   0.733   5.127  0.7197 -2.2797  0.5188
   38CHL1  H19B 3960   2.860   0.783   5.217 -0.9252 -1.5824 -0.9973
   38CHL1  H19C 3961   3.004   0.740   5.306 -0.5882  2.2805 -0.1084
   38CHL1    C1 3962   2.777   0.544   5.305 -0.3603  0.0892 -0.2171
   38CHL1   H1A 3963   2.694   0.617   5.289 -0.0760 -0.0320 -2.5112
   38CHL1   H1B 3964   2.733   0.444   5.288  0.7230 -0.2365 -1.2836
   38CHL1    C2 3965   2.822   0.550   5.451  0.6780  0.1870 -0.6183
   38CHL1   H2A 3966   2.750   0.530   5.533  3.0904 -4.5707  0.7373
   38CHL1   H2B 3967   2.871   0.648   5.471 -0.8482  1.3371 -2.1725
   38CHL1   C20 3968   2.722   0.730   4.548  0.5439 -0.6758  0.2860
   38CHL1   H20 3969   2.652   0.790   4.610  0.2704  2.5407 -2.8618
   38CHL1   C21 3970   2.645   0.664   4.432 -0.0855 -0.8475 -0.3018
   38CHL1  H21A 3971   2.585   0.577   4.468 -0.3763 -1.0264 -1.2076
   38CHL1  H21B 3972   2.710   0.625   4.351  0.0070 -1.8919  0.2509
   38CHL1  H21C 3973   2.580   0.728   4.369  2.2516 -0.1559 -2.1080
   38CHL1   C22 3974   2.820   0.832   4.479  0.0926  1.0807  0.6942
   38CHL1  H22A 3975   2.882   0.883   4.556  0.2793  0.1048  1.2060
   38CHL1  H22B 3976   2.898   0.781   4.418  1.1624  2.2953  1.0010
   38CHL1   C23 3977   2.755   0.945   4.401 -0.8635  0.1621  0.3462
   38CHL1  H23A 3978   2.706   0.899   4.313 -0.0443 -0.3373  0.1402
   38CHL1  H23B 3979   2.679   0.990   4.468 -1.3804  2.3092 -1.5648
   38CHL1   C24 3980   2.846   1.062   4.352 -0.1693 -0.1881 -0.0553
   38CHL1  H24A 3981   2.897   1.100   4.443 -1.6908  0.9153  0.3716
   38CHL1  H24B 3982   2.924   1.035   4.278 -2.0976 -1.1206 -1.8532
   38CHL1   C25 3983   2.758   1.173   4.285 -0.0964 -0.1949  0.6008
   38CHL1   H25 3984   2.672   1.200   4.349 -1.1593  0.5963 -1.0823
   38CHL1   C26 3985   2.838   1.295   4.257  0.4338  0.3834 -0.6927
   38CHL1  H26A 3986   2.900   1.321   4.346  1.8984 -1.6961 -1.0312
   38CHL1  H26B 3987   2.914   1.263   4.183  1.0181 -0.2570  0.1683
   38CHL1  H26C 3988   2.771   1.380   4.231  0.5506  0.4886 -0.6534
   38CHL1   C27 3989   2.683   1.143   4.158 -0.0977 -0.4544  0.3994
   38CHL1  H27A 3990   2.604   1.070   4.186  0.8498 -1.5943  0.1865
   38CHL1  H27B 3991   2.643   1.233   4.108  2.3849 -0.0227 -1.0020
   38CHL1  H27C 3992   2.746   1.094   4.081 -1.3826  1.4374 -1.9946
   39CHL1    C3 3993   4.218   0.690   5.367  0.3793 -0.4906  0.2805
   39CHL1    H3 3994   4.152   0.769   5.325  1.6407  0.7825  0.6110
   39CHL1    O3 3995   4.190   0.675   5.511  0.1509 -0.8128  0.2188
   39CHL1   H3' 3996   4.223   0.589   5.538  1.0604 -0.3588  0.6128
   39CHL1    C4 3997   4.166   0.564   5.289 -0.0043 -0.3969 -0.0964
   39CHL1   H4A 3998   4.225   0.484   5.340 -1.2947 -0.1517  1.9208
   39CHL1   H4B 3999   4.059   0.544   5.312 -0.1737 -0.2602 -0.7536
   39CHL1    C5 4000   4.200   0.574   5.144  0.2105  0.9482  0.0823
   39CHL1    C6 4001   4.102   0.547   5.053 -0.2070 -0.4855 -1.0979
   39CHL1    H6 4002   3.999   0.532   5.089  0.5675  0.0806  1.6464
   39CHL1    C7 4003   4.130   0.539   4.905 -0.0378  0.1736 -0.3095
   39CHL1   H7A 4004   4.083   0.444   4.871 -1.0753  0.6785 -0.3264
   39CHL1   H7B 4005   4.075   0.624   4.859  0.8561  0.2255 -1.3273
   39CHL1    C8 4006   4.278   0.549   4.862  0.3362 -0.5066 -0.2506
   39CHL1    H8 4007   4.304   0.442   4.868  0.4576 -0.5143 -0.7962
   39CHL1   C14 4008   4.295   0.594   4.717  0.0405 -0.3904  0.2226
   39CHL1   H14 4009   4.264   0.701   4.717  0.7089 -0.1872  1.2600
   39CHL1   C15 4010   4.204   0.524   4.625 -0.1000  0.1107  0.5601
   39CHL1  H15A 4011   4.181   0.417   4.643  1.6209 -0.4502 -0.3757
   39CHL1  H15B 4012   4.101   0.566   4.626 -0.6323 -1.1595  0.6658
   39CHL1   C16 4013   4.271   0.536   4.488 -0.6885 -0.2236 -0.4025
   39CHL1  H16A 4014   4.295   0.432   4.456  0.4842 -0.4007  0.9338
   39CHL1  H16B 4015   4.203   0.588   4.417  0.7553 -1.1569 -2.5927
   39CHL1   C17 4016   4.412   0.610   4.502 -0.2945  0.0176  0.7321
   39CHL1   H17 4017   4.388   0.717   4.483 -0.3573 -0.2515 -0.8055
   39CHL1   C13 4018   4.434   0.582   4.655 -0.0596  0.5424 -0.5602
   39CHL1   C18 4019   4.475   0.435   4.673  0.1526  0.2694  0.0054
   39CHL1  H18A 4020   4.491   0.406   4.779  0.6705  0.4263 -0.0257
   39CHL1  H18B 4021   4.403   0.360   4.633 -0.7015  0.7135  0.6910
   39CHL1  H18C 4022   4.578   0.417   4.633 -0.3190 -1.2202 -0.6362
   39CHL1   C12 4023   4.520   0.686   4.740 -1.2709 -0.1852  0.2904
   39CHL1  H12A 4024   4.622   0.675   4.699 -1.9549 -2.7688 -0.9714
   39CHL1  H12B 4025   4.488   0.791   4.720  1.2978  0.6725  0.4052
   39CHL1   C11 4026   4.513   0.656   4.895  0.5964 -0.1938  0.0761
   39CHL1  H11A 4027   4.578   0.566   4.906  0.4727 -0.1452  1.2963
   39CHL1  H11B 4028   4.558   0.741   4.951 -1.7329  0.5782  0.8792
   39CHL1    C9 4029   4.362   0.636   4.951  0.3294 -0.2802  0.3068
   39CHL1    H9 4030   4.321   0.737   4.931 -1.5632 -0.9805  0.4148
   39CHL1   C10 4031   4.349   0.603   5.104 -0.2503 -0.0043  0.0170
   39CHL1   C19 4032   4.442   0.481   5.137  0.3807 -0.0102  0.3836
   39CHL1  H19A 4033   4.433   0.410   5.051  0.6622  0.4760 -0.0510
   39CHL1  H19B 4034   4.546   0.515   5.121  1.4506 -2.7865  0.8243
   39CHL1  H19C 4035   4.433   0.437   5.238  1.2677 -1.1753 -0.0172
   39CHL1    C1 4036   4.400   0.726   5.190 -0.4517  0.1780 -0.9054
   39CHL1   H1A 4037   4.510   0.718   5.177 -0.5542 -1.3406 -1.0079
   39CHL1   H1B 4038   4.355   0.817   5.143  0.1094 -0.1972 -2.2157
   39CHL1    C2 4039   4.367   0.717   5.339 -0.0745  0.1264 -0.3721
   39CHL1   H2A 4040   4.390   0.812   5.391  2.1055 -0.7548  0.3977
   39CHL1   H2B 4041   4.428   0.637   5.388  0.1209  1.1529  1.1237
   39CHL1   C20 4042   4.515   0.559   4.398  0.4026  0.3947 -0.0374
   39CHL1   H20 4043   4.558   0.460   4.425 -0.5411 -0.2885 -0.9659
   39CHL1   C21 4044   4.635   0.658   4.384 -0.3252  0.7161  0.2301
   39CHL1  H21A 4045   4.602   0.758   4.351  1.8260  1.2021 -0.5846
   39CHL1  H21B 4046   4.716   0.613   4.323 -2.5350 -0.5655 -1.9752
   39CHL1  H21C 4047   4.670   0.665   4.490 -1.8078 -0.1545  0.8186
   39CHL1   C22 4048   4.445   0.535   4.258 -0.0180  1.0240 -0.2832
   39CHL1  H22A 4049   4.376   0.448   4.259  1.6851 -0.4261  1.5871
   39CHL1  H22B 4050   4.389   0.627   4.232 -4.6551 -1.7148 -1.1541
   39CHL1   C23 4051   4.539   0.499   4.140  0.8394  0.1011 -0.3882
   39CHL1  H23A 4052   4.612   0.581   4.124  0.5264  0.3877 -0.3621
   39CHL1  H23B 4053   4.600   0.411   4.167 -0.5733 -0.6199  0.5932
   39CHL1   C24 4054   4.462   0.473   4.006  0.2454  0.3522 -0.2107
   39CHL1  H24A 4055   4.395   0.385   4.015  1.5171 -0.8729 -1.8711
   39CHL1  H24B 4056   4.404   0.561   3.971 -0.4109 -0.7418 -2.0059
   39CHL1   C25 4057   4.551   0.448   3.881  0.0747  0.0254 -0.3584
   39CHL1   H25 4058   4.613   0.539   3.869  1.1297 -0.5035  0.8365
   39CHL1   C26 4059   4.636   0.322   3.873  0.6051  0.1837  0.5377
   39CHL1  H26A 4060   4.705   0.338   3.959  0.1886  1.5625  0.6461
   39CHL1  H26B 4061   4.576   0.229   3.882 -0.3506  0.6980 -0.3362
   39CHL1  H26C 4062   4.707   0.317   3.788  0.4583  1.5515  0.3010
   39CHL1   C27 4063   4.466   0.444   3.755 -0.0109  0.4032  0.3468
   39CHL1  H27A 4064   4.398   0.529   3.734  1.8902  1.0318 -4.8731
   39CHL1  H27B 4065   4.531   0.442   3.665  0.3463  0.5314  0.5939
   39CHL1  H27C 4066   4.409   0.349   3.764 -0.1585  0.3614 -0.8959
   40CHL1    C3 4067   2.428   6.690   5.631  0.3274  0.1368  0.2286
   40CHL1    H3 4068   2.525   6.637   5.638  1.7606  2.5036 -0.6343
   40CHL1    O3 4069   2.398   6.756   5.756 -0.6504  0.4516  0.3829
   40CHL1   H3' 4070   2.461   6.827   5.772 -1.7288  1.8741 -1.3088
   40CHL1    C4 4071   2.432   6.801   5.524 -0.6944 -0.3286  0.5436
   40CHL1   H4A 4072   2.338   6.858   5.538  0.7742  2.5288 -0.4376
   40CHL1   H4B 4073   2.520   6.861   5.555 -1.0021 -0.4304  1.6634
   40CHL1    C5 4074   2.445   6.741   5.387  1.1749  0.2782  0.1135
   40CHL1    C6 4075   2.544   6.762   5.303  0.5252 -0.4493  0.5340
   40CHL1    H6 4076   2.625   6.831   5.331 -0.0924  1.4842 -2.1242
   40CHL1    C7 4077   2.555   6.708   5.161  0.1756 -0.1479 -0.5255
   40CHL1   H7A 4078   2.597   6.795   5.105 -2.2870  1.3376 -0.2240
   40CHL1   H7B 4079   2.631   6.628   5.152 -0.0584 -0.8455  2.6159
   40CHL1    C8 4080   2.415   6.666   5.108  0.3985  0.0061 -0.1954
   40CHL1    H8 4081   2.354   6.757   5.092  0.5288  0.1596  0.1677
   40CHL1   C14 4082   2.421   6.599   4.969  0.1811 -0.3251 -0.5887
   40CHL1   H14 4083   2.495   6.516   4.978  1.2038  0.6887  0.8135
   40CHL1   C15 4084   2.478   6.689   4.850  0.0549  0.8830  0.3623
   40CHL1  H15A 4085   2.437   6.792   4.847 -0.0838  0.8157 -0.0198
   40CHL1  H15B 4086   2.589   6.688   4.860 -0.0360 -0.4812  1.5051
   40CHL1   C16 4087   2.438   6.605   4.730 -0.1446  0.0341  0.6226
   40CHL1  H16A 4088   2.375   6.670   4.666 -0.7052 -1.1147 -0.0210
   40CHL1  H16B 4089   2.522   6.565   4.670  0.9707 -1.4711  3.0181
   40CHL1   C17 4090   2.340   6.487   4.781  0.0363 -0.2125 -0.1043
   40CHL1   H17 4091   2.405   6.405   4.819 -2.0238 -1.6800  0.3801
   40CHL1   C13 4092   2.291   6.536   4.916 -0.3912  0.2177  0.0907
   40CHL1   C18 4093   2.191   6.651   4.897  0.1277  0.3668 -0.6587
   40CHL1  H18A 4094   2.164   6.698   4.994 -1.3675  0.9776 -1.3311
   40CHL1  H18B 4095   2.221   6.734   4.830 -1.5659  0.7972 -0.9494
   40CHL1  H18C 4096   2.096   6.613   4.853  0.7867  0.2570 -2.0386
   40CHL1   C12 4097   2.251   6.433   5.023  0.3095 -0.0743  0.4192
   40CHL1  H12A 4098   2.176   6.358   4.988  0.9440  0.2129 -1.7098
   40CHL1  H12B 4099   2.339   6.366   5.037 -1.6655 -2.9285  0.1430
   40CHL1   C11 4100   2.218   6.503   5.151 -0.1737  0.1944  0.1662
   40CHL1  H11A 4101   2.128   6.568   5.146  0.5024  1.2630  1.1658
   40CHL1  H11B 4102   2.183   6.424   5.222 -0.5491  0.5263  0.3552
   40CHL1    C9 4103   2.352   6.574   5.205  0.0348 -0.3588 -0.6500
   40CHL1    H9 4104   2.415   6.484   5.219 -0.3568 -0.4520  0.7409
   40CHL1   C10 4105   2.328   6.647   5.348 -0.3377 -0.7058  0.3715
   40CHL1   C19 4106   2.204   6.726   5.340 -0.5973  0.0371  0.4976
   40CHL1  H19A 4107   2.198   6.783   5.245 -0.6799 -1.4146 -0.4020
   40CHL1  H19B 4108   2.121   6.653   5.342 -0.6169  0.0388 -0.0291
   40CHL1  H19C 4109   2.175   6.793   5.424  2.2407 -0.4557  2.0033
   40CHL1    C1 4110   2.320   6.539   5.455  0.0918  0.6160 -0.1207
   40CHL1   H1A 4111   2.242   6.463   5.431  0.6255 -0.2414  0.7539
   40CHL1   H1B 4112   2.418   6.487   5.450 -0.7948 -1.0143 -2.0352
   40CHL1    C2 4113   2.313   6.590   5.606  0.0184 -0.7733 -0.0659
   40CHL1   H2A 4114   2.315   6.506   5.679  3.3973  0.5864  1.5895
   40CHL1   H2B 4115   2.213   6.638   5.618  0.3289 -0.7705  3.8287
   40CHL1   C20 4116   2.237   6.428   4.686 -0.0903  0.2646  0.8702
   40CHL1   H20 4117   2.147   6.385   4.735  0.1301  1.2079  2.1450
   40CHL1   C21 4118   2.308   6.312   4.608  0.5123  0.5111  1.2593
   40CHL1  H21A 4119   2.396   6.282   4.669  1.8308  1.5586 -0.0461
   40CHL1  H21B 4120   2.347   6.351   4.512 -3.9624  0.8449 -0.6477
   40CHL1  H21C 4121   2.237   6.229   4.589  0.6925  0.8908 -1.5048
   40CHL1   C22 4122   2.190   6.531   4.578 -0.7669  0.6292  0.2562
   40CHL1  H22A 4123   2.168   6.626   4.630  2.1353  0.6618  1.6422
   40CHL1  H22B 4124   2.267   6.567   4.507 -1.5146  1.8514  0.0511
   40CHL1   C23 4125   2.084   6.469   4.484 -0.0929 -0.0786  0.5769
   40CHL1  H23A 4126   2.070   6.523   4.388 -2.1160 -2.6348 -0.7130
   40CHL1  H23B 4127   2.121   6.368   4.454  0.7237 -0.1860  1.8726
   40CHL1   C24 4128   1.948   6.470   4.558 -0.9683 -0.2572  0.6407
   40CHL1  H24A 4129   1.963   6.441   4.664 -0.7609  0.0073  0.6860
   40CHL1  H24B 4130   1.897   6.568   4.547 -0.2457  0.1573  0.8605
   40CHL1   C25 4131   1.841   6.373   4.498 -0.6919 -0.2306 -0.3765
   40CHL1   H25 4132   1.751   6.396   4.559 -1.0878 -0.4007 -0.8896
   40CHL1   C26 4133   1.794   6.401   4.350 -0.6390  0.0734 -0.6614
   40CHL1  H26A 4134   1.710   6.339   4.313  0.0076 -1.0315 -0.3609
   40CHL1  H26B 4135   1.755   6.504   4.339 -1.1939 -0.1746 -1.0500
   40CHL1  H26C 4136   1.880   6.393   4.280  2.5959 -0.9402  3.0338
   40CHL1   C27 4137   1.885   6.227   4.515  0.3886 -0.0914  0.6242
   40CHL1  H27A 4138   1.900   6.203   4.622 -1.6041 -1.8004  0.5756
   40CHL1  H27B 4139   1.810   6.154   4.475  0.0306  0.2969  0.5852
   40CHL1  H27C 4140   1.981   6.208   4.462  0.0114  2.2688 -1.0729
   41CHL1    C3 4141   1.777   6.583   5.724 -0.2787  0.0034 -0.1265
   41CHL1    H3 4142   1.670   6.612   5.721  0.2267  2.0984  0.1574
   41CHL1    O3 4143   1.840   6.632   5.847 -0.9119 -0.0737  0.0624
   41CHL1   H3' 4144   1.860   6.725   5.832 -0.1647  0.1176  1.9298
   41CHL1    C4 4145   1.792   6.434   5.704 -0.1703 -0.7026  0.4358
   41CHL1   H4A 4146   1.899   6.409   5.714 -0.9031 -3.6669  2.1758
   41CHL1   H4B 4147   1.742   6.385   5.790 -2.5573 -0.9492 -0.9875
   41CHL1    C5 4148   1.738   6.401   5.565  0.6327  0.9894 -0.0922
   41CHL1    C6 4149   1.650   6.298   5.560 -0.7050  0.5481  0.1361
   41CHL1    H6 4150   1.619   6.245   5.652  0.7175 -0.1938  0.2173
   41CHL1    C7 4151   1.600   6.235   5.429 -0.1037  0.3729 -0.2996
   41CHL1   H7A 4152   1.593   6.125   5.419  2.7494  0.1116 -0.0921
   41CHL1   H7B 4153   1.492   6.263   5.434 -0.4601 -0.4962 -2.1394
   41CHL1    C8 4154   1.675   6.296   5.305  0.5093 -0.1979  0.2641
   41CHL1    H8 4155   1.775   6.246   5.304 -0.5726 -2.5204  0.9407
   41CHL1   C14 4156   1.592   6.273   5.180  0.0090 -1.0799  0.0502
   41CHL1   H14 4157   1.497   6.329   5.192 -0.1796 -1.2189 -0.7473
   41CHL1   C15 4158   1.551   6.140   5.152 -0.7767  0.1601  0.8648
   41CHL1  H15A 4159   1.634   6.070   5.175  1.1165  1.1247 -2.4104
   41CHL1  H15B 4160   1.456   6.108   5.201 -0.8568 -0.4766  0.3190
   41CHL1   C16 4161   1.507   6.136   5.001  0.0025 -0.0381  0.4782
   41CHL1  H16A 4162   1.554   6.052   4.945  0.2437  1.5645 -1.8941
   41CHL1  H16B 4163   1.398   6.116   4.993 -0.0150  0.4802 -0.8607
   41CHL1   C17 4164   1.544   6.283   4.954 -0.3188 -0.0823  0.1699
   41CHL1   H17 4165   1.460   6.352   4.978 -0.6783 -0.6787  0.6541
   41CHL1   C13 4166   1.652   6.329   5.047 -0.3531 -1.2383 -0.5381
   41CHL1   C18 4167   1.786   6.261   5.015 -0.2570  0.2379 -0.2275
   41CHL1  H18A 4168   1.762   6.163   4.968 -2.1228  1.0733 -1.1172
   41CHL1  H18B 4169   1.846   6.314   4.937  0.3389 -0.7073 -0.4282
   41CHL1  H18C 4170   1.851   6.250   5.105 -1.3375 -2.9564  0.2919
   41CHL1   C12 4171   1.671   6.482   5.064 -0.5729 -0.8252 -0.1045
   41CHL1  H12A 4172   1.726   6.538   4.985 -0.9722  1.2983  1.0287
   41CHL1  H12B 4173   1.572   6.524   5.091 -0.3965  0.5907 -1.5333
   41CHL1   C11 4174   1.762   6.512   5.187  0.1177 -0.7052 -0.3693
   41CHL1  H11A 4175   1.871   6.495   5.169  0.3680 -1.6363  1.6984
   41CHL1  H11B 4176   1.756   6.623   5.193 -2.1608 -0.7978 -0.4170
   41CHL1    C9 4177   1.698   6.449   5.319  0.0513 -0.3054 -0.1929
   41CHL1    H9 4178   1.600   6.498   5.338 -0.1878 -0.0151 -1.9958
   41CHL1   C10 4179   1.785   6.475   5.443  0.6631 -0.5856  0.2324
   41CHL1   C19 4180   1.929   6.430   5.427  0.6142  0.4282  0.1910
   41CHL1  H19A 4181   1.947   6.320   5.424  1.5942  0.5897 -0.9555
   41CHL1  H19B 4182   1.992   6.460   5.340 -0.1852  3.4104  0.5570
   41CHL1  H19C 4183   1.988   6.470   5.512  0.1473  0.0471  0.6987
   41CHL1    C1 4184   1.778   6.629   5.476  0.1214 -0.0451  0.0328
   41CHL1   H1A 4185   1.824   6.694   5.399  0.8520 -0.9149 -0.2970
   41CHL1   H1B 4186   1.671   6.658   5.480 -0.4650 -2.1222  0.7430
   41CHL1    C2 4187   1.839   6.663   5.607  0.2611 -0.3591 -0.3803
   41CHL1   H2A 4188   1.826   6.772   5.622 -0.1052 -0.5878  1.0799
   41CHL1   H2B 4189   1.948   6.644   5.598  0.6865  1.4031  0.6727
   41CHL1   C20 4190   1.560   6.296   4.797  0.2166 -0.2171 -0.0851
   41CHL1   H20 4191   1.662   6.259   4.772 -0.3039 -0.6735 -1.6520
   41CHL1   C21 4192   1.550   6.446   4.755  0.3216 -0.1139 -0.6971
   41CHL1  H21A 4193   1.447   6.471   4.789  1.1199  0.0016  1.8420
   41CHL1  H21B 4194   1.576   6.461   4.648  3.0842 -1.3085 -0.2848
   41CHL1  H21C 4195   1.625   6.507   4.808  0.4807 -0.8616 -0.0538
   41CHL1   C22 4196   1.463   6.207   4.715  0.1335  0.3447  0.5012
   41CHL1  H22A 4197   1.474   6.101   4.749  0.1862 -0.0064 -0.5834
   41CHL1  H22B 4198   1.359   6.241   4.730 -0.3458 -1.4009  1.3976
   41CHL1   C23 4199   1.482   6.209   4.566 -0.1856 -0.3879 -0.0032
   41CHL1  H23A 4200   1.462   6.317   4.554  0.5559 -0.1359  0.9544
   41CHL1  H23B 4201   1.585   6.187   4.531 -0.3482 -0.5933 -0.3617
   41CHL1   C24 4202   1.374   6.131   4.494  0.0174 -0.8861  0.5300
   41CHL1  H24A 4203   1.394   6.022   4.498 -1.0809 -1.0959  0.5689
   41CHL1  H24B 4204   1.279   6.145   4.550 -0.6571  2.3611 -1.1410
   41CHL1   C25 4205   1.345   6.195   4.358  0.6123 -0.3753  0.3967
   41CHL1   H25 4206   1.362   6.302   4.381  0.6447 -0.7365  2.2142
   41CHL1   C26 4207   1.458   6.165   4.264 -0.2898  0.6015 -0.2755
   41CHL1  H26A 4208   1.440   6.203   4.161 -1.0769  3.2624  0.7492
   41CHL1  H26B 4209   1.548   6.224   4.292  0.4750 -0.7900  0.3188
   41CHL1  H26C 4210   1.484   6.057   4.257  0.5813  0.7478  0.4325
   41CHL1   C27 4211   1.203   6.175   4.296 -0.1561  0.1072  0.4757
   41CHL1  H27A 4212   1.129   6.170   4.379 -0.9878 -0.9442 -0.3045
   41CHL1  H27B 4213   1.187   6.252   4.219  3.3188 -2.2007 -2.9203
   41CHL1  H27C 4214   1.190   6.081   4.239 -1.0056  2.0027 -2.6546
   42CHL1    C3 4215   4.865   6.299   5.519  0.4940  0.2112  0.2057
   42CHL1    H3 4216   4.887   6.407   5.537  1.5821  0.1268 -0.4691
   42CHL1    O3 4217   4.872   6.228   5.645  0.5667 -0.1242 -0.6445
   42CHL1   H3' 4218   4.810   6.154   5.640 -2.2892  2.0603 -0.2466
   42CHL1    C4 4219   4.728   6.275   5.456 -0.3241  0.4124 -0.0572
   42CHL1   H4A 4220   4.718   6.164   5.451  1.2399  0.2854 -1.0755
   42CHL1   H4B 4221   4.659   6.300   5.539  0.0732 -2.5281  1.3023
   42CHL1    C5 4222   4.716   6.339   5.324 -0.3871  0.7818 -0.1447
   42CHL1    C6 4223   4.615   6.429   5.291 -1.0648  0.0469  0.1240
   42CHL1    H6 4224   4.537   6.457   5.364 -0.3451 -0.5157  1.1429
   42CHL1    C7 4225   4.602   6.495   5.152 -0.2294 -0.6611 -0.0894
   42CHL1   H7A 4226   4.497   6.494   5.116 -0.2437  0.3316 -0.1062
   42CHL1   H7B 4227   4.623   6.602   5.175 -1.2783 -0.3337 -0.6192
   42CHL1    C8 4228   4.695   6.434   5.036 -0.1214 -0.0147  0.2850
   42CHL1    H8 4229   4.649   6.338   5.007  0.5406 -0.7397  1.5512
   42CHL1   C14 4230   4.705   6.529   4.923  0.1113  0.2196  0.2983
   42CHL1   H14 4231   4.748   6.626   4.955  1.4623  1.0252 -3.4393
   42CHL1   C15 4232   4.575   6.579   4.847 -1.1261  0.3481  0.1379
   42CHL1  H15A 4233   4.519   6.486   4.824  0.8479 -0.7218 -0.5676
   42CHL1  H15B 4234   4.518   6.651   4.910 -2.4555  1.0103 -1.7486
   42CHL1   C16 4235   4.642   6.650   4.723  0.2794  0.8967 -0.9201
   42CHL1  H16A 4236   4.577   6.634   4.634 -1.5322  1.6987  0.2112
   42CHL1  H16B 4237   4.626   6.759   4.732 -0.9460  0.7744 -1.5142
   42CHL1   C17 4238   4.792   6.606   4.717  0.2608 -0.1510 -0.0546
   42CHL1   H17 4239   4.848   6.683   4.774 -0.3759 -0.2207  0.6833
   42CHL1   C13 4240   4.805   6.490   4.810  0.3334  0.3148  0.1546
   42CHL1   C18 4241   4.746   6.359   4.745  0.4360 -0.0679 -0.5370
   42CHL1  H18A 4242   4.725   6.273   4.812 -0.7195  0.6206  0.0207
   42CHL1  H18B 4243   4.649   6.374   4.692  0.4378 -1.2453 -0.9088
   42CHL1  H18C 4244   4.811   6.332   4.659 -1.6865  0.0461 -2.2576
   42CHL1   C12 4245   4.948   6.458   4.871  0.1266  0.0068  0.1450
   42CHL1  H12A 4246   5.016   6.407   4.799  2.0950  1.0520  1.1649
   42CHL1  H12B 4247   4.995   6.551   4.911  0.3404  0.8222 -1.8537
   42CHL1   C11 4248   4.927   6.360   4.986  0.4184  0.1247 -0.4688
   42CHL1  H11A 4249   4.897   6.261   4.944  3.2981 -1.0776  0.0883
   42CHL1  H11B 4250   5.022   6.339   5.039 -0.8314 -0.4170  1.7149
   42CHL1    C9 4251   4.831   6.402   5.097 -0.1984  0.3002 -0.0932
   42CHL1    H9 4252   4.863   6.501   5.134  0.8984 -0.0990  0.0800
   42CHL1   C10 4253   4.824   6.305   5.223 -0.3780  0.4812  0.4215
   42CHL1   C19 4254   4.802   6.162   5.176  0.0247  0.2825  0.5477
   42CHL1  H19A 4255   4.708   6.153   5.116 -0.4347 -2.7928  1.5772
   42CHL1  H19B 4256   4.878   6.122   5.105 -0.0370  1.2055 -0.0717
   42CHL1  H19C 4257   4.790   6.091   5.260  1.4212  0.9807  1.3604
   42CHL1    C1 4258   4.967   6.305   5.294  0.4903 -0.0148  0.4789
   42CHL1   H1A 4259   5.041   6.263   5.223  1.0902 -0.8733  1.5807
   42CHL1   H1B 4260   4.986   6.413   5.307  1.3703 -0.1814  0.6410
   42CHL1    C2 4261   4.973   6.242   5.426 -0.3095 -0.3055 -0.0154
   42CHL1   H2A 4262   5.073   6.268   5.468  0.3543  1.9025 -2.6620
   42CHL1   H2B 4263   4.960   6.133   5.409  1.3837 -0.4598 -0.5402
   42CHL1   C20 4264   4.841   6.601   4.570  0.5784  1.0204 -0.4433
   42CHL1   H20 4265   4.788   6.520   4.515 -0.8040  0.4554  1.6069
   42CHL1   C21 4266   4.986   6.549   4.563 -0.0142 -0.2426 -0.2057
   42CHL1  H21A 4267   4.994   6.447   4.608 -0.7012 -0.8252 -1.3534
   42CHL1  H21B 4268   5.056   6.619   4.614  0.0358 -0.5826  0.2012
   42CHL1  H21C 4269   5.031   6.535   4.462 -1.5730 -2.1309 -0.7052
   42CHL1   C22 4270   4.831   6.730   4.492 -0.0339  0.6376  0.5471
   42CHL1  H22A 4271   4.734   6.772   4.525 -0.0281 -0.3452  1.8832
   42CHL1  H22B 4272   4.915   6.799   4.512 -0.6802  1.4116  0.6269
   42CHL1   C23 4273   4.831   6.718   4.332  0.3637 -0.7197  0.4631
   42CHL1  H23A 4274   4.926   6.683   4.287 -0.6960  0.0617 -2.6677
   42CHL1  H23B 4275   4.749   6.646   4.314  0.4517 -0.8079  0.4107
   42CHL1   C24 4276   4.809   6.853   4.276 -0.3883  0.4776  0.3944
   42CHL1  H24A 4277   4.726   6.910   4.322  0.2347  2.2159 -0.5780
   42CHL1  H24B 4278   4.892   6.926   4.289 -2.4290  2.8544  0.7507
   42CHL1   C25 4279   4.775   6.854   4.127  0.1782  0.8013  0.6784
   42CHL1   H25 4280   4.855   6.796   4.076 -0.3959 -1.5055  2.2525
   42CHL1   C26 4281   4.646   6.791   4.099  0.4064  0.6065 -0.3748
   42CHL1  H26A 4282   4.641   6.680   4.100 -4.3790  0.6507  0.0304
   42CHL1  H26B 4283   4.561   6.836   4.153  0.4503  1.0326 -0.6569
   42CHL1  H26C 4284   4.612   6.812   3.995 -1.4757 -1.7938 -0.3352
   42CHL1   C27 4285   4.780   6.998   4.076  0.1046 -0.6390  0.2220
   42CHL1  H27A 4286   4.884   7.032   4.056 -0.1919 -0.8108 -1.8941
   42CHL1  H27B 4287   4.720   6.999   3.982  1.1632  1.6358 -0.5121
   42CHL1  H27C 4288   4.729   7.063   4.149 -0.1266 -0.7527  0.1609
   43CHL1    C3 4289   0.296   2.285   5.414  0.4996 -0.3914 -0.5264
   43CHL1    H3 4290   0.371   2.367   5.411 -0.6884  0.8563  1.6500
   43CHL1    O3 4291   0.298   2.235   5.551 -0.0275 -0.0337  0.4385
   43CHL1   H3' 4292   0.237   2.161   5.548  0.5579 -0.4777 -1.5608
   43CHL1    C4 4293   0.147   2.334   5.391  0.9395 -0.2701  0.1741
   43CHL1   H4A 4294   0.079   2.249   5.414 -0.1974  0.3379 -0.7988
   43CHL1   H4B 4295   0.128   2.429   5.446 -2.3729 -0.9158  0.3669
   43CHL1    C5 4296   0.131   2.373   5.246 -0.1334 -0.5909  0.5962
   43CHL1    C6 4297   0.078   2.494   5.209 -0.0622  0.4047 -0.4866
   43CHL1    H6 4298   0.039   2.557   5.291  0.7095  1.0066 -0.5663
   43CHL1    C7 4299   0.062   2.543   5.069 -0.4439  0.2476  0.6472
   43CHL1   H7A 4300  -0.042   2.582   5.057 -0.9817 -1.5756 -1.1194
   43CHL1   H7B 4301   0.141   2.619   5.051 -0.8124  0.5632  0.3413
   43CHL1    C8 4302   0.087   2.431   4.959 -0.0190 -0.2490 -0.0537
   43CHL1    H8 4303  -0.009   2.375   4.969 -1.1854  1.8096  0.8615
   43CHL1   C14 4304   0.114   2.500   4.826 -0.1268  0.1286  0.6862
   43CHL1   H14 4305   0.202   2.567   4.831 -0.2281  0.8511 -3.6549
   43CHL1   C15 4306  -0.000   2.584   4.764  0.5530 -0.9824  0.5233
   43CHL1  H15A 4307  -0.100   2.536   4.772  0.1223  0.0202  1.3677
   43CHL1  H15B 4308  -0.003   2.684   4.813 -1.1940 -0.8616  0.2422
   43CHL1   C16 4309   0.042   2.597   4.617 -0.2869 -0.2305 -0.1881
   43CHL1  H16A 4310  -0.044   2.571   4.552 -1.0052 -1.2082  1.1161
   43CHL1  H16B 4311   0.066   2.703   4.594 -1.4833  0.5159  1.6644
   43CHL1   C17 4312   0.158   2.504   4.598  0.0270  0.7073 -0.0745
   43CHL1   H17 4313   0.253   2.554   4.622  0.2594  1.0086 -1.5416
   43CHL1   C13 4314   0.146   2.399   4.715 -0.0535  0.1362  0.3218
   43CHL1   C18 4315   0.028   2.305   4.690  0.4563  0.2860  0.2387
   43CHL1  H18A 4316   0.079   2.225   4.632 -1.5133 -0.9177  0.0915
   43CHL1  H18B 4317  -0.015   2.253   4.778 -2.0798 -1.5067 -1.8886
   43CHL1  H18C 4318  -0.056   2.349   4.631 -0.2016 -0.0831  0.8838
   43CHL1   C12 4319   0.274   2.329   4.750 -0.1603  0.1080  0.2007
   43CHL1  H12A 4320   0.295   2.252   4.673 -4.1952 -0.8200 -0.1519
   43CHL1  H12B 4321   0.354   2.407   4.745 -3.5790  3.9396  0.4555
   43CHL1   C11 4322   0.262   2.261   4.880  0.1349  0.3310  0.4264
   43CHL1  H11A 4323   0.198   2.171   4.871 -1.1557  1.3369 -0.7782
   43CHL1  H11B 4324   0.360   2.222   4.915  0.0996  1.0785  1.4119
   43CHL1    C9 4325   0.204   2.349   4.997 -0.6511 -0.2974  0.3663
   43CHL1    H9 4326   0.286   2.423   5.002 -0.3357 -0.2853 -3.0875
   43CHL1   C10 4327   0.190   2.276   5.136  0.6186  0.0505 -0.3201
   43CHL1   C19 4328   0.107   2.157   5.115  0.5796  0.1767  0.3082
   43CHL1  H19A 4329   0.091   2.108   5.213 -0.1818 -0.8662 -0.3206
   43CHL1  H19B 4330   0.013   2.176   5.059  1.1920 -2.2537 -1.7476
   43CHL1  H19C 4331   0.168   2.081   5.060  0.5996 -0.5627  1.3346
   43CHL1    C1 4332   0.330   2.232   5.181  0.0790  0.2772 -0.1333
   43CHL1   H1A 4333   0.363   2.145   5.120  0.4755 -0.2543  0.8242
   43CHL1   H1B 4334   0.407   2.312   5.179 -0.3781  0.7478  0.6978
   43CHL1    C2 4335   0.337   2.180   5.320 -0.0124 -0.1332 -0.4076
   43CHL1   H2A 4336   0.440   2.144   5.341 -0.4065 -0.6952  0.6730
   43CHL1   H2B 4337   0.273   2.090   5.335 -3.9063  2.8505  3.5041
   43CHL1   C20 4338   0.184   2.443   4.458  0.3408 -0.6717 -0.0543
   43CHL1   H20 4339   0.260   2.362   4.466 -1.8703 -2.7255  1.5417
   43CHL1   C21 4340   0.243   2.561   4.379  0.5358 -0.3990 -0.3262
   43CHL1  H21A 4341   0.165   2.639   4.363  0.7173  0.0730  0.9778
   43CHL1  H21B 4342   0.288   2.523   4.285  1.1042  0.8316 -0.5793
   43CHL1  H21C 4343   0.322   2.613   4.438 -0.5730 -0.6509  1.4538
   43CHL1   C22 4344   0.060   2.380   4.378 -0.5152 -0.3813  0.0152
   43CHL1  H22A 4345   0.036   2.293   4.443 -0.1909 -0.4991 -0.0200
   43CHL1  H22B 4346  -0.023   2.454   4.372 -0.2875 -0.1948 -1.0182
   43CHL1   C23 4347   0.089   2.315   4.244  0.6759 -0.1802 -0.3617
   43CHL1  H23A 4348   0.135   2.392   4.178 -2.1731  1.1168 -0.9964
   43CHL1  H23B 4349   0.154   2.226   4.258  0.5495 -0.6267 -2.3171
   43CHL1   C24 4350  -0.041   2.260   4.171  0.0970 -0.2924 -0.3379
   43CHL1  H24A 4351  -0.113   2.344   4.160 -2.1306 -2.2544 -1.5847
   43CHL1  H24B 4352  -0.001   2.222   4.075 -0.2120 -0.7608 -0.2883
   43CHL1   C25 4353  -0.112   2.139   4.237  0.2465  0.4640 -0.3492
   43CHL1   H25 4354  -0.040   2.055   4.251  0.4024  0.7027  0.2842
   43CHL1   C26 4355  -0.196   2.178   4.366 -0.7234 -0.1286 -0.3914
   43CHL1  H26A 4356  -0.131   2.171   4.455 -0.0964 -0.4514 -0.8695
   43CHL1  H26B 4357  -0.238   2.280   4.357 -0.3350  0.0048 -0.6674
   43CHL1  H26C 4358  -0.274   2.101   4.386  0.4726 -1.8692 -2.0524
   43CHL1   C27 4359  -0.206   2.080   4.137  0.5041 -0.2998  0.1954
   43CHL1  H27A 4360  -0.279   2.156   4.102 -0.2174 -1.3020 -0.5056
   43CHL1  H27B 4361  -0.155   2.055   4.041  0.3499  0.1432 -0.0047
   43CHL1  H27C 4362  -0.274   2.001   4.175 -0.5337  1.6670  2.7558
   44CHL1    C3 4363   0.425   4.486   5.774 -0.8333  0.8748 -0.3094
   44CHL1    H3 4364   0.477   4.579   5.805 -1.0617  0.9334 -0.0966
   44CHL1    O3 4365   0.394   4.432   5.900  0.2284  0.3092  0.0761
   44CHL1   H3' 4366   0.369   4.339   5.890 -0.7796  0.7682 -2.2991
   44CHL1    C4 4367   0.293   4.512   5.698 -0.3257  0.4636 -0.9910
   44CHL1   H4A 4368   0.241   4.414   5.706 -1.9452  1.2310 -1.5726
   44CHL1   H4B 4369   0.226   4.580   5.755  0.9831  0.2727  0.8302
   44CHL1    C5 4370   0.302   4.538   5.551  0.0350  0.0572 -1.0116
   44CHL1    C6 4371   0.238   4.641   5.494  0.1697  0.2797 -0.3702
   44CHL1    H6 4372   0.182   4.707   5.561  1.3675  0.1298  0.8230
   44CHL1    C7 4373   0.241   4.661   5.346 -0.0753 -0.0417 -0.6732
   44CHL1   H7A 4374   0.143   4.695   5.306 -0.8844  0.1434  1.3571
   44CHL1   H7B 4375   0.320   4.738   5.335 -1.1120  0.6786 -4.1782
   44CHL1    C8 4376   0.284   4.536   5.271 -0.3952  0.0365  0.4707
   44CHL1    H8 4377   0.198   4.467   5.285 -0.0787 -0.1410  1.6059
   44CHL1   C14 4378   0.290   4.568   5.126  0.5377 -0.8258  0.0282
   44CHL1   H14 4379   0.372   4.643   5.113  1.7626 -2.0475  0.4435
   44CHL1   C15 4380   0.169   4.626   5.059  0.1084  0.6970 -0.0624
   44CHL1  H15A 4381   0.095   4.545   5.078  1.8513 -1.4488 -1.8595
   44CHL1  H15B 4382   0.148   4.731   5.088  1.9647  1.4977 -1.4036
   44CHL1   C16 4383   0.206   4.620   4.909 -0.4478  1.0676 -0.3347
   44CHL1  H16A 4384   0.119   4.600   4.843  0.2173  1.4934 -1.3644
   44CHL1  H16B 4385   0.245   4.713   4.863  1.9023 -0.4712 -1.6675
   44CHL1   C17 4386   0.323   4.508   4.898 -0.5400 -0.1067 -0.4261
   44CHL1   H17 4387   0.413   4.573   4.898  1.0542 -2.2079  0.1731
   44CHL1   C13 4388   0.334   4.446   5.038 -0.5049  0.2210 -0.1216
   44CHL1   C18 4389   0.246   4.326   5.054 -0.4140  0.5127 -0.7974
   44CHL1  H18A 4390   0.289   4.243   4.994 -0.6849  0.6420 -1.1799
   44CHL1  H18B 4391   0.240   4.293   5.159 -0.1715 -0.5635 -1.1114
   44CHL1  H18C 4392   0.141   4.339   5.023 -0.4811  1.4773 -0.2075
   44CHL1   C12 4393   0.478   4.411   5.083  0.8391  0.3062  0.5887
   44CHL1  H12A 4394   0.532   4.333   5.026  1.5241  0.1445  1.4357
   44CHL1  H12B 4395   0.533   4.507   5.081 -0.2820  1.0042  1.5864
   44CHL1   C11 4396   0.481   4.375   5.239 -0.1805 -0.3756  0.3254
   44CHL1  H11A 4397   0.448   4.270   5.249  0.2535 -0.5000  0.4912
   44CHL1  H11B 4398   0.586   4.369   5.275  0.1587 -2.1378 -0.8347
   44CHL1    C9 4399   0.413   4.480   5.335 -0.9220 -0.6056 -0.1318
   44CHL1    H9 4400   0.484   4.565   5.333  0.7426 -1.9138  0.5532
   44CHL1   C10 4401   0.390   4.432   5.474  0.4155 -0.0927  0.0236
   44CHL1   C19 4402   0.317   4.293   5.478  0.6102 -0.1804 -0.2649
   44CHL1  H19A 4403   0.235   4.295   5.403  1.6864 -1.3330 -1.5434
   44CHL1  H19B 4404   0.387   4.216   5.439  0.4302  0.7275 -2.5647
   44CHL1  H19C 4405   0.282   4.252   5.575  0.4702 -0.6558 -0.5153
   44CHL1    C1 4406   0.527   4.427   5.546 -0.0925 -0.1944  0.1448
   44CHL1   H1A 4407   0.602   4.360   5.500  0.3920 -2.6360  4.0172
   44CHL1   H1B 4408   0.575   4.527   5.547  0.3433 -0.3908 -0.4874
   44CHL1    C2 4409   0.520   4.385   5.694  0.4202 -0.0945 -0.6018
   44CHL1   H2A 4410   0.623   4.385   5.735  1.4522 -1.0733 -2.9828
   44CHL1   H2B 4411   0.468   4.287   5.699  0.5433 -0.0894  1.9995
   44CHL1   C20 4412   0.322   4.430   4.770  0.3062 -0.3442  0.0989
   44CHL1   H20 4413   0.333   4.512   4.695  0.2865  0.6557  1.1718
   44CHL1   C21 4414   0.188   4.364   4.736  0.2576  0.2434  0.3732
   44CHL1  H21A 4415   0.135   4.320   4.823 -1.2246  2.2700  0.5874
   44CHL1  H21B 4416   0.210   4.286   4.661  0.1324  0.7169 -0.1642
   44CHL1  H21C 4417   0.111   4.439   4.706 -0.0176 -0.7762 -1.6003
   44CHL1   C22 4418   0.438   4.325   4.748 -0.8188 -0.1969  0.1678
   44CHL1  H22A 4419   0.419   4.246   4.824  0.7665 -0.3148  0.4820
   44CHL1  H22B 4420   0.430   4.287   4.644 -0.9579  0.1263  0.0581
   44CHL1   C23 4421   0.576   4.381   4.761  0.1713  0.0181  0.1465
   44CHL1  H23A 4422   0.592   4.446   4.850 -1.6650  1.1553 -0.3085
   44CHL1  H23B 4423   0.649   4.298   4.776 -1.2959 -1.0733  1.6642
   44CHL1   C24 4424   0.618   4.483   4.649  0.3559  0.6757 -0.2860
   44CHL1  H24A 4425   0.589   4.446   4.548  1.0322  3.5659 -1.6388
   44CHL1  H24B 4426   0.559   4.575   4.669 -0.0084 -0.0204  2.0821
   44CHL1   C25 4427   0.768   4.507   4.640 -0.0237  0.1375 -0.5487
   44CHL1   H25 4428   0.816   4.407   4.636  1.1283  0.6170  0.4028
   44CHL1   C26 4429   0.801   4.574   4.508  0.0770 -0.2318 -0.1178
   44CHL1  H26A 4430   0.909   4.593   4.492 -0.2973  1.0288 -1.4055
   44CHL1  H26B 4431   0.767   4.508   4.425  0.8264  0.2116 -0.7919
   44CHL1  H26C 4432   0.745   4.670   4.498  0.9676  0.4363  1.0943
   44CHL1   C27 4433   0.821   4.584   4.763 -0.2257  0.1037 -0.4141
   44CHL1  H27A 4434   0.793   4.690   4.745 -0.5130  0.5141  2.1236
   44CHL1  H27B 4435   0.782   4.553   4.862  4.5404 -1.6052  1.2204
   44CHL1  H27C 4436   0.933   4.585   4.761 -0.1575  2.2478  1.3836
   45CHL1    C3 4437   7.026   5.002   5.577 -0.2306 -0.8360 -0.6295
   45CHL1    H3 4438   7.089   4.911   5.580  0.7941 -0.1083  1.8129
   45CHL1    O3 4439   6.972   5.023   5.708 -0.5171  0.8176 -0.7236
   45CHL1   H3' 4440   6.901   5.088   5.708  0.2960  1.7505  0.4497
   45CHL1    C4 4441   7.084   5.124   5.515 -0.3353  0.2021 -0.7526
   45CHL1   H4A 4442   7.008   5.205   5.512 -0.8551 -0.1799  1.0191
   45CHL1   H4B 4443   7.171   5.156   5.576 -0.4528 -2.5185  1.0122
   45CHL1    C5 4444   7.134   5.099   5.373  0.6812 -0.1593 -0.1606
   45CHL1    C6 4445   7.258   5.115   5.341  0.1399  1.1255  0.9046
   45CHL1    H6 4446   7.332   5.149   5.415  1.3499  1.1064 -0.2513
   45CHL1    C7 4447   7.304   5.105   5.202 -0.0398  0.1221  0.0848
   45CHL1   H7A 4448   7.367   5.194   5.182  1.4373 -0.1908  2.8233
   45CHL1   H7B 4449   7.371   5.017   5.199  0.0931  0.2474 -1.4061
   45CHL1    C8 4450   7.197   5.089   5.093 -0.3352  0.1476 -0.4746
   45CHL1    H8 4451   7.153   5.191   5.088  1.6405  1.0315 -0.6805
   45CHL1   C14 4452   7.252   5.034   4.964  0.2264  0.1538 -0.3482
   45CHL1   H14 4453   7.295   4.934   4.988 -0.4141  0.3685  1.9037
   45CHL1   C15 4454   7.367   5.113   4.897  0.1596 -0.6064  0.1046
   45CHL1  H15A 4455   7.342   5.222   4.893 -0.4036 -0.7630 -2.2049
   45CHL1  H15B 4456   7.466   5.103   4.946  0.9249  0.0246 -1.2448
   45CHL1   C16 4457   7.364   5.068   4.759 -0.1251  0.2225  0.5716
   45CHL1  H16A 4458   7.347   5.158   4.697 -0.7965  0.5177  1.1642
   45CHL1  H16B 4459   7.457   5.015   4.730  1.4655  2.3354  1.5901
   45CHL1   C17 4460   7.238   4.971   4.742  0.1828  0.8177  0.0682
   45CHL1   H17 4461   7.293   4.876   4.754  0.9055  0.9274 -1.9365
   45CHL1   C13 4462   7.147   5.016   4.852 -0.3105  0.1054 -0.2173
   45CHL1   C18 4463   7.080   5.150   4.814  0.4983  0.1762 -0.5585
   45CHL1  H18A 4464   7.049   5.204   4.906  2.3844  1.7748 -0.8049
   45CHL1  H18B 4465   7.148   5.223   4.766 -0.3935  1.0497 -0.5040
   45CHL1  H18C 4466   6.988   5.138   4.753 -0.0137 -0.6132  0.3218
   45CHL1   C12 4467   7.048   4.907   4.896  0.1265  0.4269  0.0335
   45CHL1  H12A 4468   6.969   4.901   4.818 -1.2484 -0.0398  1.4264
   45CHL1  H12B 4469   7.094   4.805   4.897  1.0586  0.8386  1.2644
   45CHL1   C11 4470   6.987   4.947   5.032  0.1033  0.0296  0.0423
   45CHL1  H11A 4471   6.912   5.023   5.002  1.6885  2.3377  1.6076
   45CHL1  H11B 4472   6.931   4.858   5.069 -1.3986  1.1638  0.6054
   45CHL1    C9 4473   7.088   4.992   5.139  0.1595 -1.0676  0.3386
   45CHL1    H9 4474   7.137   4.895   5.165 -2.4450 -1.8530  2.7991
   45CHL1   C10 4475   7.032   5.041   5.280  0.6155 -0.1062  0.2333
   45CHL1   C19 4476   6.936   5.165   5.247  0.2094 -0.6638 -0.0795
   45CHL1  H19A 4477   6.854   5.131   5.179 -0.0225  1.2926 -0.8521
   45CHL1  H19B 4478   6.884   5.202   5.338  1.9335  0.2579  0.5794
   45CHL1  H19C 4479   7.000   5.248   5.210  0.3560 -0.4902  0.5606
   45CHL1    C1 4480   6.952   4.922   5.348 -0.4782 -1.0662 -0.9930
   45CHL1   H1A 4481   6.864   4.897   5.284 -2.3724 -0.9925  1.4170
   45CHL1   H1B 4482   7.022   4.836   5.351  2.0276  0.8453  2.6800
   45CHL1    C2 4483   6.906   4.947   5.494  0.3129 -0.0465  0.2662
   45CHL1   H2A 4484   6.860   4.854   5.532 -0.8222  1.0053  1.5673
   45CHL1   H2B 4485   6.823   5.021   5.488 -0.1255 -0.5087  0.6241
   45CHL1   C20 4486   7.188   4.961   4.593  0.0917 -0.4953 -0.2767
   45CHL1   H20 4487   7.116   5.045   4.578  1.0203  0.9245  2.4080
   45CHL1   C21 4488   7.134   4.824   4.573  0.0914 -0.0592  0.1728
   45CHL1  H21A 4489   7.078   4.818   4.478 -1.6293 -0.0069  1.1499
   45CHL1  H21B 4490   7.075   4.794   4.662 -1.2078  0.9425 -0.3204
   45CHL1  H21C 4491   7.213   4.746   4.570  0.7242  0.1958  4.1065
   45CHL1   C22 4492   7.302   4.987   4.484  0.0695  0.0253 -0.3226
   45CHL1  H22A 4493   7.333   5.093   4.494 -2.9078  1.0307 -0.6416
   45CHL1  H22B 4494   7.387   4.917   4.497  0.3072  0.3645 -0.0088
   45CHL1   C23 4495   7.239   4.980   4.344  0.1366  0.0643  0.4237
   45CHL1  H23A 4496   7.226   4.873   4.316 -0.1719  0.5062 -1.2783
   45CHL1  H23B 4497   7.138   5.026   4.334  0.8101  1.6332  0.5983
   45CHL1   C24 4498   7.328   5.055   4.240  0.0944  0.3694 -0.7317
   45CHL1  H24A 4499   7.320   5.163   4.262  0.2793  0.2217  0.0929
   45CHL1  H24B 4500   7.428   5.009   4.254 -0.5102 -1.4398 -2.0220
   45CHL1   C25 4501   7.296   5.023   4.089 -0.0209 -0.4572 -0.3197
   45CHL1   H25 4502   7.272   4.915   4.080  1.3984 -0.7602 -0.7826
   45CHL1   C26 4503   7.187   5.108   4.026  0.5214  0.3026 -0.3335
   45CHL1  H26A 4504   7.207   5.218   4.022 -2.2193  0.8489 -2.0257
   45CHL1  H26B 4505   7.159   5.083   3.921  0.8885 -0.3683 -0.2729
   45CHL1  H26C 4506   7.095   5.092   4.086  0.7363 -3.0665 -0.7533
   45CHL1   C27 4507   7.418   5.050   3.999  0.1037 -0.0080 -0.0762
   45CHL1  H27A 4508   7.452   5.156   4.004  2.1195 -0.6531  0.8318
   45CHL1  H27B 4509   7.500   4.980   4.025 -0.8721  0.0712  3.8836
   45CHL1  H27C 4510   7.383   5.027   3.896 -1.0642  1.0661  0.0536
   46CHL1    C3 4511   1.071   6.327   5.527 -0.0543  0.4656 -0.2890
   46CHL1    H3 4512   1.024   6.427   5.514 -0.4571  0.0675 -2.4414
   46CHL1    O3 4513   1.090   6.288   5.660  0.2191  0.0819  0.2456
   46CHL1   H3' 4514   1.006   6.260   5.696  0.4187  0.1317  0.7634
   46CHL1    C4 4515   0.987   6.216   5.457  0.7314  0.5787  0.3314
   46CHL1   H4A 4516   1.032   6.114   5.460  2.6203  1.2218 -2.3786
   46CHL1   H4B 4517   0.892   6.212   5.515  0.4465 -0.4911 -0.1781
   46CHL1    C5 4518   0.967   6.254   5.313  0.5178  0.1481  0.2384
   46CHL1    C6 4519   0.840   6.264   5.257  0.5859 -0.0605 -0.1871
   46CHL1    H6 4520   0.757   6.250   5.327 -1.4027 -1.2778 -2.6418
   46CHL1    C7 4521   0.805   6.299   5.116 -0.3057 -0.2589  0.1879
   46CHL1   H7A 4522   0.730   6.225   5.080 -0.1386 -0.4249  0.1771
   46CHL1   H7B 4523   0.765   6.402   5.107 -0.1458 -0.4031 -3.0759
   46CHL1    C8 4524   0.930   6.292   5.021 -0.0724  0.4695 -0.4331
   46CHL1    H8 4525   0.949   6.186   4.993 -0.9104  0.3362 -0.5079
   46CHL1   C14 4526   0.901   6.374   4.895 -0.5590  0.2771  0.1475
   46CHL1   H14 4527   0.902   6.479   4.931  1.6750 -0.0457  1.1701
   46CHL1   C15 4528   0.777   6.347   4.808 -0.3466 -0.6371  1.0040
   46CHL1  H15A 4529   0.775   6.237   4.791  0.8933 -0.6230  0.7122
   46CHL1  H15B 4530   0.680   6.377   4.854 -0.5939 -1.5274  1.0876
   46CHL1   C16 4531   0.807   6.411   4.675 -0.0735  0.1182  0.1017
   46CHL1  H16A 4532   0.785   6.330   4.602  0.8950 -0.4130  0.3827
   46CHL1  H16B 4533   0.742   6.494   4.643  0.5917 -0.1687 -2.2020
   46CHL1   C17 4534   0.963   6.446   4.672 -0.1716  0.3685 -1.0755
   46CHL1   H17 4535   0.970   6.554   4.698  0.4816 -0.3601  2.2549
   46CHL1   C13 4536   1.018   6.363   4.789 -0.0564  0.1510 -0.0252
   46CHL1   C18 4537   1.049   6.215   4.744  0.0497 -0.0696  0.3653
   46CHL1  H18A 4538   1.131   6.230   4.671  1.1817  0.4447  1.6893
   46CHL1  H18B 4539   1.091   6.150   4.824  1.8664 -0.8106 -1.1296
   46CHL1  H18C 4540   0.971   6.165   4.682  1.5471 -1.8354 -0.1710
   46CHL1   C12 4541   1.144   6.421   4.857 -0.2560  0.5690  0.4388
   46CHL1  H12A 4542   1.233   6.410   4.791  1.4172  0.6617  2.6018
   46CHL1  H12B 4543   1.108   6.526   4.864 -2.9609  0.1058 -3.3961
   46CHL1   C11 4544   1.172   6.355   4.993  0.0730 -0.1547 -0.0736
   46CHL1  H11A 4545   1.216   6.255   4.975  0.7712  0.3817 -1.5123
   46CHL1  H11B 4546   1.251   6.424   5.030  0.4347  2.1019 -4.3761
   46CHL1    C9 4547   1.050   6.352   5.091  0.2291 -0.2885 -0.2529
   46CHL1    H9 4548   1.015   6.455   5.115  1.6824  0.3064 -0.5587
   46CHL1   C10 4549   1.088   6.282   5.227  0.1019  0.2507 -0.8374
   46CHL1   C19 4550   1.161   6.149   5.202  0.8268 -0.6428  0.4090
   46CHL1  H19A 4551   1.102   6.082   5.135 -0.7039  1.7090 -0.7328
   46CHL1  H19B 4552   1.252   6.168   5.142  0.2210  0.9284 -0.0653
   46CHL1  H19C 4553   1.208   6.096   5.288  0.6166 -2.0498 -0.2985
   46CHL1    C1 4554   1.186   6.380   5.309 -0.2903 -0.0133 -0.9089
   46CHL1   H1A 4555   1.278   6.391   5.248 -0.3902  3.5197 -0.6442
   46CHL1   H1B 4556   1.136   6.480   5.311 -0.5599 -0.1315  1.3405
   46CHL1    C2 4557   1.204   6.351   5.456 -0.7534 -0.0282  0.5667
   46CHL1   H2A 4558   1.263   6.429   5.509  0.0134 -1.3013  1.6379
   46CHL1   H2B 4559   1.261   6.256   5.459 -0.6991  0.0261  1.5896
   46CHL1   C20 4560   1.011   6.424   4.537 -0.5450 -0.2720  0.6234
   46CHL1   H20 4561   0.990   6.318   4.514 -2.1569  0.4786 -1.7905
   46CHL1   C21 4562   1.161   6.466   4.529  0.2121 -0.2513  0.9027
   46CHL1  H21A 4563   1.231   6.400   4.583  2.1746  1.5859  0.7660
   46CHL1  H21B 4564   1.174   6.568   4.572  0.5962 -0.1117  0.4743
   46CHL1  H21C 4565   1.198   6.478   4.425  1.2378 -1.0953  1.1586
   46CHL1   C22 4566   0.943   6.510   4.430 -0.1538 -0.6107  0.0928
   46CHL1  H22A 4567   0.832   6.499   4.433 -0.2472  0.5349  1.3918
   46CHL1  H22B 4568   0.963   6.615   4.458  2.1162 -1.2105  0.9254
   46CHL1   C23 4569   0.974   6.467   4.283 -0.0356  0.1030  0.1563
   46CHL1  H23A 4570   1.083   6.467   4.260  0.3544 -1.8456  1.6798
   46CHL1  H23B 4571   0.933   6.365   4.270  1.3789 -0.3596 -0.8490
   46CHL1   C24 4572   0.907   6.552   4.178 -0.1125 -0.4333 -0.4139
   46CHL1  H24A 4573   0.800   6.551   4.207  0.4121 -0.6910  1.7146
   46CHL1  H24B 4574   0.939   6.657   4.193  0.6236 -0.8782  1.4472
   46CHL1   C25 4575   0.913   6.503   4.031  0.3306 -0.3771  0.2725
   46CHL1   H25 4576   0.882   6.396   4.033 -2.2100  0.1569 -2.2891
   46CHL1   C26 4577   0.828   6.589   3.938  0.3301 -0.1627  0.6784
   46CHL1  H26A 4578   0.836   6.568   3.829  0.5308  1.1460  0.4227
   46CHL1  H26B 4579   0.724   6.600   3.975  1.0045  0.9058  2.4235
   46CHL1  H26C 4580   0.871   6.692   3.943  0.6346 -0.1255 -1.6872
   46CHL1   C27 4581   1.055   6.508   3.973 -0.2982 -0.4912 -0.5922
   46CHL1  H27A 4582   1.102   6.420   4.022  0.9974  1.4298  1.8144
   46CHL1  H27B 4583   1.050   6.487   3.864 -2.2834  0.3263 -0.7033
   46CHL1  H27C 4584   1.104   6.603   4.004 -1.2793  0.4153 -1.6954
   47CHL1    C3 4585   1.129   0.265   5.584  0.2639  0.0124  0.0653
   47CHL1    H3 4586   1.143   0.370   5.550 -0.5865 -0.3292 -1.4180
   47CHL1    O3 4587   1.137   0.255   5.723  0.7550 -0.5082  0.0247
   47CHL1   H3' 4588   1.140   0.160   5.740 -3.4446 -0.9714 -0.7556
   47CHL1    C4 4589   0.992   0.215   5.545  0.3528  0.9321  0.3173
   47CHL1   H4A 4590   0.968   0.115   5.588  1.5571  2.2410  4.4414
   47CHL1   H4B 4591   0.909   0.279   5.582 -1.9186 -0.3670 -2.1389
   47CHL1    C5 4592   0.989   0.205   5.394 -0.5687  0.2249  0.4426
   47CHL1    C6 4593   0.882   0.256   5.335 -0.8222 -0.0670  0.3665
   47CHL1    H6 4594   0.801   0.288   5.403 -0.5407  1.8923 -0.1422
   47CHL1    C7 4595   0.852   0.250   5.185 -0.3267 -0.1348  0.1755
   47CHL1   H7A 4596   0.758   0.204   5.148 -1.2635  2.0004 -0.2255
   47CHL1   H7B 4597   0.867   0.354   5.150 -2.1347  0.4666  1.0563
   47CHL1    C8 4598   0.966   0.171   5.102  0.1640  0.5028 -0.4145
   47CHL1    H8 4599   0.949   0.062   5.086  3.8992 -0.1324 -1.1190
   47CHL1   C14 4600   0.981   0.226   4.963 -0.0958 -0.3401 -0.6731
   47CHL1   H14 4601   1.018   0.331   4.963  0.6529 -0.5361 -2.9800
   47CHL1   C15 4602   0.846   0.245   4.888  0.0199 -0.4684 -0.3901
   47CHL1  H15A 4603   0.786   0.152   4.904  2.5142 -2.0304  0.5552
   47CHL1  H15B 4604   0.792   0.340   4.908 -0.9309 -0.9598 -0.5472
   47CHL1   C16 4605   0.879   0.253   4.745  0.5681  0.0372  0.0440
   47CHL1  H16A 4606   0.840   0.167   4.688  0.9920  0.3948 -0.7983
   47CHL1  H16B 4607   0.841   0.346   4.696  0.7399 -0.7016 -1.5385
   47CHL1   C17 4608   1.035   0.241   4.736 -0.1273  1.3864  0.1614
   47CHL1   H17 4609   1.084   0.340   4.749 -1.4342  1.9994  0.5880
   47CHL1   C13 4610   1.069   0.164   4.861 -0.3198  0.1962 -0.6297
   47CHL1   C18 4611   1.029   0.014   4.844 -0.0788 -0.0068  0.5232
   47CHL1  H18A 4612   1.085  -0.044   4.768  0.7091  1.5901 -0.1781
   47CHL1  H18B 4613   1.038  -0.038   4.942  0.9198 -0.1716  0.3580
   47CHL1  H18C 4614   0.923   0.012   4.811  0.3762 -0.4803 -1.0193
   47CHL1   C12 4615   1.211   0.175   4.920 -0.0001 -0.2735 -0.1517
   47CHL1  H12A 4616   1.279   0.112   4.859  2.1283  0.0702  1.7079
   47CHL1  H12B 4617   1.239   0.282   4.921 -0.6301 -0.1059  0.8415
   47CHL1   C11 4618   1.213   0.121   5.068 -0.3049 -0.0279  0.4971
   47CHL1  H11A 4619   1.211   0.010   5.066  3.0661 -0.1800 -1.1760
   47CHL1  H11B 4620   1.312   0.133   5.118  0.2603  2.2970 -1.0077
   47CHL1    C9 4621   1.102   0.183   5.166  0.2988  0.4943 -0.2470
   47CHL1    H9 4622   1.128   0.291   5.175  1.4237  0.2639 -0.4658
   47CHL1   C10 4623   1.103   0.133   5.316 -0.2824  0.2106  0.2518
   47CHL1   C19 4624   1.086  -0.017   5.329  1.0151 -0.3903 -0.1199
   47CHL1  H19A 4625   1.173  -0.058   5.273  2.6278  2.1481  0.3545
   47CHL1  H19B 4626   1.076  -0.034   5.439  0.9463 -1.4471 -0.2787
   47CHL1  H19C 4627   0.988  -0.052   5.291 -0.1244  0.6617  1.6479
   47CHL1    C1 4628   1.238   0.176   5.374  0.0161  0.1114 -0.1292
   47CHL1   H1A 4629   1.316   0.106   5.338 -1.2409 -0.7423 -1.2671
   47CHL1   H1B 4630   1.257   0.282   5.345  1.2517  0.0081  0.2219
   47CHL1    C2 4631   1.237   0.176   5.526 -0.1968  0.7796 -0.4163
   47CHL1   H2A 4632   1.341   0.201   5.554  0.3841  0.1320 -1.9264
   47CHL1   H2B 4633   1.213   0.073   5.560  0.2914 -0.2874 -3.0608
   47CHL1   C20 4634   1.084   0.184   4.603  0.2846  0.1385  1.2590
   47CHL1   H20 4635   1.054   0.078   4.599 -0.9070  0.3689  2.9392
   47CHL1   C21 4636   1.243   0.185   4.590  0.3022 -0.4534  0.4390
   47CHL1  H21A 4637   1.293   0.089   4.617  0.5997 -0.7739 -1.1269
   47CHL1  H21B 4638   1.279   0.275   4.644 -1.3599  0.7259 -0.3412
   47CHL1  H21C 4639   1.277   0.204   4.486  1.7004  1.7264  1.2154
   47CHL1   C22 4640   1.019   0.268   4.483 -0.5099  0.1072  0.2130
   47CHL1  H22A 4641   1.065   0.217   4.395  1.6113  0.6094  0.9522
   47CHL1  H22B 4642   0.909   0.254   4.484 -0.4773 -0.1754  1.0455
   47CHL1   C23 4643   1.061   0.416   4.472 -0.5329  0.2911  0.3188
   47CHL1  H23A 4644   1.043   0.471   4.567 -2.0548 -1.2790  1.0116
   47CHL1  H23B 4645   1.169   0.409   4.446 -1.3360 -0.2248 -3.4662
   47CHL1   C24 4646   0.999   0.487   4.354  0.3475  0.6843  0.2025
   47CHL1  H24A 4647   0.994   0.414   4.270 -0.0973  0.1416  0.6954
   47CHL1  H24B 4648   0.890   0.509   4.365 -0.1640 -1.1225 -0.7798
   47CHL1   C25 4649   1.067   0.620   4.321 -0.1885  0.3281  0.0565
   47CHL1   H25 4650   1.174   0.590   4.327 -0.6871 -1.4340  0.6623
   47CHL1   C26 4651   1.024   0.676   4.171  0.9108  0.0180 -0.0065
   47CHL1  H26A 4652   1.085   0.761   4.134 -0.2401  0.5712 -0.7200
   47CHL1  H26B 4653   1.044   0.590   4.103  0.0938  0.7678 -1.2391
   47CHL1  H26C 4654   0.915   0.699   4.175  0.8119 -0.4210 -0.1572
   47CHL1   C27 4655   1.027   0.724   4.421  0.3242  0.1000  0.3544
   47CHL1  H27A 4656   0.922   0.754   4.401  0.2789  0.6280  1.3254
   47CHL1  H27B 4657   1.039   0.688   4.526 -1.2503  0.8457  0.8322
   47CHL1  H27C 4658   1.086   0.817   4.408  1.4767 -0.7106 -0.4043
   48CHL1    C3 4659   6.202   0.084   5.734 -0.5589  0.7786 -0.0701
   48CHL1    H3 4660   6.299   0.139   5.731 -0.1757  0.1894  0.8700
   48CHL1    O3 4661   6.145   0.104   5.863  0.0814 -0.5431 -0.8229
   48CHL1   H3' 4662   6.209   0.076   5.929 -0.4592 -0.5808 -0.3014
   48CHL1    C4 4663   6.106   0.148   5.632  0.3281 -0.2498 -0.2523
   48CHL1   H4A 4664   6.008   0.101   5.656  0.9881 -1.5090  0.0969
   48CHL1   H4B 4665   6.096   0.256   5.655 -1.2112 -0.4746  0.1885
   48CHL1    C5 4666   6.128   0.123   5.485 -0.1482  0.0728  0.3259
   48CHL1    C6 4667   6.135   0.220   5.395  0.3325  0.4921  0.7234
   48CHL1    H6 4668   6.114   0.325   5.422  1.6230  1.1140 -0.5831
   48CHL1    C7 4669   6.173   0.206   5.254  0.4499  0.1268  0.8432
   48CHL1   H7A 4670   6.096   0.259   5.195 -0.7081 -0.7308  1.5420
   48CHL1   H7B 4671   6.273   0.250   5.235  0.7336 -1.0369 -0.4647
   48CHL1    C8 4672   6.169   0.057   5.203  0.1510  0.0170  0.0259
   48CHL1    H8 4673   6.063   0.025   5.190 -0.0031  1.1884 -2.1627
   48CHL1   C14 4674   6.234   0.044   5.073 -0.6636 -0.5124  0.3355
   48CHL1   H14 4675   6.343   0.053   5.089 -0.3587 -4.1141  1.1771
   48CHL1   C15 4676   6.203   0.146   4.958  0.3278  0.0246  0.1144
   48CHL1  H15A 4677   6.095   0.166   4.972 -0.6591 -3.1988 -1.9035
   48CHL1  H15B 4678   6.260   0.241   4.960  0.9687 -0.2648 -2.0741
   48CHL1   C16 4679   6.236   0.074   4.832  0.1702  0.1454  0.8772
   48CHL1  H16A 4680   6.136   0.056   4.788  1.5591 -2.0119 -1.6630
   48CHL1  H16B 4681   6.303   0.122   4.758  1.7848 -2.8055  0.2575
   48CHL1   C17 4682   6.281  -0.071   4.864  0.0742  0.6078 -0.3100
   48CHL1   H17 4683   6.392  -0.067   4.868  0.0237  1.1711  0.7284
   48CHL1   C13 4684   6.218  -0.101   5.008 -1.4413 -0.2588 -0.0427
   48CHL1   C18 4685   6.073  -0.141   4.984 -0.1600 -0.1169  0.5612
   48CHL1  H18A 4686   6.068  -0.244   4.943  0.7989 -0.5320  1.4380
   48CHL1  H18B 4687   6.008  -0.145   5.073 -1.0221 -0.6369 -0.0772
   48CHL1  H18C 4688   6.028  -0.070   4.912  0.6459  0.2719  0.4281
   48CHL1   C12 4689   6.300  -0.188   5.105  0.2971  0.6749 -0.3053
   48CHL1  H12A 4690   6.297  -0.293   5.069  1.7418  0.8544 -1.0328
   48CHL1  H12B 4691   6.407  -0.159   5.102  0.2474  1.1974  1.4804
   48CHL1   C11 4692   6.253  -0.177   5.247 -0.1931 -0.0494 -0.4871
   48CHL1  H11A 4693   6.152  -0.223   5.254 -0.0115 -0.2479  1.4904
   48CHL1  H11B 4694   6.322  -0.234   5.314  0.6816  1.7246  0.1837
   48CHL1    C9 4695   6.238  -0.034   5.302 -0.9426  0.5459 -0.5792
   48CHL1    H9 4696   6.336   0.017   5.316 -0.5656  0.0778 -1.4764
   48CHL1   C10 4697   6.171  -0.018   5.443 -0.3715  0.0588  0.7437
   48CHL1   C19 4698   6.040  -0.102   5.446 -0.0046  0.1138  0.1587
   48CHL1  H19A 4699   6.068  -0.210   5.449  1.7490  0.5556  1.5667
   48CHL1  H19B 4700   5.968  -0.080   5.527 -0.9599 -0.1503 -0.6008
   48CHL1  H19C 4701   5.994  -0.099   5.345  1.5028  0.2794 -0.5570
   48CHL1    C1 4702   6.270  -0.083   5.553  0.3056  0.0103  0.4734
   48CHL1   H1A 4703   6.277  -0.191   5.526 -1.0287 -0.2183  0.9879
   48CHL1   H1B 4704   6.367  -0.030   5.539 -0.7428  1.8806 -0.0462
   48CHL1    C2 4705   6.221  -0.065   5.698 -0.2469  0.1374  0.4995
   48CHL1   H2A 4706   6.290  -0.111   5.771 -1.6288 -0.0266  1.7443
   48CHL1   H2B 4707   6.121  -0.113   5.706  0.7742 -2.6593 -1.6321
   48CHL1   C20 4708   6.263  -0.169   4.749 -0.5298 -0.3754 -0.1322
   48CHL1   H20 4709   6.156  -0.172   4.717 -0.8476 -1.8093  0.9619
   48CHL1   C21 4710   6.305  -0.315   4.793 -0.2877 -0.4938 -0.7686
   48CHL1  H21A 4711   6.312  -0.385   4.706 -0.8151 -1.3446 -0.1393
   48CHL1  H21B 4712   6.402  -0.295   4.844 -1.0195  0.7429  0.1914
   48CHL1  H21C 4713   6.238  -0.366   4.866 -1.5716  0.4417 -1.2559
   48CHL1   C22 4714   6.333  -0.126   4.610  0.1576 -0.5816  0.6362
   48CHL1  H22A 4715   6.300  -0.023   4.582  3.1381  0.5058  0.8176
   48CHL1  H22B 4716   6.442  -0.114   4.623 -0.0513  1.6756  0.7518
   48CHL1   C23 4717   6.312  -0.230   4.489  0.2003 -0.3004  0.1933
   48CHL1  H23A 4718   6.366  -0.324   4.512 -0.5586 -1.3299 -1.9607
   48CHL1  H23B 4719   6.204  -0.254   4.474 -0.0071  0.1478  0.9071
   48CHL1   C24 4720   6.375  -0.188   4.357 -0.2233 -0.5008  0.8504
   48CHL1  H24A 4721   6.339  -0.086   4.333  1.7496  0.3785  1.3941
   48CHL1  H24B 4722   6.485  -0.181   4.373 -0.4716  1.1438  2.1728
   48CHL1   C25 4723   6.342  -0.285   4.234  0.0696 -1.1166 -0.0789
   48CHL1   H25 4724   6.231  -0.284   4.227  0.0848 -0.6421 -0.2303
   48CHL1   C26 4725   6.402  -0.236   4.103  0.1105  0.5970  0.4335
   48CHL1  H26A 4726   6.389  -0.126   4.090 -1.0329  0.5576  1.0690
   48CHL1  H26B 4727   6.512  -0.248   4.103  0.0994  0.4559 -0.2906
   48CHL1  H26C 4728   6.359  -0.284   4.012 -2.4981 -1.2330  2.4475
   48CHL1   C27 4729   6.384  -0.420   4.271 -0.3353 -0.4489 -0.0990
   48CHL1  H27A 4730   6.378  -0.485   4.181 -1.6480  3.0326 -2.7233
   48CHL1  H27B 4731   6.490  -0.419   4.305 -0.6234 -1.4684  0.8984
   48CHL1  H27C 4732   6.324  -0.468   4.351  1.4234 -1.7080  0.5259
   49CHL1    C3 4733   4.169   4.095   2.157 -0.1242 -0.0385  0.3574
   49CHL1    H3 4734   4.203   4.199   2.138 -0.3610  0.0448  0.3833
   49CHL1    O3 4735   4.106   4.062   2.031  0.0680 -0.2550 -0.6771
   49CHL1   H3' 4736   4.086   3.968   2.027 -1.6001 -0.0570  1.1256
   49CHL1    C4 4737   4.282   3.998   2.184  0.5279 -0.2682 -0.4817
   49CHL1   H4A 4738   4.256   3.890   2.181 -0.4566 -0.0748  0.3870
   49CHL1   H4B 4739   4.350   4.020   2.099 -1.5348 -1.8269 -2.6820
   49CHL1    C5 4740   4.343   4.037   2.316 -0.6752  1.0070  0.4762
   49CHL1    C6 4741   4.476   4.059   2.319 -0.4969  0.3635  0.3189
   49CHL1    H6 4742   4.530   4.041   2.225 -3.7290 -1.2485 -1.4060
   49CHL1    C7 4743   4.547   4.095   2.443 -0.5408 -0.0266 -0.5330
   49CHL1   H7A 4744   4.633   4.026   2.457 -0.0373  0.8566  0.9214
   49CHL1   H7B 4745   4.575   4.200   2.424 -0.4932  0.0517 -0.0417
   49CHL1    C8 4746   4.465   4.070   2.570  0.0997  0.4140 -0.9146
   49CHL1    H8 4747   4.462   3.959   2.574  3.6678  0.0519 -3.2426
   49CHL1   C14 4748   4.539   4.122   2.694  0.1059  0.3240 -0.0234
   49CHL1   H14 4749   4.534   4.231   2.674 -1.3921  0.5637  1.4201
   49CHL1   C15 4750   4.680   4.065   2.720  0.7833 -0.5252  0.6188
   49CHL1  H15A 4751   4.678   3.955   2.706 -1.6934 -0.1626 -3.3088
   49CHL1  H15B 4752   4.753   4.115   2.654  1.0279 -1.5168  0.1161
   49CHL1   C16 4753   4.708   4.103   2.865  0.7693  0.4700 -0.2829
   49CHL1  H16A 4754   4.727   4.010   2.923 -0.0075  0.8184  0.5438
   49CHL1  H16B 4755   4.795   4.170   2.883  1.4426  0.0237 -1.7146
   49CHL1   C17 4756   4.572   4.166   2.918  0.0816 -0.1701 -0.9600
   49CHL1   H17 4757   4.571   4.275   2.896 -0.5965 -0.3937 -2.1206
   49CHL1   C13 4758   4.463   4.107   2.826  0.2527  0.0433  0.2544
   49CHL1   C18 4759   4.439   3.961   2.856 -0.3212  0.4243  0.3970
   49CHL1  H18A 4760   4.529   3.897   2.863  0.0848  0.8885 -0.4527
   49CHL1  H18B 4761   4.380   3.965   2.950  0.7587  0.8594  1.0772
   49CHL1  H18C 4762   4.378   3.916   2.775 -0.4514 -1.4440  1.4582
   49CHL1   C12 4763   4.333   4.195   2.808 -0.0786  0.7410 -0.5843
   49CHL1  H12A 4764   4.265   4.202   2.895 -1.5032  0.9385 -1.6612
   49CHL1  H12B 4765   4.363   4.301   2.790 -1.6842  1.2750 -0.2830
   49CHL1   C11 4766   4.245   4.150   2.683  0.4507 -0.2858 -0.3666
   49CHL1  H11A 4767   4.197   4.058   2.723  2.0027 -0.3179  1.5119
   49CHL1  H11B 4768   4.161   4.222   2.671 -0.5447 -1.1920  0.8888
   49CHL1    C9 4769   4.325   4.123   2.552 -0.4934  0.2221  0.0369
   49CHL1    H9 4770   4.340   4.225   2.512 -0.6364  0.5744  0.8696
   49CHL1   C10 4771   4.250   4.043   2.442 -0.0016 -0.8434 -0.2848
   49CHL1   C19 4772   4.199   3.903   2.489  0.0470  0.2184  0.3733
   49CHL1  H19A 4773   4.111   3.922   2.555  1.2404 -0.1685  2.1531
   49CHL1  H19B 4774   4.172   3.838   2.403 -0.8501 -0.0599  0.8579
   49CHL1  H19C 4775   4.279   3.843   2.538  0.1159  1.2792  1.6140
   49CHL1    C1 4776   4.124   4.135   2.404  0.1254  0.8442 -0.0809
   49CHL1   H1A 4777   4.055   4.142   2.491  0.0948 -0.9378  0.0664
   49CHL1   H1B 4778   4.164   4.237   2.385  0.1462  0.5324 -2.0080
   49CHL1    C2 4779   4.061   4.094   2.264  0.7805 -0.3499  0.4648
   49CHL1   H2A 4780   3.986   4.171   2.239 -0.3667 -1.1739  1.2645
   49CHL1   H2B 4781   4.002   4.000   2.259  0.1500  0.1243 -1.6291
   49CHL1   C20 4782   4.551   4.149   3.077  0.3578 -0.7653  0.6649
   49CHL1   H20 4783   4.558   4.039   3.092  1.3886 -0.5351  2.1981
   49CHL1   C21 4784   4.414   4.190   3.121 -0.1239  0.1841  0.1790
   49CHL1  H21A 4785   4.400   4.298   3.097 -0.5034  0.7434  2.6582
   49CHL1  H21B 4786   4.404   4.186   3.232  4.4022  3.1530  0.9910
   49CHL1  H21C 4787   4.339   4.131   3.065 -0.5739  0.5194  0.4175
   49CHL1   C22 4788   4.657   4.219   3.164 -0.4033  0.5329 -0.0791
   49CHL1  H22A 4789   4.757   4.195   3.123 -0.2342  3.3888 -1.5917
   49CHL1  H22B 4790   4.645   4.330   3.167 -0.3791  0.5226  2.0190
   49CHL1   C23 4791   4.674   4.158   3.305 -0.1471  0.6523 -0.0574
   49CHL1  H23A 4792   4.580   4.167   3.363  0.4055  0.5062  0.8866
   49CHL1  H23B 4793   4.700   4.050   3.303  0.7328  0.8578 -1.6529
   49CHL1   C24 4794   4.789   4.223   3.381 -0.7816 -0.2647  0.1772
   49CHL1  H24A 4795   4.881   4.197   3.325 -1.0349 -0.7076 -0.0370
   49CHL1  H24B 4796   4.780   4.334   3.388  2.9570  0.0439  2.9149
   49CHL1   C25 4797   4.803   4.176   3.528  0.4311 -0.0876  0.1153
   49CHL1   H25 4798   4.794   4.066   3.532 -0.8942  0.0298  1.8189
   49CHL1   C26 4799   4.934   4.229   3.591  0.0975  0.2830  0.2273
   49CHL1  H26A 4800   4.953   4.184   3.691 -2.6423 -0.5552  0.4569
   49CHL1  H26B 4801   5.019   4.212   3.521 -0.7877 -0.1437 -0.7827
   49CHL1  H26C 4802   4.927   4.339   3.601  0.2102  0.2527  0.6625
   49CHL1   C27 4803   4.679   4.230   3.619  0.6468  0.6814  0.1576
   49CHL1  H27A 4804   4.703   4.205   3.725 -0.8934 -1.2249  0.1271
   49CHL1  H27B 4805   4.661   4.339   3.612 -2.0397  0.2892  0.0996
   49CHL1  H27C 4806   4.597   4.164   3.582 -0.4567  2.2881 -0.3759
   50CHL1    C3 4807   4.079   3.512   2.340 -0.3932 -0.4786  0.1189
   50CHL1    H3 4808   4.001   3.561   2.403 -1.6281 -1.5513 -0.5446
   50CHL1    O3 4809   4.115   3.577   2.222  0.0875 -0.4234 -0.1259
   50CHL1   H3' 4810   4.177   3.515   2.185  0.1647 -0.6720  0.4073
   50CHL1    C4 4811   4.206   3.495   2.428 -0.0337 -0.6518  0.3073
   50CHL1   H4A 4812   4.301   3.463   2.379 -0.1581 -0.7240  0.1101
   50CHL1   H4B 4813   4.236   3.596   2.463 -0.2861 -0.6451  0.5070
   50CHL1    C5 4814   4.178   3.413   2.551 -0.4450 -0.4409  0.2775
   50CHL1    C6 4815   4.192   3.459   2.678  1.2276  0.7856 -0.2019
   50CHL1    H6 4816   4.224   3.564   2.694  0.3275  1.1175 -0.5419
   50CHL1    C7 4817   4.186   3.369   2.806  0.1309 -0.4782 -0.0531
   50CHL1   H7A 4818   4.271   3.383   2.875 -0.4420  0.6998  0.4366
   50CHL1   H7B 4819   4.086   3.384   2.852 -1.3498 -2.8118 -2.2137
   50CHL1    C8 4820   4.178   3.220   2.765  0.0850 -0.5503 -0.6451
   50CHL1    H8 4821   4.277   3.186   2.728  0.4455  1.8420 -2.0640
   50CHL1   C14 4822   4.144   3.134   2.884  0.0628  0.4305  0.1762
   50CHL1   H14 4823   4.053   3.185   2.924  0.9958  1.7525  0.6677
   50CHL1   C15 4824   4.240   3.139   3.005  0.5773 -0.3298  0.4675
   50CHL1  H15A 4825   4.347   3.122   2.979  0.3298  1.0392 -1.7061
   50CHL1  H15B 4826   4.231   3.237   3.056 -0.6416 -0.1283 -0.1031
   50CHL1   C16 4827   4.186   3.020   3.092  0.3004 -0.4504  0.1662
   50CHL1  H16A 4828   4.276   2.956   3.110  1.6513  1.3619  0.0875
   50CHL1  H16B 4829   4.154   3.063   3.188  1.3411  3.0384 -0.9115
   50CHL1   C17 4830   4.081   2.942   3.006  0.2469  0.7945 -0.1106
   50CHL1   H17 4831   3.980   2.980   3.032 -0.3262 -0.6329 -0.1556
   50CHL1   C13 4832   4.103   2.983   2.863  0.7720  0.0664 -0.2324
   50CHL1   C18 4833   4.232   2.913   2.803  0.2414 -0.1412  0.0170
   50CHL1  H18A 4834   4.197   2.850   2.718 -1.4691  2.1328 -1.1157
   50CHL1  H18B 4835   4.311   2.977   2.757  1.2677 -1.5771 -0.2849
   50CHL1  H18C 4836   4.287   2.845   2.871 -2.2886 -1.7835  0.5660
   50CHL1   C12 4837   3.988   2.992   2.764  0.2013  0.4160  0.2394
   50CHL1  H12A 4838   3.957   2.886   2.747 -0.5652  0.3979  1.6428
   50CHL1  H12B 4839   3.893   3.042   2.793 -0.5463 -0.5384 -0.4817
   50CHL1   C11 4840   4.032   3.061   2.640  0.5056  0.7748  0.0979
   50CHL1  H11A 4841   4.115   3.004   2.593  0.4558  0.6456  0.1653
   50CHL1  H11B 4842   3.944   3.046   2.574  0.0090 -0.6063  1.0221
   50CHL1    C9 4843   4.078   3.208   2.653 -0.2216 -0.5874 -0.2291
   50CHL1    H9 4844   3.991   3.266   2.687 -0.1932  0.1990 -1.4221
   50CHL1   C10 4845   4.115   3.280   2.527 -0.1324  0.1134 -0.4298
   50CHL1   C19 4846   4.230   3.200   2.458 -0.6583 -0.6626  0.1062
   50CHL1  H19A 4847   4.328   3.236   2.495 -1.0359  2.8790 -1.9060
   50CHL1  H19B 4848   4.211   3.091   2.447  0.0972 -0.6656 -1.4371
   50CHL1  H19C 4849   4.226   3.235   2.353 -2.0750 -0.3021  0.2557
   50CHL1    C1 4850   3.995   3.295   2.425  0.2890  0.4859 -0.0774
   50CHL1   H1A 4851   3.954   3.196   2.397 -0.6484  1.0611 -0.7956
   50CHL1   H1B 4852   3.911   3.347   2.475 -1.0808  1.8401 -3.4948
   50CHL1    C2 4853   4.024   3.374   2.300  0.3267 -0.0407  0.0399
   50CHL1   H2A 4854   3.927   3.376   2.245 -0.4955  0.7296  1.4357
   50CHL1   H2B 4855   4.098   3.316   2.241 -0.2111 -0.7497  0.0423
   50CHL1   C20 4856   4.075   2.788   3.022 -0.9066 -0.2284  0.0694
   50CHL1   H20 4857   4.144   2.733   2.955 -1.3073 -1.2365  0.4735
   50CHL1   C21 4858   3.932   2.736   2.984 -0.2966  0.0708 -0.2809
   50CHL1  H21A 4859   3.913   2.644   3.045 -0.0499 -1.1572 -1.9948
   50CHL1  H21B 4860   3.902   2.726   2.878 -2.1084  1.9511 -0.0115
   50CHL1  H21C 4861   3.860   2.811   3.023  0.7510  0.9471  0.0072
   50CHL1   C22 4862   4.115   2.741   3.164  0.6124  0.5419  0.4856
   50CHL1  H22A 4863   4.110   2.630   3.163 -1.4921  0.5987 -0.0319
   50CHL1  H22B 4864   4.215   2.779   3.193  1.3941  0.2799 -1.7151
   50CHL1   C23 4865   4.016   2.780   3.274  0.0306 -0.0218  0.4564
   50CHL1  H23A 4866   3.983   2.886   3.280 -1.9440 -0.5613 -0.1224
   50CHL1  H23B 4867   3.920   2.730   3.249  0.8202 -0.0727 -2.8980
   50CHL1   C24 4868   4.053   2.731   3.415  0.2184 -0.0388  0.2492
   50CHL1  H24A 4869   4.143   2.786   3.449 -0.3350  0.8694  0.3013
   50CHL1  H24B 4870   3.978   2.777   3.483 -0.6759  1.6164 -1.7499
   50CHL1   C25 4871   4.066   2.578   3.436  0.0027  0.3721 -0.0454
   50CHL1   H25 4872   4.117   2.522   3.355 -2.1450 -3.2641  0.9166
   50CHL1   C26 4873   4.140   2.557   3.567 -0.6127  0.0579 -0.8036
   50CHL1  H26A 4874   4.076   2.568   3.657  0.4999 -0.5068  0.0954
   50CHL1  H26B 4875   4.177   2.453   3.569 -0.2649  0.1713 -1.1349
   50CHL1  H26C 4876   4.225   2.629   3.568 -1.0745  0.7080  2.0134
   50CHL1   C27 4877   3.927   2.520   3.460 -0.6068 -0.2211  1.2588
   50CHL1  H27A 4878   3.867   2.512   3.367  0.1402  0.7288  0.6789
   50CHL1  H27B 4879   3.939   2.412   3.486 -1.8818 -1.0272 -1.2055
   50CHL1  H27C 4880   3.867   2.566   3.541 -0.8335  0.0863  0.9152
   51CHL1    C3 4881   4.242   4.662   2.075  0.3011 -0.4086 -0.4288
   51CHL1    H3 4882   4.161   4.731   2.107  1.6371  0.9886  0.1110
   51CHL1    O3 4883   4.246   4.658   1.935  0.0193  0.3944 -0.2377
   51CHL1   H3' 4884   4.154   4.640   1.913 -0.3561  2.5582 -0.6398
   51CHL1    C4 4885   4.384   4.719   2.121  0.2848  0.7217  1.0192
   51CHL1   H4A 4886   4.460   4.651   2.076 -1.9105 -0.8130 -0.5874
   51CHL1   H4B 4887   4.386   4.822   2.079 -0.5110  1.0853  1.8461
   51CHL1    C5 4888   4.397   4.736   2.268  0.4005  0.1493 -0.0768
   51CHL1    C6 4889   4.427   4.857   2.328  0.0338  0.1497 -0.3337
   51CHL1    H6 4890   4.451   4.943   2.264 -1.0892  0.3466 -0.5045
   51CHL1    C7 4891   4.428   4.886   2.481 -0.0973  0.0753  1.0367
   51CHL1   H7A 4892   4.515   4.941   2.523  0.5409 -1.5316  1.8932
   51CHL1   H7B 4893   4.337   4.946   2.503 -0.4649  0.4867 -1.3202
   51CHL1    C8 4894   4.421   4.747   2.555 -0.6016 -0.4925 -0.2700
   51CHL1    H8 4895   4.524   4.705   2.553 -0.6679 -0.6741 -2.1155
   51CHL1   C14 4896   4.394   4.767   2.704 -0.0003  0.8024  0.8769
   51CHL1   H14 4897   4.292   4.810   2.708 -0.3633  0.0410 -0.0292
   51CHL1   C15 4898   4.486   4.855   2.787 -0.4409  0.2160  0.1423
   51CHL1  H15A 4899   4.595   4.836   2.778 -0.4414  0.4763 -0.4507
   51CHL1  H15B 4900   4.479   4.963   2.763  2.8987  1.0129  2.1443
   51CHL1   C16 4901   4.446   4.830   2.932 -0.3786  0.6126  0.4744
   51CHL1  H16A 4902   4.535   4.778   2.974  0.9623  0.2889 -2.5303
   51CHL1  H16B 4903   4.416   4.916   2.995  0.8642  1.7745 -0.4493
   51CHL1   C17 4904   4.347   4.705   2.919 -0.5523 -0.6878 -0.2189
   51CHL1   H17 4905   4.247   4.752   2.907 -0.8355 -1.7054 -2.1782
   51CHL1   C13 4906   4.379   4.641   2.789  0.9744 -0.3275  0.3142
   51CHL1   C18 4907   4.508   4.566   2.807  0.2162  0.5362 -0.2669
   51CHL1  H18A 4908   4.536   4.519   2.711 -2.3335 -1.5924 -0.0963
   51CHL1  H18B 4909   4.593   4.619   2.856  0.7085 -0.3692 -0.1264
   51CHL1  H18C 4910   4.492   4.481   2.876  1.2541  1.2139  0.8587
   51CHL1   C12 4911   4.263   4.558   2.730 -0.3991  0.4322 -0.9167
   51CHL1  H12A 4912   4.238   4.461   2.777 -0.9899  1.8107  1.8353
   51CHL1  H12B 4913   4.176   4.628   2.741  2.0210  3.3402  1.6180
   51CHL1   C11 4914   4.304   4.522   2.589 -0.2064  0.6296  0.0209
   51CHL1  H11A 4915   4.389   4.451   2.585 -0.6215  0.1661 -1.2451
   51CHL1  H11B 4916   4.217   4.466   2.548 -0.3150  1.2121 -0.5520
   51CHL1    C9 4917   4.327   4.645   2.496 -0.1306  0.5094  0.2342
   51CHL1    H9 4918   4.231   4.702   2.497 -1.0835 -0.8943 -2.1995
   51CHL1   C10 4919   4.355   4.608   2.354  0.2432  0.3468 -0.4692
   51CHL1   C19 4920   4.475   4.507   2.350  0.2038 -0.0955  0.6341
   51CHL1  H19A 4921   4.431   4.405   2.359 -3.4357  1.2464 -0.1353
   51CHL1  H19B 4922   4.522   4.504   2.249  1.1511 -0.6528  1.0809
   51CHL1  H19C 4923   4.558   4.514   2.424  1.2919  0.8670 -0.6179
   51CHL1    C1 4924   4.229   4.543   2.297 -0.0424  0.5316  0.2003
   51CHL1   H1A 4925   4.207   4.444   2.340 -0.5283  0.7493  0.4628
   51CHL1   H1B 4926   4.151   4.610   2.339 -0.8512  0.0373 -0.5014
   51CHL1    C2 4927   4.224   4.529   2.142  0.1506  0.1533 -0.1246
   51CHL1   H2A 4928   4.126   4.484   2.113 -0.3712  0.1850  1.5187
   51CHL1   H2B 4929   4.309   4.468   2.106 -0.1323 -1.4763  1.8096
   51CHL1   C20 4930   4.329   4.620   3.053 -0.3718 -0.4362 -0.3563
   51CHL1   H20 4931   4.423   4.561   3.065 -0.6476 -0.9320 -0.5876
   51CHL1   C21 4932   4.215   4.519   3.052  0.3392  0.7337  0.7009
   51CHL1  H21A 4933   4.191   4.483   3.154 -1.2306  0.1415  0.1439
   51CHL1  H21B 4934   4.255   4.441   2.984 -0.4067  1.8102 -1.0349
   51CHL1  H21C 4935   4.127   4.565   3.003  1.0092  2.3947  0.9652
   51CHL1   C22 4936   4.320   4.715   3.176  0.3147 -0.5802 -0.1976
   51CHL1  H22A 4937   4.404   4.787   3.189 -0.0207 -0.4476  1.4139
   51CHL1  H22B 4938   4.238   4.785   3.154  1.0964  0.1904 -0.7238
   51CHL1   C23 4939   4.290   4.650   3.313  0.2378  0.1441 -0.3889
   51CHL1  H23A 4940   4.188   4.606   3.312 -0.0791  0.8377 -2.4989
   51CHL1  H23B 4941   4.365   4.570   3.329  0.7741  0.7923  0.3930
   51CHL1   C24 4942   4.298   4.745   3.432  0.2485  0.3276  0.2452
   51CHL1  H24A 4943   4.396   4.795   3.419  0.5053  0.1662  1.4178
   51CHL1  H24B 4944   4.213   4.816   3.426  2.1100  2.8280  1.3862
   51CHL1   C25 4945   4.303   4.693   3.575 -0.6261  0.3403 -0.3798
   51CHL1   H25 4946   4.389   4.623   3.569 -0.1497  1.0009 -1.6487
   51CHL1   C26 4947   4.348   4.803   3.677 -0.6855 -0.3933 -0.4240
   51CHL1  H26A 4948   4.259   4.863   3.707 -0.7100 -0.9486  0.6921
   51CHL1  H26B 4949   4.363   4.743   3.769 -1.1804  1.3428  0.8426
   51CHL1  H26C 4950   4.435   4.859   3.637 -0.7202 -0.1339 -0.1332
   51CHL1   C27 4951   4.175   4.617   3.627 -0.3864 -0.1213 -0.2193
   51CHL1  H27A 4952   4.140   4.548   3.547 -0.6735 -0.2614  0.0243
   51CHL1  H27B 4953   4.204   4.569   3.723  0.1474 -2.0546 -1.2955
   51CHL1  H27C 4954   4.099   4.696   3.649 -0.7149 -0.4807 -0.0615
   52CHL1    C3 4955   4.433   5.476   2.152  0.3950 -0.4010 -0.3637
   52CHL1    H3 4956   4.350   5.549   2.162  0.2645 -0.6135  0.1276
   52CHL1    O3 4957   4.492   5.474   2.025  0.2046 -0.7674 -0.2462
   52CHL1   H3' 4958   4.542   5.555   2.020  1.4183 -1.5471 -1.9415
   52CHL1    C4 4959   4.539   5.512   2.254  0.1283  0.3704 -0.7344
   52CHL1   H4A 4960   4.635   5.457   2.238  0.8702  1.7542 -1.2230
   52CHL1   H4B 4961   4.576   5.613   2.228  1.0787  0.1169 -0.4431
   52CHL1    C5 4962   4.489   5.506   2.402 -1.0025 -0.4477  0.6003
   52CHL1    C6 4963   4.488   5.617   2.484  0.8840 -0.5469 -0.2003
   52CHL1    H6 4964   4.534   5.708   2.443  1.0397 -0.8893 -0.7896
   52CHL1    C7 4965   4.422   5.618   2.622  0.5344  0.2037  0.2534
   52CHL1   H7A 4966   4.482   5.669   2.701  0.5822 -1.4963  1.3709
   52CHL1   H7B 4967   4.324   5.670   2.621  1.2957  1.7162  0.4220
   52CHL1    C8 4968   4.415   5.473   2.681 -0.6338 -0.8826  0.1483
   52CHL1    H8 4969   4.514   5.446   2.722 -0.2307  0.5581  0.1997
   52CHL1   C14 4970   4.317   5.483   2.799  0.2560  0.2167  0.0265
   52CHL1   H14 4971   4.220   5.504   2.749 -0.2901 -0.1091  0.9344
   52CHL1   C15 4972   4.331   5.593   2.909 -0.2260 -0.9242  0.3472
   52CHL1  H15A 4973   4.428   5.636   2.938 -0.4720 -1.1979  1.6366
   52CHL1  H15B 4974   4.259   5.672   2.880  1.9611  0.8507 -0.4965
   52CHL1   C16 4975   4.271   5.532   3.029  0.3961  0.4175  0.3125
   52CHL1  H16A 4976   4.346   5.496   3.102 -0.7908 -1.2104  0.8048
   52CHL1  H16B 4977   4.200   5.597   3.085  0.3285 -0.6903  1.5542
   52CHL1   C17 4978   4.202   5.395   2.984  0.2756  0.4053  0.1234
   52CHL1   H17 4979   4.105   5.426   2.939  0.6048  2.6661  0.8338
   52CHL1   C13 4980   4.293   5.350   2.869  0.0827  0.4028 -0.0056
   52CHL1   C18 4981   4.425   5.293   2.928  0.7782 -0.0724  0.0342
   52CHL1  H18A 4982   4.410   5.194   2.977  1.7503 -0.1445  0.1930
   52CHL1  H18B 4983   4.512   5.283   2.859  2.7899 -0.9800  2.5412
   52CHL1  H18C 4984   4.460   5.361   3.009  0.0151 -0.0457  0.3509
   52CHL1   C12 4985   4.241   5.260   2.761 -0.1416  0.5348 -0.6471
   52CHL1  H12A 4986   4.215   5.163   2.809 -1.8968  1.5866  0.6980
   52CHL1  H12B 4987   4.143   5.300   2.726 -1.5113 -1.0463  1.1435
   52CHL1   C11 4988   4.328   5.234   2.641 -0.7197 -0.0513  0.1259
   52CHL1  H11A 4989   4.426   5.197   2.679 -0.7379 -0.6940 -0.4289
   52CHL1  H11B 4990   4.279   5.159   2.576  1.1250 -2.7831  1.6529
   52CHL1    C9 4991   4.362   5.374   2.577  0.4904 -0.0632  0.9583
   52CHL1    H9 4992   4.264   5.419   2.548  1.4485  1.1684 -0.5405
   52CHL1   C10 4993   4.431   5.366   2.439  0.3193 -0.3781  0.2294
   52CHL1   C19 4994   4.547   5.260   2.433 -0.5833 -0.1155  0.8390
   52CHL1  H19A 4995   4.625   5.262   2.512  1.1573  1.8927 -0.8050
   52CHL1  H19B 4996   4.491   5.165   2.448  0.3502 -0.6535  0.9717
   52CHL1  H19C 4997   4.593   5.247   2.333  1.0735  0.6250  1.4712
   52CHL1    C1 4998   4.323   5.328   2.328 -0.0332  0.3228 -1.1513
   52CHL1   H1A 4999   4.292   5.222   2.341 -0.1024  0.5641  1.1044
   52CHL1   H1B 5000   4.236   5.395   2.345  1.5386  2.2530 -0.2568
   52CHL1    C2 5001   4.370   5.336   2.180  0.0921  0.4565  0.5059
   52CHL1   H2A 5002   4.283   5.316   2.115  0.4833  0.0067  0.1145
   52CHL1   H2B 5003   4.441   5.252   2.169 -0.3367  0.1526  0.0698
   52CHL1   C20 5004   4.177   5.301   3.105  0.1630  0.1046  0.5304
   52CHL1   H20 5005   4.265   5.283   3.170 -1.2686  0.6505  2.7278
   52CHL1   C21 5006   4.120   5.165   3.061  0.6405 -0.3740  0.1079
   52CHL1  H21A 5007   4.062   5.117   3.143 -0.8742  1.3022  0.0574
   52CHL1  H21B 5008   4.207   5.104   3.028 -0.0059 -0.4136 -1.6387
   52CHL1  H21C 5009   4.048   5.178   2.978  0.9041  0.3317 -0.0194
   52CHL1   C22 5010   4.081   5.372   3.204  0.5567 -0.0057 -0.2601
   52CHL1  H22A 5011   4.140   5.459   3.240  0.4495 -0.1976  0.3901
   52CHL1  H22B 5012   3.992   5.415   3.152  0.4591 -0.1252 -0.1935
   52CHL1   C23 5013   4.051   5.290   3.333  0.0669 -0.2456  0.4377
   52CHL1  H23A 5014   3.976   5.214   3.302  0.6256  0.0395 -1.7838
   52CHL1  H23B 5015   4.145   5.250   3.377 -1.1649 -0.7183  2.7851
   52CHL1   C24 5016   3.988   5.380   3.444  0.6958 -0.0690  0.4091
   52CHL1  H24A 5017   4.009   5.338   3.545 -1.5951  0.0261  0.9855
   52CHL1  H24B 5018   4.046   5.474   3.448 -2.5016  2.0364  0.8417
   52CHL1   C25 5019   3.843   5.419   3.407  0.1110  0.2352  0.5395
   52CHL1   H25 5020   3.831   5.450   3.301 -1.4336  0.4266  0.7422
   52CHL1   C26 5021   3.754   5.290   3.430  0.6477 -0.0754  0.1831
   52CHL1  H26A 5022   3.777   5.245   3.529  1.8486  0.4934  0.1824
   52CHL1  H26B 5023   3.645   5.315   3.424  0.2487 -1.6578  0.4349
   52CHL1  H26C 5024   3.765   5.219   3.346 -0.7060  1.9296 -1.8056
   52CHL1   C27 5025   3.814   5.542   3.495 -0.0980 -0.2529 -0.1422
   52CHL1  H27A 5026   3.878   5.620   3.448  0.9736 -1.5347 -0.8883
   52CHL1  H27B 5027   3.712   5.583   3.508  0.5573  0.5753  3.6033
   52CHL1  H27C 5028   3.857   5.528   3.597 -2.5338  0.6887  1.0837
   53CHL1    C3 5029   3.375   5.388   2.222  0.3935 -0.8864  0.1766
   53CHL1    H3 5030   3.272   5.411   2.256  0.2949 -0.1507 -0.5739
   53CHL1    O3 5031   3.379   5.421   2.079 -0.2651  0.2139 -0.0774
   53CHL1   H3' 5032   3.457   5.476   2.067  0.1519 -0.1339  0.9594
   53CHL1    C4 5033   3.469   5.490   2.295  0.5847  0.0877  0.0706
   53CHL1   H4A 5034   3.573   5.484   2.255 -0.2356 -0.8022 -2.0646
   53CHL1   H4B 5035   3.437   5.595   2.276  1.6368  0.2851 -0.6735
   53CHL1    C5 5036   3.466   5.449   2.445 -0.4682  0.6097 -0.2594
   53CHL1    C6 5037   3.440   5.542   2.536 -0.7134 -0.2197  0.6316
   53CHL1    H6 5038   3.423   5.647   2.511  0.8994  0.0960  0.7557
   53CHL1    C7 5039   3.414   5.503   2.677 -0.0803 -0.3595 -0.1796
   53CHL1   H7A 5040   3.449   5.576   2.753  1.6990 -1.5904  0.2430
   53CHL1   H7B 5041   3.303   5.500   2.687 -0.0157 -1.6073  0.3479
   53CHL1    C8 5042   3.480   5.377   2.732 -0.2907  0.8993  0.2124
   53CHL1    H8 5043   3.591   5.380   2.736 -0.0038 -1.7316 -2.3231
   53CHL1   C14 5044   3.420   5.340   2.873  0.1619  0.1323 -0.5175
   53CHL1   H14 5045   3.313   5.318   2.852  0.5775  0.1731 -2.9874
   53CHL1   C15 5046   3.436   5.440   2.985 -0.7171  0.4065  1.0456
   53CHL1  H15A 5047   3.536   5.489   2.979  1.4685 -3.6515  0.9325
   53CHL1  H15B 5048   3.375   5.532   2.969  2.2325  2.1908 -0.9621
   53CHL1   C16 5049   3.414   5.355   3.109 -0.2033 -0.2808  0.1195
   53CHL1  H16A 5050   3.489   5.362   3.191 -0.0782 -0.6387  0.0364
   53CHL1  H16B 5051   3.327   5.396   3.165  0.3108  2.4590 -0.9309
   53CHL1   C17 5052   3.390   5.203   3.066 -0.1935 -0.4178 -0.4197
   53CHL1   H17 5053   3.282   5.198   3.042 -0.0375  2.3544 -2.1370
   53CHL1   C13 5054   3.468   5.206   2.934  0.4479  0.2364  0.0498
   53CHL1   C18 5055   3.622   5.210   2.969  0.2741 -0.5929 -0.2653
   53CHL1  H18A 5056   3.651   5.296   3.032 -0.1870  2.2535 -3.6312
   53CHL1  H18B 5057   3.652   5.117   3.022 -0.9223  0.2248  1.9362
   53CHL1  H18C 5058   3.687   5.211   2.878  0.0689 -0.2760 -0.4079
   53CHL1   C12 5059   3.438   5.091   2.834  0.0242  0.5432  0.0821
   53CHL1  H12A 5060   3.506   5.006   2.855  1.4255  0.8120 -2.8685
   53CHL1  H12B 5061   3.332   5.058   2.825  0.7411 -1.5763 -1.2821
   53CHL1   C11 5062   3.484   5.128   2.687  0.5241  0.3352 -0.0435
   53CHL1  H11A 5063   3.594   5.109   2.688  0.7584  1.3211 -2.3850
   53CHL1  H11B 5064   3.439   5.039   2.638  1.0739 -1.7333  2.8783
   53CHL1    C9 5065   3.437   5.269   2.632  0.5993 -0.0876 -0.4483
   53CHL1    H9 5066   3.326   5.273   2.633  0.6190  0.5873 -0.2251
   53CHL1   C10 5067   3.473   5.300   2.488 -0.0196  0.2754  0.1235
   53CHL1   C19 5068   3.629   5.273   2.474 -0.2186  0.3562  0.0573
   53CHL1  H19A 5069   3.653   5.164   2.476 -0.5539  0.2749 -0.2337
   53CHL1  H19B 5070   3.673   5.302   2.376 -0.6767  1.7868  0.2567
   53CHL1  H19C 5071   3.681   5.318   2.560 -0.7420  2.2093 -0.5462
   53CHL1    C1 5072   3.392   5.208   2.400 -0.0278 -0.4041  0.1654
   53CHL1   H1A 5073   3.431   5.105   2.406 -0.8642 -0.7389 -0.0171
   53CHL1   H1B 5074   3.284   5.210   2.426  0.1371 -0.6573  0.9119
   53CHL1    C2 5075   3.405   5.246   2.250  0.0112 -0.0058  0.3838
   53CHL1   H2A 5076   3.340   5.182   2.187 -2.3830  1.7022  0.9748
   53CHL1   H2B 5077   3.509   5.212   2.228 -0.9754 -2.1164 -1.3486
   53CHL1   C20 5078   3.414   5.108   3.184  0.2215 -0.5924 -0.0308
   53CHL1   H20 5079   3.508   5.142   3.233  0.9964 -0.1685 -1.7437
   53CHL1   C21 5080   3.427   4.966   3.134 -0.3470  0.6004  0.0567
   53CHL1  H21A 5081   3.430   4.890   3.215  0.3434  0.2946 -0.2482
   53CHL1  H21B 5082   3.519   4.949   3.074 -0.5072  0.8366 -0.2634
   53CHL1  H21C 5083   3.341   4.951   3.065 -0.2157 -0.0412  0.0283
   53CHL1   C22 5084   3.307   5.128   3.288  0.4979 -0.2898  0.0140
   53CHL1  H22A 5085   3.307   5.232   3.327  0.9519  0.1550 -1.1472
   53CHL1  H22B 5086   3.205   5.118   3.246  0.6406  3.3736 -1.5217
   53CHL1   C23 5087   3.305   5.039   3.408 -0.0040  0.5757 -0.9246
   53CHL1  H23A 5088   3.275   4.936   3.378  0.6251 -0.3288  1.3532
   53CHL1  H23B 5089   3.408   5.029   3.447 -1.5858 -0.0080  3.7986
   53CHL1   C24 5090   3.212   5.097   3.516 -0.0745 -0.2671 -0.2698
   53CHL1  H24A 5091   3.256   5.192   3.554 -2.4938  0.6297  0.4168
   53CHL1  H24B 5092   3.117   5.121   3.463  0.4133 -0.0022 -1.0566
   53CHL1   C25 5093   3.179   5.007   3.629  0.1594 -0.5874  0.1845
   53CHL1   H25 5094   3.125   4.919   3.588 -3.1097  2.0328 -1.6625
   53CHL1   C26 5095   3.301   4.956   3.696 -0.7124 -0.6754 -1.0875
   53CHL1  H26A 5096   3.338   5.021   3.778 -1.6214 -0.6251 -0.7016
   53CHL1  H26B 5097   3.280   4.863   3.754  0.8675  0.4318  1.4223
   53CHL1  H26C 5098   3.382   4.931   3.625 -1.8473 -0.1205 -2.6393
   53CHL1   C27 5099   3.082   5.066   3.732 -0.1372  0.3238 -0.4441
   53CHL1  H27A 5100   3.087   5.001   3.823  1.1977 -0.0961 -0.8011
   53CHL1  H27B 5101   3.099   5.172   3.760 -1.1464  0.0257  1.5682
   53CHL1  H27C 5102   2.980   5.065   3.688 -1.5114 -0.5931  2.4548
   54CHL1    C3 5103   2.759   5.680   2.384 -0.2221 -0.2660 -0.0220
   54CHL1    H3 5104   2.836   5.759   2.394  0.5529 -0.8817 -0.8484
   54CHL1    O3 5105   2.708   5.674   2.242  0.0734  0.1201  0.2120
   54CHL1   H3' 5106   2.684   5.766   2.232  1.4661  0.3444 -1.7238
   54CHL1    C4 5107   2.841   5.553   2.426  0.2020 -0.0091  1.0620
   54CHL1   H4A 5108   2.778   5.466   2.396  0.7974 -0.3306  0.7359
   54CHL1   H4B 5109   2.932   5.549   2.363  0.6938  0.2111  1.7401
   54CHL1    C5 5110   2.870   5.546   2.571 -0.2016 -0.0308 -0.8588
   54CHL1    C6 5111   2.994   5.525   2.614 -0.2948 -0.1236  0.1334
   54CHL1    H6 5112   3.069   5.499   2.537  1.4624 -1.8910  2.3006
   54CHL1    C7 5113   3.030   5.501   2.756 -0.4510  0.3860 -0.5504
   54CHL1   H7A 5114   3.091   5.409   2.773 -1.4012 -0.2515 -0.5144
   54CHL1   H7B 5115   3.087   5.589   2.793 -1.9823 -0.0649  3.3694
   54CHL1    C8 5116   2.905   5.481   2.844  0.1758  0.2215  0.5089
   54CHL1    H8 5117   2.871   5.376   2.828  0.5293  0.1696  0.0766
   54CHL1   C14 5118   2.937   5.500   2.988  0.6552 -0.0392 -0.0683
   54CHL1   H14 5119   2.980   5.602   2.992  0.9955 -0.1985  0.5393
   54CHL1   C15 5120   3.040   5.395   3.043 -0.0051 -0.1460 -0.0381
   54CHL1  H15A 5121   3.000   5.297   3.009 -0.7562  0.3784 -0.7048
   54CHL1  H15B 5122   3.144   5.417   3.011 -0.5168  1.3637 -0.7734
   54CHL1   C16 5123   3.023   5.404   3.190  0.2774  0.6591 -0.1639
   54CHL1  H16A 5124   3.007   5.304   3.237  4.1548  0.2383  0.5950
   54CHL1  H16B 5125   3.117   5.442   3.235  2.1997 -0.0554 -3.2644
   54CHL1   C17 5126   2.905   5.507   3.216 -0.3108  0.5515  0.0283
   54CHL1   H17 5127   2.944   5.611   3.211 -0.7480  0.7396  0.4516
   54CHL1   C13 5128   2.821   5.498   3.092  0.0026 -0.2857 -0.3283
   54CHL1   C18 5129   2.749   5.352   3.095  0.6141  0.6169  1.3634
   54CHL1  H18A 5130   2.665   5.329   3.163 -0.9463  1.0431 -0.3331
   54CHL1  H18B 5131   2.714   5.327   2.992  1.2450  0.9672  1.0542
   54CHL1  H18C 5132   2.824   5.272   3.109  0.5414 -0.1891 -1.9027
   54CHL1   C12 5133   2.720   5.604   3.066 -0.1357 -0.1434 -0.7471
   54CHL1  H12A 5134   2.633   5.591   3.134 -1.0800  2.4121 -1.3371
   54CHL1  H12B 5135   2.773   5.698   3.094 -0.7079 -0.0182 -0.0638
   54CHL1   C11 5136   2.673   5.609   2.919 -0.5014  0.4001 -0.2306
   54CHL1  H11A 5137   2.601   5.525   2.913 -0.4615  0.3095  0.4868
   54CHL1  H11B 5138   2.634   5.711   2.901  3.0605  2.0167  0.3541
   54CHL1    C9 5139   2.795   5.584   2.812  0.2283 -0.1898  0.1528
   54CHL1    H9 5140   2.850   5.680   2.820  2.2863 -1.2560 -0.6626
   54CHL1   C10 5141   2.751   5.572   2.665  0.9564  0.0205  0.1557
   54CHL1   C19 5142   2.659   5.445   2.655  0.5144  0.2774 -0.3070
   54CHL1  H19A 5143   2.576   5.444   2.729 -1.5740 -3.1797 -2.3934
   54CHL1  H19B 5144   2.616   5.435   2.553 -0.6062 -0.7537  0.2391
   54CHL1  H19C 5145   2.720   5.354   2.674 -0.8354 -0.1337  2.6588
   54CHL1    C1 5146   2.678   5.693   2.620  0.6249 -0.0011  0.4575
   54CHL1   H1A 5147   2.595   5.713   2.691  0.4742 -0.3393  0.3782
   54CHL1   H1B 5148   2.750   5.777   2.630  0.8050  0.2508 -2.1706
   54CHL1    C2 5149   2.636   5.698   2.474 -0.3092 -0.1528 -0.5539
   54CHL1   H2A 5150   2.585   5.790   2.438 -1.0765 -0.1338  0.5052
   54CHL1   H2B 5151   2.576   5.607   2.451 -0.8419  0.4528 -1.6610
   54CHL1   C20 5152   2.848   5.491   3.362  0.5485 -0.5220  0.2593
   54CHL1   H20 5153   2.766   5.417   3.356 -0.2840  0.4569 -0.9565
   54CHL1   C21 5154   2.781   5.628   3.397 -0.1340  0.9887 -0.0169
   54CHL1  H21A 5155   2.705   5.642   3.318 -0.5741 -0.1382  0.1911
   54CHL1  H21B 5156   2.849   5.715   3.392  1.8780 -0.4024  1.3907
   54CHL1  H21C 5157   2.730   5.614   3.495 -1.0595  0.4488 -0.5675
   54CHL1   C22 5158   2.947   5.457   3.480 -0.1376  0.8648  0.3769
   54CHL1  H22A 5159   2.890   5.442   3.574 -0.0948 -0.5034  0.2003
   54CHL1  H22B 5160   3.000   5.361   3.462 -0.3316  0.1065  3.3391
   54CHL1   C23 5161   3.048   5.569   3.506  0.1191 -0.0532 -0.1510
   54CHL1  H23A 5162   3.087   5.622   3.417  0.6399  1.4371  0.9188
   54CHL1  H23B 5163   3.008   5.658   3.558  1.4252 -0.6911  2.1331
   54CHL1   C24 5164   3.159   5.507   3.594 -0.4055 -0.0737  0.1302
   54CHL1  H24A 5165   3.118   5.463   3.687  2.3259 -0.5279  1.2390
   54CHL1  H24B 5166   3.203   5.415   3.548  1.6223  0.1625  1.4780
   54CHL1   C25 5167   3.268   5.616   3.633  0.3686 -0.0909  0.2287
   54CHL1   H25 5168   3.293   5.675   3.542  1.2184 -1.3704 -0.3932
   54CHL1   C26 5169   3.211   5.709   3.744 -0.0399 -0.6752  1.0341
   54CHL1  H26A 5170   3.136   5.779   3.702  0.7783 -0.0458  0.5901
   54CHL1  H26B 5171   3.158   5.655   3.826 -0.0288 -1.3155  0.6248
   54CHL1  H26C 5172   3.292   5.763   3.797 -0.1066 -0.9092  1.3736
   54CHL1   C27 5173   3.387   5.543   3.688 -0.2468 -0.0722  0.3488
   54CHL1  H27A 5174   3.444   5.496   3.605 -0.1266 -3.6404  2.2531
   54CHL1  H27B 5175   3.459   5.614   3.734  1.1330 -0.3135 -1.3387
   54CHL1  H27C 5176   3.355   5.466   3.761 -1.4087  0.0387 -0.0183
   55CHL1    C3 5177   5.081   2.115   2.346 -0.4540 -0.1279 -1.2097
   55CHL1    H3 5178   5.061   2.223   2.356  0.1880 -0.2136  2.3026
   55CHL1    O3 5179   5.118   2.072   2.215 -0.1453 -0.6748 -0.7364
   55CHL1   H3' 5180   5.037   2.043   2.171 -0.1722 -1.3488 -0.2587
   55CHL1    C4 5181   5.207   2.091   2.437  0.5162 -0.0157 -0.5897
   55CHL1   H4A 5182   5.251   1.990   2.420 -1.9810 -0.9779 -1.7936
   55CHL1   H4B 5183   5.273   2.176   2.409 -1.3164  1.1285 -1.6207
   55CHL1    C5 5184   5.173   2.099   2.586 -0.8336  0.7724 -0.2038
   55CHL1    C6 5185   5.246   2.169   2.673 -0.2719 -0.0228  0.0581
   55CHL1    H6 5186   5.334   2.227   2.644  1.0825 -1.0239  1.9314
   55CHL1    C7 5187   5.221   2.178   2.819  0.0533 -0.7501  0.6785
   55CHL1   H7A 5188   5.325   2.182   2.858 -0.0880 -2.8207  1.3929
   55CHL1   H7B 5189   5.169   2.272   2.847 -0.4015 -0.3272 -1.3947
   55CHL1    C8 5190   5.137   2.067   2.872 -0.3835  0.2606  0.5112
   55CHL1    H8 5191   5.176   1.963   2.874 -2.5024 -0.6163 -0.4671
   55CHL1   C14 5192   5.085   2.101   3.012 -0.2482  1.0758 -0.3171
   55CHL1   H14 5193   5.027   2.195   2.999  0.8059  1.8616  0.5243
   55CHL1   C15 5194   5.198   2.120   3.111  0.8024 -0.1625 -0.3455
   55CHL1  H15A 5195   5.267   2.033   3.104 -1.9951 -2.4523 -1.3798
   55CHL1  H15B 5196   5.237   2.219   3.079 -1.9685  0.5507 -1.8070
   55CHL1   C16 5197   5.131   2.104   3.250  0.3278 -0.5605  0.6962
   55CHL1  H16A 5198   5.182   2.024   3.308 -0.8415 -2.4979 -0.8395
   55CHL1  H16B 5199   5.134   2.205   3.296 -2.4601  0.2392 -0.6587
   55CHL1   C17 5200   4.983   2.059   3.216 -0.4561  0.6685  0.4363
   55CHL1   H17 5201   4.922   2.151   3.203 -2.3232 -0.3338  1.5289
   55CHL1   C13 5202   4.995   1.998   3.077 -0.2447  0.6683  0.1813
   55CHL1   C18 5203   5.065   1.855   3.099 -0.2552 -0.1005  0.2723
   55CHL1  H18A 5204   5.124   1.830   3.008 -0.6050 -0.7432  0.2137
   55CHL1  H18B 5205   5.140   1.854   3.180 -0.9715  0.1687  0.9462
   55CHL1  H18C 5206   4.981   1.783   3.115 -1.9108  1.7961  0.5170
   55CHL1   C12 5207   4.873   1.983   2.980 -0.2528 -0.0800 -0.0670
   55CHL1  H12A 5208   4.805   1.902   3.016  2.5172 -2.4439  0.2251
   55CHL1  H12B 5209   4.821   2.081   2.984  0.6928  0.4745 -0.9470
   55CHL1   C11 5210   4.926   1.948   2.841  0.4927 -0.1291  0.7148
   55CHL1  H11A 5211   4.974   1.848   2.850 -1.5002 -1.4983 -2.0733
   55CHL1  H11B 5212   4.839   1.941   2.772  0.8220  2.4384 -0.0589
   55CHL1    C9 5213   5.017   2.055   2.780 -0.0319 -0.3263 -0.1924
   55CHL1    H9 5214   4.956   2.148   2.785 -1.2509 -0.9879 -1.7781
   55CHL1   C10 5215   5.054   2.021   2.630  0.4960  0.1395  0.0758
   55CHL1   C19 5216   5.077   1.865   2.625 -0.5019 -0.2916  0.0246
   55CHL1  H19A 5217   5.126   1.820   2.536 -0.5193 -1.0205  0.3708
   55CHL1  H19B 5218   5.142   1.835   2.709  2.9798  3.1771 -1.1329
   55CHL1  H19C 5219   4.976   1.818   2.636 -1.7246  2.1744  0.0213
   55CHL1    C1 5220   4.935   2.065   2.544  0.8216 -0.5092  0.9460
   55CHL1   H1A 5221   4.843   2.009   2.573 -1.6093  1.7479 -1.7673
   55CHL1   H1B 5222   4.913   2.172   2.564  1.1888 -0.5857  1.8089
   55CHL1    C2 5223   4.959   2.040   2.395 -0.6318 -0.0866  0.7225
   55CHL1   H2A 5224   4.866   2.069   2.341 -0.3339 -1.4273 -0.5666
   55CHL1   H2B 5225   4.972   1.931   2.379  0.0373  0.0974 -0.0239
   55CHL1   C20 5226   4.920   1.985   3.334  0.8902 -0.0303  0.3075
   55CHL1   H20 5227   4.986   1.897   3.352  0.5106 -0.2496  0.6629
   55CHL1   C21 5228   4.783   1.933   3.285  0.6261  0.3208  0.1552
   55CHL1  H21A 5229   4.785   1.838   3.228  1.6557 -0.3985  1.3503
   55CHL1  H21B 5230   4.737   2.014   3.225  0.8940 -0.2000 -0.7678
   55CHL1  H21C 5231   4.709   1.901   3.361  0.1083  0.7592 -0.1599
   55CHL1   C22 5232   4.898   2.076   3.461 -0.0447  1.1902  0.1821
   55CHL1  H22A 5233   4.977   2.153   3.471  1.5236 -0.4832  1.1858
   55CHL1  H22B 5234   4.802   2.127   3.436 -0.7240  0.3734  1.0556
   55CHL1   C23 5235   4.892   1.983   3.582  0.1006  0.0521  0.0863
   55CHL1  H23A 5236   4.809   1.911   3.569  1.8103 -1.6951 -1.9627
   55CHL1  H23B 5237   4.988   1.926   3.576  0.8763  1.2891  0.4144
   55CHL1   C24 5238   4.872   2.057   3.716  0.3700  0.4475  0.4207
   55CHL1  H24A 5239   4.957   2.129   3.717  0.2462  0.7005 -1.8415
   55CHL1  H24B 5240   4.778   2.117   3.718 -1.4153 -1.9706 -2.2808
   55CHL1   C25 5241   4.889   1.972   3.837  0.0190  0.1229  0.2390
   55CHL1   H25 5242   4.805   1.900   3.850  0.4537 -0.6052 -0.7852
   55CHL1   C26 5243   5.025   1.902   3.838  0.2585  0.0026  0.3482
   55CHL1  H26A 5244   5.049   1.831   3.921 -0.3816  1.4011  1.7905
   55CHL1  H26B 5245   5.053   1.847   3.746  3.7315 -0.6388  1.6227
   55CHL1  H26C 5246   5.104   1.979   3.832  0.5617 -0.4169 -2.1941
   55CHL1   C27 5247   4.883   2.060   3.962 -0.3646  0.9011  0.7008
   55CHL1  H27A 5248   4.967   2.132   3.967  0.7916 -0.3653  0.0337
   55CHL1  H27B 5249   4.784   2.112   3.957 -0.7048  0.3021  1.1177
   55CHL1  H27C 5250   4.887   1.997   4.053  2.4513 -1.3901 -0.8664
   56CHL1    C3 5251   6.031   3.866   2.255 -0.6108  0.3455  0.0831
   56CHL1    H3 5252   5.929   3.908   2.236 -0.1988  1.7305  0.7931
   56CHL1    O3 5253   6.076   3.833   2.125 -0.6380  0.7646 -0.1561
   56CHL1   H3' 5254   6.000   3.796   2.080  0.0870  0.4274 -1.1268
   56CHL1    C4 5255   6.129   3.963   2.319 -0.0912  0.0515  0.9023
   56CHL1   H4A 5256   6.229   3.914   2.326 -1.5736 -3.2954  0.4846
   56CHL1   H4B 5257   6.152   4.056   2.263 -2.3235 -0.0386 -0.2706
   56CHL1    C5 5258   6.064   3.995   2.455 -0.1945 -0.1006  0.8513
   56CHL1    C6 5259   6.037   4.127   2.480 -0.1825  0.2861 -0.2570
   56CHL1    H6 5260   6.049   4.202   2.399 -1.6679  0.2210 -0.5785
   56CHL1    C7 5261   5.990   4.173   2.616 -0.3428 -0.4532 -0.5261
   56CHL1   H7A 5262   6.053   4.257   2.651  1.9963 -1.5847 -1.7706
   56CHL1   H7B 5263   5.884   4.202   2.602 -0.4706 -0.4987  0.3272
   56CHL1    C8 5264   5.996   4.065   2.728  0.2429 -1.0153 -0.3583
   56CHL1    H8 5265   6.103   4.064   2.759  0.6912 -2.9852 -1.8360
   56CHL1   C14 5266   5.902   4.099   2.838  0.5870  0.0280  0.5157
   56CHL1   H14 5267   5.795   4.092   2.811 -0.2663 -1.6114  3.7373
   56CHL1   C15 5268   5.907   4.241   2.895  0.1720  1.1182 -0.3217
   56CHL1  H15A 5269   6.003   4.291   2.920  0.1769  0.5913  0.7782
   56CHL1  H15B 5270   5.856   4.312   2.827 -2.0086  1.9001  1.9939
   56CHL1   C16 5271   5.818   4.219   3.020 -0.3640  0.3203 -0.1137
   56CHL1  H16A 5272   5.851   4.273   3.112 -1.2922  2.5363 -1.0095
   56CHL1  H16B 5273   5.720   4.268   3.001 -0.7051 -0.2057  0.2697
   56CHL1   C17 5274   5.797   4.070   3.042 -0.7621  0.3824  0.1250
   56CHL1   H17 5275   5.697   4.057   2.997 -1.7072  1.9364  1.6582
   56CHL1   C13 5276   5.902   4.002   2.956 -0.1273  0.7544 -0.2405
   56CHL1   C18 5277   6.037   4.000   3.041  0.2249 -0.4711 -0.1907
   56CHL1  H18A 5278   6.032   3.917   3.115  0.8321 -0.7836 -0.4912
   56CHL1  H18B 5279   6.125   3.979   2.977  0.7697 -4.6537  1.6282
   56CHL1  H18C 5280   6.050   4.092   3.101  2.4027 -3.2476  4.1311
   56CHL1   C12 5281   5.871   3.863   2.902 -0.4323 -0.7703 -0.2777
   56CHL1  H12A 5282   5.864   3.773   2.966 -0.3830 -1.3675 -1.0952
   56CHL1  H12B 5283   5.769   3.881   2.861 -0.5369  1.8886  0.9510
   56CHL1   C11 5284   5.961   3.817   2.784  0.2419 -0.8775 -0.2637
   56CHL1  H11A 5285   6.059   3.795   2.829 -0.2848  0.8526  1.9187
   56CHL1  H11B 5286   5.930   3.716   2.750 -1.1455 -0.9237  1.0357
   56CHL1    C9 5287   5.962   3.922   2.674 -0.2288 -0.3593  0.1306
   56CHL1    H9 5288   5.860   3.936   2.632  0.1061 -0.4486 -0.7493
   56CHL1   C10 5289   6.046   3.877   2.546  0.0792  0.1328  0.0475
   56CHL1   C19 5290   6.188   3.831   2.598  0.0088 -0.2591 -0.5037
   56CHL1  H19A 5291   6.181   3.744   2.666 -0.4769 -0.0187 -0.2421
   56CHL1  H19B 5292   6.259   3.803   2.517  1.8943 -1.5128  1.4743
   56CHL1  H19C 5293   6.233   3.916   2.653  0.0830 -0.4868 -0.2139
   56CHL1    C1 5294   5.969   3.760   2.479 -0.0869 -0.6289  0.4240
   56CHL1   H1A 5295   5.969   3.667   2.538 -1.1431 -0.2194  1.0976
   56CHL1   H1B 5296   5.863   3.793   2.477  0.0863  0.0021  1.1458
   56CHL1    C2 5297   6.021   3.735   2.338 -0.0151  0.4452 -0.0775
   56CHL1   H2A 5298   5.955   3.667   2.281 -1.3905 -0.5410  2.5240
   56CHL1   H2B 5299   6.114   3.674   2.338 -0.0556  0.3546 -1.3950
   56CHL1   C20 5300   5.780   4.027   3.193 -0.3151  0.5532 -0.5176
   56CHL1   H20 5301   5.873   4.036   3.253 -0.4792  0.2151 -0.2109
   56CHL1   C21 5302   5.745   3.872   3.210 -1.3392 -0.0375 -0.3871
   56CHL1  H21A 5303   5.827   3.808   3.170  0.4247  0.9491  1.4847
   56CHL1  H21B 5304   5.651   3.851   3.154 -0.6100 -2.5154 -0.8157
   56CHL1  H21C 5305   5.736   3.839   3.316  0.1854  2.7724  0.7224
   56CHL1   C22 5306   5.663   4.111   3.259  0.3113  0.0641 -0.4893
   56CHL1  H22A 5307   5.689   4.218   3.243 -0.6331  0.1690 -1.4106
   56CHL1  H22B 5308   5.559   4.099   3.223 -0.0890 -1.7283  1.0935
   56CHL1   C23 5309   5.658   4.085   3.412 -0.4158 -0.4888  0.0457
   56CHL1  H23A 5310   5.623   3.980   3.422  0.4832 -0.8897 -0.8220
   56CHL1  H23B 5311   5.749   4.092   3.475 -1.0873  1.2244  0.9073
   56CHL1   C24 5312   5.568   4.185   3.485  0.2209  0.6362  0.1020
   56CHL1  H24A 5313   5.609   4.287   3.474  0.4171  0.5575  0.1071
   56CHL1  H24B 5314   5.464   4.184   3.445  0.0796  2.9515  0.2800
   56CHL1   C25 5315   5.549   4.156   3.640 -0.2103 -0.2372  0.6085
   56CHL1   H25 5316   5.495   4.059   3.643  0.7564 -0.8010  0.0320
   56CHL1   C26 5317   5.678   4.163   3.729 -0.0668 -0.0641  0.2444
   56CHL1  H26A 5318   5.654   4.172   3.837  0.5793  0.7698  0.3333
   56CHL1  H26B 5319   5.745   4.077   3.708 -1.0856 -0.6341 -0.7264
   56CHL1  H26C 5320   5.738   4.255   3.707  1.2062 -1.0325 -0.4653
   56CHL1   C27 5321   5.444   4.254   3.692 -0.1307  0.1648 -0.0670
   56CHL1  H27A 5322   5.417   4.226   3.796  1.7834  0.0860  0.4302
   56CHL1  H27B 5323   5.484   4.358   3.695  1.6391 -0.4730 -0.6302
   56CHL1  H27C 5324   5.350   4.246   3.632 -1.2306  0.9089  1.4789
   57CHL1    C3 5325   4.863   1.303   2.167 -0.3954 -0.5352  0.0976
   57CHL1    H3 5326   4.827   1.201   2.192  0.2736 -0.4921  1.3465
   57CHL1    O3 5327   4.871   1.309   2.025  0.0421  0.3432 -0.1293
   57CHL1   H3' 5328   4.780   1.284   2.005 -0.5451  0.7669  1.7949
   57CHL1    C4 5329   4.748   1.399   2.204 -0.2159 -0.1404 -0.3550
   57CHL1   H4A 5330   4.769   1.503   2.173  1.0507  0.6161  2.6335
   57CHL1   H4B 5331   4.651   1.376   2.154 -0.0341 -0.1199 -0.7140
   57CHL1    C5 5332   4.714   1.392   2.350  0.3044  0.1928 -0.8622
   57CHL1    C6 5333   4.594   1.350   2.394 -0.0490 -0.0427 -0.3304
   57CHL1    H6 5334   4.513   1.317   2.326 -0.8791  0.5904  0.3241
   57CHL1    C7 5335   4.546   1.363   2.537 -0.3968  0.0333 -0.7962
   57CHL1   H7A 5336   4.463   1.437   2.538  0.1948  0.8227  2.4934
   57CHL1   H7B 5337   4.499   1.274   2.584 -1.0035  1.3144  1.1324
   57CHL1    C8 5338   4.655   1.439   2.620 -0.0160  0.4435  0.2344
   57CHL1    H8 5339   4.648   1.549   2.609  0.7839  0.3319 -1.9421
   57CHL1   C14 5340   4.637   1.398   2.765  0.2965 -0.2129 -0.0479
   57CHL1   H14 5341   4.647   1.287   2.771 -4.1066 -0.8431 -0.5608
   57CHL1   C15 5342   4.495   1.413   2.825 -0.3623 -0.1397 -0.7946
   57CHL1  H15A 5343   4.468   1.519   2.802  0.1798  0.6879  2.0168
   57CHL1  H15B 5344   4.420   1.339   2.791 -0.7884 -0.7324  1.3468
   57CHL1   C16 5345   4.531   1.404   2.979  0.1737 -0.0196  0.3542
   57CHL1  H16A 5346   4.483   1.490   3.030 -0.5997  0.1404 -0.6172
   57CHL1  H16B 5347   4.495   1.312   3.030  0.5911 -0.2617  0.2180
   57CHL1   C17 5348   4.684   1.408   2.991 -0.9528  0.1100 -0.0160
   57CHL1   H17 5349   4.730   1.307   2.984  0.8766  0.8319  1.0669
   57CHL1   C13 5350   4.734   1.470   2.863 -0.5930  0.6198  0.5905
   57CHL1   C18 5351   4.710   1.625   2.872 -0.9771  0.2385 -0.0061
   57CHL1  H18A 5352   4.803   1.665   2.918 -0.8719 -0.2478  0.2114
   57CHL1  H18B 5353   4.694   1.663   2.769  1.1739 -0.1371 -0.5194
   57CHL1  H18C 5354   4.627   1.656   2.939 -0.8642 -1.2519  0.8847
   57CHL1   C12 5355   4.883   1.435   2.821 -0.0959 -0.2664  0.1026
   57CHL1  H12A 5356   4.958   1.491   2.882  0.5900 -1.3373  0.2682
   57CHL1  H12B 5357   4.896   1.325   2.833 -1.0750 -0.2178  1.9058
   57CHL1   C11 5358   4.906   1.475   2.675 -0.7173  0.2252 -0.2906
   57CHL1  H11A 5359   4.912   1.585   2.669  1.0253  0.0830 -2.1561
   57CHL1  H11B 5360   5.009   1.445   2.649 -0.1330  1.6638  0.2841
   57CHL1    C9 5361   4.798   1.413   2.583 -0.7035  0.7000 -0.6829
   57CHL1    H9 5362   4.818   1.307   2.610 -0.1841  1.1049  0.6264
   57CHL1   C10 5363   4.837   1.434   2.436  0.0423 -0.5193  0.3788
   57CHL1   C19 5364   4.858   1.586   2.414  0.1641  0.1067  1.0330
   57CHL1  H19A 5365   4.946   1.626   2.468  0.8532  0.3972 -0.2488
   57CHL1  H19B 5366   4.889   1.614   2.311  1.1661 -2.5049  0.5662
   57CHL1  H19C 5367   4.764   1.644   2.421 -0.4049 -0.9389  2.3970
   57CHL1    C1 5368   4.964   1.358   2.395  0.0643  0.5790  0.7287
   57CHL1   H1A 5369   5.044   1.418   2.444  1.1748  0.1020 -0.4485
   57CHL1   H1B 5370   4.985   1.256   2.432 -1.3721  0.3585  1.0071
   57CHL1    C2 5371   4.992   1.340   2.241 -0.2821  1.5589 -0.8659
   57CHL1   H2A 5372   5.075   1.269   2.222  0.4035  2.1946 -0.3780
   57CHL1   H2B 5373   5.011   1.441   2.198 -0.3119  0.6648 -3.0876
   57CHL1   C20 5374   4.728   1.466   3.125  0.5137 -0.5257  1.3489
   57CHL1   H20 5375   4.682   1.566   3.139  0.8639  0.3141 -2.3885
   57CHL1   C21 5376   4.881   1.492   3.130  0.1592 -0.1540  0.6958
   57CHL1  H21A 5377   4.941   1.421   3.069 -0.7473  0.1652 -0.5982
   57CHL1  H21B 5378   4.908   1.484   3.238 -2.1204  0.1755  1.3493
   57CHL1  H21C 5379   4.905   1.594   3.095  3.1873 -0.8730  0.3626
   57CHL1   C22 5380   4.681   1.390   3.251  0.0062  0.1944 -0.1718
   57CHL1  H22A 5381   4.713   1.445   3.342  1.4395 -0.4989 -0.2307
   57CHL1  H22B 5382   4.574   1.359   3.255 -0.1057  0.5119 -0.7198
   57CHL1   C23 5383   4.745   1.248   3.249 -1.1540 -0.0984  0.1952
   57CHL1  H23A 5384   4.713   1.190   3.160 -0.8730  0.2925 -0.1660
   57CHL1  H23B 5385   4.855   1.247   3.265 -1.2524  0.3678  0.9648
   57CHL1   C24 5386   4.679   1.145   3.356 -0.0430  0.1614 -0.2848
   57CHL1  H24A 5387   4.569   1.162   3.360 -0.1422 -0.6162  1.6744
   57CHL1  H24B 5388   4.716   1.041   3.339 -0.0778 -0.1791  1.5583
   57CHL1   C25 5389   4.734   1.174   3.495  0.2245  0.4195 -0.6150
   57CHL1   H25 5390   4.731   1.281   3.524 -0.4804 -0.1810  1.7445
   57CHL1   C26 5391   4.651   1.099   3.606 -0.2117 -0.7898 -0.0988
   57CHL1  H26A 5392   4.647   0.989   3.590 -1.0126 -1.2322  2.6916
   57CHL1  H26B 5393   4.692   1.122   3.706 -0.1922 -0.0261 -0.2824
   57CHL1  H26C 5394   4.547   1.137   3.600 -0.1162 -0.1361  1.7482
   57CHL1   C27 5395   4.874   1.114   3.498  0.5644 -0.1208 -0.1893
   57CHL1  H27A 5396   4.920   1.109   3.397  1.5719 -2.3512  0.3140
   57CHL1  H27B 5397   4.927   1.159   3.585  0.4694 -2.8491  1.4043
   57CHL1  H27C 5398   4.868   1.007   3.530 -2.5392  0.1741  0.5339
   58CHL1    C3 5399   5.685   1.968   2.341  0.7547  0.1530 -0.2806
   58CHL1    H3 5400   5.731   1.867   2.336  1.0594  0.0943  2.5485
   58CHL1    O3 5401   5.660   2.017   2.208 -0.3318 -0.2173 -0.3188
   58CHL1   H3' 5402   5.651   2.112   2.220  1.9978  0.1536 -0.9562
   58CHL1    C4 5403   5.544   1.965   2.411  0.0889 -0.1403 -0.1925
   58CHL1   H4A 5404   5.497   2.064   2.389 -1.4874 -0.3946  1.7453
   58CHL1   H4B 5405   5.475   1.892   2.363 -0.9637  0.7860 -0.1555
   58CHL1    C5 5406   5.553   1.937   2.558  0.1290  0.3076  0.7289
   58CHL1    C6 5407   5.480   1.840   2.614  0.4246  0.1656  0.1345
   58CHL1    H6 5408   5.401   1.783   2.564  0.0714  0.3389  0.4847
   58CHL1    C7 5409   5.480   1.813   2.765  0.3262 -0.0956  0.5239
   58CHL1   H7A 5410   5.375   1.791   2.794 -0.3445 -0.4277 -1.9623
   58CHL1   H7B 5411   5.545   1.723   2.767  0.2466 -0.1772 -0.4107
   58CHL1    C8 5412   5.556   1.911   2.853  0.0187 -0.0183  0.4082
   58CHL1    H8 5413   5.477   1.985   2.878 -0.6138 -0.9803  1.3219
   58CHL1   C14 5414   5.595   1.855   2.985 -0.0340 -0.0388 -0.5165
   58CHL1   H14 5415   5.679   1.785   2.968 -0.0370  0.1285 -1.2325
   58CHL1   C15 5416   5.499   1.771   3.065 -0.2421 -0.0340 -0.3805
   58CHL1  H15A 5417   5.404   1.828   3.064 -0.7724 -0.8618 -2.2038
   58CHL1  H15B 5418   5.482   1.669   3.022  0.4661 -1.7009  2.9397
   58CHL1   C16 5419   5.569   1.756   3.207 -0.3559  0.3381 -0.2851
   58CHL1  H16A 5420   5.494   1.765   3.289  0.4758 -1.4982  0.7450
   58CHL1  H16B 5421   5.619   1.657   3.219  2.0651  1.6316  1.1336
   58CHL1   C17 5422   5.686   1.862   3.212  0.1542 -0.7330  0.2510
   58CHL1   H17 5423   5.772   1.795   3.192 -1.1254 -1.6962 -2.4931
   58CHL1   C13 5424   5.661   1.956   3.090  0.0316 -0.4787  0.5020
   58CHL1   C18 5425   5.568   2.072   3.130  0.0612 -0.4333  0.6510
   58CHL1  H18A 5426   5.476   2.053   3.190  0.2139 -2.5567  0.2702
   58CHL1  H18B 5427   5.616   2.164   3.169 -0.1423  0.6843 -1.5734
   58CHL1  H18C 5428   5.539   2.103   3.027  0.5582 -1.8551  0.0561
   58CHL1   C12 5429   5.790   2.012   3.021  0.2347  0.2985 -0.1269
   58CHL1  H12A 5430   5.841   2.089   3.083 -0.4155  1.1335 -0.6105
   58CHL1  H12B 5431   5.851   1.921   3.000  0.2773  0.7755 -2.2800
   58CHL1   C11 5432   5.755   2.065   2.878 -0.0798  0.2194  0.3908
   58CHL1  H11A 5433   5.711   2.165   2.898  0.3350 -0.1022  3.4858
   58CHL1  H11B 5434   5.853   2.089   2.832 -0.3705  0.9094  0.1054
   58CHL1    C9 5435   5.676   1.972   2.785  1.0317  0.4365  0.0451
   58CHL1    H9 5436   5.734   1.878   2.769 -0.2750 -0.4729  0.4240
   58CHL1   C10 5437   5.652   2.022   2.635  0.0760 -0.7892 -0.2661
   58CHL1   C19 5438   5.581   2.158   2.658  0.4000 -0.5809 -0.3193
   58CHL1  H19A 5439   5.508   2.142   2.740  1.7390 -0.8567  0.8486
   58CHL1  H19B 5440   5.649   2.230   2.708 -0.9789  0.7120 -0.2007
   58CHL1  H19C 5441   5.529   2.204   2.571  0.0773 -0.4216 -0.0466
   58CHL1    C1 5442   5.789   2.029   2.567  0.0315  0.5398  0.0818
   58CHL1   H1A 5443   5.844   2.113   2.616  0.0977  0.5757 -0.0547
   58CHL1   H1B 5444   5.848   1.935   2.571  0.9043  1.0502 -0.4376
   58CHL1    C2 5445   5.779   2.064   2.419 -0.5062  0.0772 -0.2147
   58CHL1   H2A 5446   5.873   2.062   2.361  0.3813  1.9073  1.0555
   58CHL1   H2B 5447   5.739   2.167   2.409  2.0821  1.0555 -1.1179
   58CHL1   C20 5448   5.705   1.925   3.350 -0.8819  0.2490 -0.1935
   58CHL1   H20 5449   5.624   1.998   3.371 -1.4059  0.2386 -2.0341
   58CHL1   C21 5450   5.832   2.008   3.348 -0.1893  0.1536 -0.8904
   58CHL1  H21A 5451   5.868   2.032   3.451  0.5484  1.4552 -1.4252
   58CHL1  H21B 5452   5.815   2.110   3.307  0.0536  0.8423  0.6198
   58CHL1  H21C 5453   5.908   1.960   3.284  0.7268  2.3536 -1.5500
   58CHL1   C22 5454   5.698   1.822   3.465  0.0742  0.1045  0.5703
   58CHL1  H22A 5455   5.737   1.886   3.547  3.0703  0.0714 -0.7112
   58CHL1  H22B 5456   5.596   1.785   3.489  1.0322 -1.2548  2.9607
   58CHL1   C23 5457   5.790   1.697   3.460  0.0328  0.5192 -0.1087
   58CHL1  H23A 5458   5.783   1.647   3.361 -3.7737 -0.5719  0.5471
   58CHL1  H23B 5459   5.896   1.721   3.485 -0.0399 -0.1565  0.8952
   58CHL1   C24 5460   5.745   1.586   3.557  0.0638  0.1683 -1.0069
   58CHL1  H24A 5461   5.740   1.636   3.657  1.3109  0.5925 -1.1416
   58CHL1  H24B 5462   5.640   1.565   3.528 -0.3672  0.3845  0.3198
   58CHL1   C25 5463   5.825   1.461   3.570  0.6962 -0.1418 -0.1715
   58CHL1   H25 5464   5.838   1.403   3.477  0.3824 -0.7687  0.1733
   58CHL1   C26 5465   5.966   1.467   3.635  0.8651 -0.5632  0.1215
   58CHL1  H26A 5466   5.996   1.372   3.683  1.2515  0.4717  2.0332
   58CHL1  H26B 5467   6.044   1.512   3.569 -0.9893  0.2575 -1.6217
   58CHL1  H26C 5468   5.966   1.528   3.728 -0.4349 -0.1263 -0.1514
   58CHL1   C27 5469   5.737   1.360   3.657  0.0941 -0.2034  0.0813
   58CHL1  H27A 5470   5.799   1.269   3.670 -1.7118 -1.7858 -1.5456
   58CHL1  H27B 5471   5.707   1.403   3.755  2.2073  0.4738  0.4853
   58CHL1  H27C 5472   5.648   1.319   3.604 -0.2574  1.9587 -1.1467
   59CHL1    C3 5473   4.639   0.849   2.109  1.0057 -0.3522 -0.1241
   59CHL1    H3 5474   4.545   0.802   2.076  0.6571  0.1303  0.1648
   59CHL1    O3 5475   4.700   0.870   1.988  0.6048 -0.0372 -0.7748
   59CHL1   H3' 5476   4.667   0.794   1.940 -0.8093 -0.4458  0.7433
   59CHL1    C4 5477   4.619   0.978   2.181  0.3407 -0.3590 -0.0786
   59CHL1   H4A 5478   4.718   1.028   2.188  0.9085 -1.3614 -0.6786
   59CHL1   H4B 5479   4.560   1.049   2.119  2.3532  0.3138 -1.3303
   59CHL1    C5 5480   4.549   0.962   2.317  0.5311  0.2516 -0.1281
   59CHL1    C6 5481   4.434   1.018   2.353  0.0280 -0.2638  0.4911
   59CHL1    H6 5482   4.379   1.075   2.276  2.2610 -2.3017 -2.9103
   59CHL1    C7 5483   4.377   1.018   2.495  0.0520  0.9750  0.4804
   59CHL1   H7A 5484   4.339   1.117   2.528 -1.6389  0.8666 -0.9716
   59CHL1   H7B 5485   4.296   0.942   2.498  3.0109 -2.6790 -2.2259
   59CHL1    C8 5486   4.472   0.968   2.601  0.4934 -0.5930 -0.3242
   59CHL1    H8 5487   4.540   1.051   2.629 -1.4461  0.3861  1.8851
   59CHL1   C14 5488   4.397   0.936   2.735  0.6549  1.0045  0.3213
   59CHL1   H14 5489   4.329   0.851   2.716 -0.2121  1.4852  1.1978
   59CHL1   C15 5490   4.299   1.037   2.796 -0.4375 -0.2147 -0.0568
   59CHL1  H15A 5491   4.346   1.138   2.786 -2.2357  0.6331 -0.2983
   59CHL1  H15B 5492   4.201   1.041   2.744 -0.9780 -0.3855  0.9100
   59CHL1   C16 5493   4.284   0.994   2.943  0.3189  0.0894 -0.0379
   59CHL1  H16A 5494   4.310   1.077   3.013  2.8115  0.1004 -0.8849
   59CHL1  H16B 5495   4.177   0.966   2.957  0.3885 -0.1293  0.0444
   59CHL1   C17 5496   4.375   0.864   2.957 -0.7825  0.6915  0.0933
   59CHL1   H17 5497   4.317   0.780   2.913  1.7824 -0.5365 -1.2417
   59CHL1   C13 5498   4.490   0.875   2.848 -0.1046  0.0092  0.4887
   59CHL1   C18 5499   4.598   0.981   2.891  0.6042 -0.0356  0.1061
   59CHL1  H18A 5500   4.669   0.952   2.972 -0.6722  2.6489  2.3601
   59CHL1  H18B 5501   4.666   1.011   2.809 -1.3173  0.4774 -1.3709
   59CHL1  H18C 5502   4.553   1.078   2.921 -1.5557 -1.2701  1.1442
   59CHL1   C12 5503   4.556   0.751   2.788 -0.0311 -0.2758  0.5746
   59CHL1  H12A 5504   4.610   0.699   2.870  1.0578 -0.4693 -0.2365
   59CHL1  H12B 5505   4.475   0.682   2.759  0.3316 -0.4530 -0.0580
   59CHL1   C11 5506   4.640   0.781   2.660 -0.1350  0.1057  0.4985
   59CHL1  H11A 5507   4.737   0.832   2.683  0.3003 -0.6112  0.2805
   59CHL1  H11B 5508   4.672   0.682   2.621 -0.8229  0.5318 -1.2216
   59CHL1    C9 5509   4.554   0.850   2.545  1.1914  0.4208 -0.0601
   59CHL1    H9 5510   4.480   0.769   2.527  0.3729 -0.0300  4.2585
   59CHL1   C10 5511   4.632   0.875   2.410  0.0631  0.6567  0.4490
   59CHL1   C19 5512   4.765   0.944   2.440 -1.4662  0.1147  0.4652
   59CHL1  H19A 5513   4.738   1.036   2.495 -0.1168  0.0678  1.2268
   59CHL1  H19B 5514   4.841   0.887   2.498  2.3905  2.4468 -1.8965
   59CHL1  H19C 5515   4.821   0.969   2.348 -2.6437 -2.7038 -1.1540
   59CHL1    C1 5516   4.659   0.741   2.340 -0.0793 -0.6405  0.1895
   59CHL1   H1A 5517   4.733   0.677   2.392  0.0037  0.0658  0.9446
   59CHL1   H1B 5518   4.566   0.680   2.340 -0.8317  0.4692  1.3186
   59CHL1    C2 5519   4.714   0.750   2.199  0.3906  0.5525  0.1308
   59CHL1   H2A 5520   4.709   0.646   2.159  0.4384  0.4999  0.2598
   59CHL1   H2B 5521   4.818   0.786   2.208  1.2980 -1.8625  0.2278
   59CHL1   C20 5522   4.410   0.824   3.101  0.7443 -0.4119 -0.2044
   59CHL1   H20 5523   4.508   0.873   3.116  0.9821 -1.2809  1.3570
   59CHL1   C21 5524   4.414   0.674   3.110  0.7081  1.3256  0.4004
   59CHL1  H21A 5525   4.427   0.637   3.214 -1.8327  0.5518  0.5079
   59CHL1  H21B 5526   4.485   0.625   3.041 -1.5726 -0.5492 -0.7736
   59CHL1  H21C 5527   4.320   0.632   3.069  1.6035 -0.4932  0.1325
   59CHL1   C22 5528   4.316   0.888   3.208  0.2018 -0.0063  0.3527
   59CHL1  H22A 5529   4.313   0.998   3.190  2.0789 -0.0298 -0.3007
   59CHL1  H22B 5530   4.215   0.843   3.193 -0.7640  1.9979  0.3913
   59CHL1   C23 5531   4.362   0.853   3.353  0.6357  0.7032  0.6188
   59CHL1  H23A 5532   4.327   0.749   3.373 -1.5538  1.4590  1.0818
   59CHL1  H23B 5533   4.472   0.846   3.346  0.4298 -1.1562 -2.7532
   59CHL1   C24 5534   4.287   0.931   3.457  0.3743  0.4476 -0.1795
   59CHL1  H24A 5535   4.343   1.022   3.484 -1.2093  1.7199 -0.9885
   59CHL1  H24B 5536   4.185   0.954   3.419  0.2728 -1.0299 -0.8776
   59CHL1   C25 5537   4.267   0.841   3.586 -0.3546 -0.2104 -0.3198
   59CHL1   H25 5538   4.211   0.747   3.567 -0.6490 -0.0180 -0.4223
   59CHL1   C26 5539   4.405   0.808   3.649  0.3278  0.4645  0.2429
   59CHL1  H26A 5540   4.468   0.899   3.663  0.4797  0.2024  1.3266
   59CHL1  H26B 5541   4.379   0.767   3.748  1.1186 -1.8221 -0.4285
   59CHL1  H26C 5542   4.462   0.730   3.594 -0.7392 -0.6766  0.7210
   59CHL1   C27 5543   4.188   0.927   3.689  0.0039  0.8238  0.5444
   59CHL1  H27A 5544   4.249   1.019   3.705  0.8264  0.0488  2.0564
   59CHL1  H27B 5545   4.093   0.958   3.641 -1.1005  0.2167  2.2506
   59CHL1  H27C 5546   4.163   0.868   3.780  2.0587  1.4783  1.6160
   60CHL1    C3 5547   5.030   6.653   2.126 -0.8701  0.1932  0.6192
   60CHL1    H3 5548   5.131   6.689   2.155 -0.6871 -1.4158  2.1410
   60CHL1    O3 5549   5.013   6.678   1.984 -0.2466  0.1523 -0.2636
   60CHL1   H3' 5550   4.917   6.669   1.980 -0.0689 -1.4086 -2.4927
   60CHL1    C4 5551   5.014   6.503   2.158  0.4044  0.1997  0.1455
   60CHL1   H4A 5552   4.922   6.467   2.107  0.8238  0.9530 -1.1918
   60CHL1   H4B 5553   5.097   6.458   2.098  0.0630  0.8357 -0.8257
   60CHL1    C5 5554   5.030   6.467   2.307  0.4293  0.8935 -0.0592
   60CHL1    C6 5555   5.119   6.376   2.355 -0.6830  0.8058 -0.0985
   60CHL1    H6 5556   5.182   6.318   2.286 -2.4385  0.1647 -1.2084
   60CHL1    C7 5557   5.127   6.346   2.501 -0.3631 -0.1994 -0.4033
   60CHL1   H7A 5558   5.148   6.240   2.526 -2.9498 -0.2770  1.8979
   60CHL1   H7B 5559   5.210   6.405   2.545 -1.2945  1.6631 -1.0101
   60CHL1    C8 5560   4.998   6.390   2.584  0.2024  0.0687  0.1743
   60CHL1    H8 5561   4.916   6.319   2.561  0.3686 -0.4635  1.1729
   60CHL1   C14 5562   5.016   6.373   2.735 -0.2150  0.5000 -0.6822
   60CHL1   H14 5563   5.108   6.433   2.752  0.7463 -0.8772 -0.8791
   60CHL1   C15 5564   5.042   6.237   2.796  0.2044  0.3103 -0.1223
   60CHL1  H15A 5565   4.965   6.166   2.762  0.8460 -1.6562  2.2260
   60CHL1  H15B 5566   5.141   6.200   2.762 -0.2150  0.6356 -1.7970
   60CHL1   C16 5567   5.029   6.256   2.942 -0.1752  0.0689 -0.1075
   60CHL1  H16A 5568   4.974   6.167   2.979 -1.4375  1.1703  0.7647
   60CHL1  H16B 5569   5.132   6.259   2.983  0.7149  0.5210 -2.2148
   60CHL1   C17 5570   4.962   6.398   2.962  0.1306 -0.3651 -0.2296
   60CHL1   H17 5571   5.038   6.478   2.976 -1.7364  1.6834 -1.1081
   60CHL1   C13 5572   4.902   6.430   2.826 -0.2079 -0.0951  0.2875
   60CHL1   C18 5573   4.771   6.356   2.804  1.5671 -0.1527  0.5516
   60CHL1  H18A 5574   4.770   6.249   2.834  1.5083 -0.2336  0.2680
   60CHL1  H18B 5575   4.709   6.405   2.882  2.6190 -1.8350  2.5261
   60CHL1  H18C 5576   4.723   6.380   2.707  1.3367 -0.6398  0.5460
   60CHL1   C12 5577   4.893   6.582   2.798 -0.3281  0.6326 -0.9272
   60CHL1  H12A 5578   4.826   6.635   2.869  0.9814 -0.8463  1.5677
   60CHL1  H12B 5579   4.989   6.633   2.818 -0.2666  0.1424  0.0547
   60CHL1   C11 5580   4.866   6.612   2.645 -0.2641  0.4370 -0.4652
   60CHL1  H11A 5581   4.760   6.585   2.626 -0.7098  1.9437 -0.2972
   60CHL1  H11B 5582   4.867   6.722   2.627  1.9231  0.6340  0.5224
   60CHL1    C9 5583   4.962   6.537   2.548  0.0825  0.7405 -0.6180
   60CHL1    H9 5584   5.061   6.587   2.555  0.9441 -0.6934 -1.9279
   60CHL1   C10 5585   4.935   6.555   2.397  0.7326  0.8099  0.0387
   60CHL1   C19 5586   4.787   6.505   2.372 -0.7340  0.1231 -0.0970
   60CHL1  H19A 5587   4.716   6.569   2.430 -0.1132 -0.9200  1.8826
   60CHL1  H19B 5588   4.751   6.532   2.270  0.9444 -0.9659 -1.0153
   60CHL1  H19C 5589   4.781   6.396   2.393 -0.9101 -0.0276 -0.8837
   60CHL1    C1 5590   4.940   6.704   2.361 -0.4619  0.3403 -0.2854
   60CHL1   H1A 5591   4.857   6.751   2.417 -2.1618 -1.3048 -1.3239
   60CHL1   H1B 5592   5.035   6.749   2.397 -1.3850  1.9998  0.1629
   60CHL1    C2 5593   4.932   6.741   2.213 -0.1634  0.1715  0.3117
   60CHL1   H2A 5594   4.961   6.847   2.202 -1.9623  0.8441  1.5046
   60CHL1   H2B 5595   4.827   6.725   2.181 -0.0483  0.1217 -0.0426
   60CHL1   C20 5596   4.877   6.416   3.092 -1.2855 -0.1564  0.3015
   60CHL1   H20 5597   4.820   6.511   3.084 -0.5059  0.3246  0.3765
   60CHL1   C21 5598   4.986   6.435   3.204  0.7259  0.4087  0.0006
   60CHL1  H21A 5599   5.052   6.523   3.185  1.3390 -0.1343 -0.4552
   60CHL1  H21B 5600   5.051   6.344   3.210 -0.8437 -0.7174  0.4902
   60CHL1  H21C 5601   4.927   6.430   3.298  0.0830 -0.9016 -0.4384
   60CHL1   C22 5602   4.784   6.302   3.128 -0.1200  0.4267  0.0921
   60CHL1  H22A 5603   4.716   6.272   3.046 -1.2581 -3.2486  2.1288
   60CHL1  H22B 5604   4.830   6.203   3.149 -1.0522 -0.0351  0.0500
   60CHL1   C23 5605   4.693   6.338   3.245  0.2327 -0.0364  0.1730
   60CHL1  H23A 5606   4.753   6.337   3.338 -1.3704 -0.1619  1.2415
   60CHL1  H23B 5607   4.642   6.436   3.233  0.5911  0.2208  0.7239
   60CHL1   C24 5608   4.595   6.218   3.267 -0.4577  0.5288 -0.1160
   60CHL1  H24A 5609   4.534   6.211   3.175 -0.8599  1.9874  0.0170
   60CHL1  H24B 5610   4.664   6.131   3.263  0.0498  0.9468 -0.6538
   60CHL1   C25 5611   4.519   6.222   3.392  0.2046  0.4361  0.2598
   60CHL1   H25 5612   4.588   6.258   3.471  1.7371 -0.0263 -0.8421
   60CHL1   C26 5613   4.403   6.324   3.374  0.6202 -1.0466 -0.2524
   60CHL1  H26A 5614   4.358   6.370   3.464 -2.4028  3.2788 -3.5812
   60CHL1  H26B 5615   4.419   6.405   3.300 -0.6084  0.8720  1.4918
   60CHL1  H26C 5616   4.316   6.265   3.337 -0.8634 -0.0694  1.4861
   60CHL1   C27 5617   4.476   6.081   3.445 -0.0808 -0.4459  1.1462
   60CHL1  H27A 5618   4.561   6.009   3.444 -0.4658 -0.9219 -0.6349
   60CHL1  H27B 5619   4.425   6.095   3.542  0.6994  0.3660  1.4622
   60CHL1  H27C 5620   4.410   6.051   3.361 -1.4449 -2.5471  2.8714
   61CHL1    C3 5621   6.421   2.181   2.125 -0.5124 -0.2641  0.9787
   61CHL1    H3 5622   6.419   2.074   2.093  1.9444 -0.1467  0.2274
   61CHL1    O3 5623   6.431   2.253   1.999  0.1172 -0.1245  0.6945
   61CHL1   H3' 5624   6.463   2.338   2.029 -1.9745  1.0877 -0.3021
   61CHL1    C4 5625   6.294   2.229   2.196  0.7193 -0.0255 -0.1034
   61CHL1   H4A 5626   6.298   2.339   2.206  2.2853  0.0225 -1.0118
   61CHL1   H4B 5627   6.204   2.220   2.132 -0.8399 -0.0803  1.9767
   61CHL1    C5 5628   6.285   2.155   2.326 -0.4406  0.1948 -0.3261
   61CHL1    C6 5629   6.188   2.067   2.359 -0.0495 -0.7733  0.3599
   61CHL1    H6 5630   6.101   2.055   2.291 -1.1075  2.7187  0.9097
   61CHL1    C7 5631   6.172   2.004   2.494  0.7418  0.0606  0.2255
   61CHL1   H7A 5632   6.067   1.999   2.532  0.9931  0.4528  0.9983
   61CHL1   H7B 5633   6.211   1.901   2.486  2.1543  0.6819 -1.3740
   61CHL1    C8 5634   6.252   2.079   2.600 -0.1301  0.0513  0.8546
   61CHL1    H8 5635   6.209   2.181   2.607 -0.5199  0.1220 -1.7845
   61CHL1   C14 5636   6.251   1.999   2.729  0.7650  0.9691  0.8597
   61CHL1   H14 5637   6.290   1.897   2.711  1.2787  1.5537 -1.8481
   61CHL1   C15 5638   6.110   1.973   2.786 -0.2004  0.2260  0.1662
   61CHL1  H15A 5639   6.054   2.069   2.788  0.4193  0.6094 -0.6336
   61CHL1  H15B 5640   6.055   1.897   2.727  0.2590  0.2857 -0.3421
   61CHL1   C16 5641   6.138   1.934   2.933 -0.3859  1.0474  0.1754
   61CHL1  H16A 5642   6.065   1.964   3.011  0.9585  0.4835  1.7213
   61CHL1  H16B 5643   6.136   1.823   2.934 -0.7037  1.0487  0.0354
   61CHL1   C17 5644   6.287   1.969   2.961 -0.4820 -0.9612  0.7960
   61CHL1   H17 5645   6.343   1.877   2.936  0.4674 -0.7106  1.9111
   61CHL1   C13 5646   6.333   2.059   2.841 -0.6191 -0.2772  0.0183
   61CHL1   C18 5647   6.294   2.214   2.877 -0.6440 -0.4820 -0.3156
   61CHL1  H18A 5648   6.352   2.245   2.966 -3.4876 -1.5253  2.0590
   61CHL1  H18B 5649   6.313   2.272   2.784 -2.6957 -0.0789 -0.5151
   61CHL1  H18C 5650   6.186   2.222   2.902 -1.2388 -0.3152 -2.6480
   61CHL1   C12 5651   6.481   2.039   2.790  0.7798 -0.0523  0.8031
   61CHL1  H12A 5652   6.555   2.071   2.866  0.7695 -0.1300  0.8455
   61CHL1  H12B 5653   6.506   1.935   2.760  1.8206  1.1258 -3.0279
   61CHL1   C11 5654   6.503   2.116   2.657  0.0015 -0.5555 -0.2184
   61CHL1  H11A 5655   6.500   2.224   2.683  2.1130  0.3277 -3.2054
   61CHL1  H11B 5656   6.605   2.111   2.615 -0.0095  1.4175 -0.5458
   61CHL1    C9 5657   6.398   2.095   2.545  0.3884  0.1038 -0.2677
   61CHL1    H9 5658   6.423   1.992   2.512 -1.1381 -0.3934  0.0559
   61CHL1   C10 5659   6.405   2.186   2.418  0.2002 -0.2183 -0.2766
   61CHL1   C19 5660   6.399   2.341   2.456  0.5119  0.8726  0.0044
   61CHL1  H19A 5661   6.297   2.370   2.490 -0.3631 -1.6621 -0.2496
   61CHL1  H19B 5662   6.484   2.364   2.524  1.8316  0.2021 -1.3515
   61CHL1  H19C 5663   6.431   2.407   2.373  1.0183  0.4734 -0.1232
   61CHL1    C1 5664   6.539   2.143   2.345 -0.1517 -0.3657  0.7132
   61CHL1   H1A 5665   6.623   2.178   2.408 -0.8528  1.1816  0.8165
   61CHL1   H1B 5666   6.555   2.033   2.339  0.4930 -0.2203 -0.9853
   61CHL1    C2 5667   6.549   2.212   2.205  0.4429  0.3844  0.1492
   61CHL1   H2A 5668   6.646   2.192   2.155  1.9110  1.7223  2.2833
   61CHL1   H2B 5669   6.559   2.321   2.221  1.6599  0.6403 -2.0040
   61CHL1   C20 5670   6.310   2.007   3.109 -0.1826 -0.0817  0.1542
   61CHL1   H20 5671   6.269   2.107   3.132  1.2534  0.2303  1.5580
   61CHL1   C21 5672   6.459   2.025   3.130 -0.0152  0.9552 -0.8008
   61CHL1  H21A 5673   6.489   2.032   3.237 -1.7939 -0.0354 -0.2032
   61CHL1  H21B 5674   6.498   2.114   3.074 -1.1604  2.0505  0.0915
   61CHL1  H21C 5675   6.506   1.932   3.093 -1.1443  0.4284 -0.9308
   61CHL1   C22 5676   6.249   1.905   3.211 -0.1330  0.9080  0.7081
   61CHL1  H22A 5677   6.140   1.889   3.195 -0.1765  0.4440  1.4038
   61CHL1  H22B 5678   6.296   1.808   3.185  2.3852  2.6653 -1.9721
   61CHL1   C23 5679   6.266   1.936   3.354 -0.2638 -0.0089 -0.1856
   61CHL1  H23A 5680   6.370   1.925   3.389  0.2826  1.1167 -1.3625
   61CHL1  H23B 5681   6.247   2.045   3.367 -1.3862 -0.1240 -0.7198
   61CHL1   C24 5682   6.181   1.846   3.443 -0.4364 -0.2385  0.2588
   61CHL1  H24A 5683   6.074   1.858   3.415  0.0519  1.9251 -0.8260
   61CHL1  H24B 5684   6.191   1.737   3.424 -2.9198 -0.1140 -2.5236
   61CHL1   C25 5685   6.210   1.879   3.586  0.1284  0.1803 -0.1307
   61CHL1   H25 5686   6.320   1.880   3.601 -0.0737 -1.0411  1.7054
   61CHL1   C26 5687   6.145   2.011   3.630  1.0382 -0.8774  0.5548
   61CHL1  H26A 5688   6.188   2.090   3.565 -0.4068 -1.6332 -1.4298
   61CHL1  H26B 5689   6.038   2.007   3.601  1.4534 -0.4776 -1.1674
   61CHL1  H26C 5690   6.149   2.029   3.740  0.8692 -0.3809  0.4804
   61CHL1   C27 5691   6.143   1.769   3.670 -0.3148  0.3660  0.1954
   61CHL1  H27A 5692   6.199   1.673   3.657 -1.9798 -0.5612 -0.3646
   61CHL1  H27B 5693   6.142   1.792   3.779 -0.4557  1.1849  0.0247
   61CHL1  H27C 5694   6.040   1.744   3.636 -0.2901 -2.6526  1.9587
   62CHL1    C3 5695   1.598   1.281   2.264  0.4448  0.2136  0.6163
   62CHL1    H3 5696   1.651   1.379   2.263  0.7192  0.0637  0.3477
   62CHL1    O3 5697   1.552   1.253   2.132 -0.5421 -0.3084 -0.4889
   62CHL1   H3' 5698   1.520   1.162   2.134  0.1603 -0.5612 -0.0958
   62CHL1    C4 5699   1.699   1.169   2.310 -0.3271  0.2123  0.3566
   62CHL1   H4A 5700   1.648   1.072   2.291 -0.5089  0.3451  0.1579
   62CHL1   H4B 5701   1.785   1.189   2.243 -0.0727 -1.6659  0.0760
   62CHL1    C5 5702   1.732   1.197   2.452 -0.0545  0.0716 -0.7665
   62CHL1    C6 5703   1.862   1.209   2.504  0.1873  0.0584  0.5931
   62CHL1    H6 5704   1.941   1.192   2.430 -2.1776 -0.5383 -1.9800
   62CHL1    C7 5705   1.903   1.212   2.646  0.5802  0.3262  0.4619
   62CHL1   H7A 5706   1.984   1.137   2.663 -0.2398 -0.6963 -0.0442
   62CHL1   H7B 5707   1.934   1.313   2.679  1.4807  0.9248 -2.0026
   62CHL1    C8 5708   1.782   1.179   2.739  0.8154 -0.3665  0.0515
   62CHL1    H8 5709   1.764   1.070   2.727  0.5066 -0.4147  0.8794
   62CHL1   C14 5710   1.822   1.215   2.885  0.4529  0.1751 -0.6094
   62CHL1   H14 5711   1.837   1.325   2.890  1.5530 -0.0086  0.9753
   62CHL1   C15 5712   1.955   1.165   2.945  0.2258 -0.3544 -0.0007
   62CHL1  H15A 5713   1.958   1.056   2.921 -1.6274 -0.7794  1.4031
   62CHL1  H15B 5714   2.036   1.226   2.902  0.3675 -0.8968 -0.5080
   62CHL1   C16 5715   1.932   1.182   3.099 -0.6650 -0.0401  0.5647
   62CHL1  H16A 5716   1.955   1.095   3.164 -0.1960  1.2677  2.2158
   62CHL1  H16B 5717   2.007   1.256   3.132 -0.2960 -0.5340  0.8430
   62CHL1   C17 5718   1.784   1.232   3.121  0.3143  0.1487 -0.2259
   62CHL1   H17 5719   1.794   1.343   3.122  0.9396  0.0969 -0.0544
   62CHL1   C13 5720   1.711   1.196   2.993  0.0448  0.4168 -0.1987
   62CHL1   C18 5721   1.689   1.041   2.995 -0.8182 -0.4285 -0.9264
   62CHL1  H18A 5722   1.626   1.004   2.912 -1.2705 -2.7332  0.3629
   62CHL1  H18B 5723   1.781   0.980   3.004 -2.7879 -3.5600 -0.6751
   62CHL1  H18C 5724   1.634   1.025   3.090  0.6374 -1.1097 -0.1513
   62CHL1   C12 5725   1.590   1.292   2.948 -0.3662 -0.2758 -0.6025
   62CHL1  H12A 5726   1.506   1.270   3.017  1.2737 -1.9210  0.9904
   62CHL1  H12B 5727   1.637   1.392   2.953  1.7306 -1.1370 -1.7794
   62CHL1   C11 5728   1.543   1.259   2.805 -0.3621  0.3836  0.3752
   62CHL1  H11A 5729   1.505   1.155   2.816 -3.1919  1.4793  1.8280
   62CHL1  H11B 5730   1.454   1.318   2.775 -1.5433 -1.8847 -0.8731
   62CHL1    C9 5731   1.656   1.260   2.696 -0.6540 -0.0060  0.6613
   62CHL1    H9 5732   1.694   1.364   2.695  1.0591 -0.5979  0.8174
   62CHL1   C10 5733   1.610   1.226   2.551 -0.4395  1.3676 -0.8639
   62CHL1   C19 5734   1.531   1.100   2.564  0.4701  0.0976  0.5147
   62CHL1  H19A 5735   1.578   1.012   2.614 -1.0294 -1.1566 -0.1946
   62CHL1  H19B 5736   1.437   1.113   2.622  1.4917 -0.2537  2.3188
   62CHL1  H19C 5737   1.504   1.065   2.462  1.7020  1.8418 -0.4565
   62CHL1    C1 5738   1.514   1.334   2.488 -0.3658 -0.6626  0.2018
   62CHL1   H1A 5739   1.418   1.343   2.544 -1.8602  1.1100 -2.4368
   62CHL1   H1B 5740   1.571   1.429   2.481  1.5542 -1.8293 -0.8897
   62CHL1    C2 5741   1.475   1.302   2.349 -0.3392  0.2046  0.9476
   62CHL1   H2A 5742   1.403   1.374   2.304 -1.1448 -1.3422 -0.3804
   62CHL1   H2B 5743   1.405   1.215   2.344  0.1665 -0.2688  1.8894
   62CHL1   C20 5744   1.734   1.182   3.259  0.5698 -0.2953  0.0118
   62CHL1   H20 5745   1.739   1.071   3.264 -2.7820 -0.6197 -1.2154
   62CHL1   C21 5746   1.580   1.213   3.278  0.2047  0.1999 -0.5406
   62CHL1  H21A 5747   1.555   1.308   3.228  0.9102  0.3190 -0.6804
   62CHL1  H21B 5748   1.558   1.222   3.387  1.2824 -1.0073 -0.1885
   62CHL1  H21C 5749   1.512   1.134   3.237 -2.1794  0.8310  1.9083
   62CHL1   C22 5750   1.822   1.233   3.369 -0.2948 -0.7728 -0.6276
   62CHL1  H22A 5751   1.930   1.218   3.353  0.0865  0.8097  0.2302
   62CHL1  H22B 5752   1.815   1.342   3.392  2.3529 -0.6791  0.0030
   62CHL1   C23 5753   1.785   1.168   3.503 -0.0177 -0.1043 -0.5378
   62CHL1  H23A 5754   1.690   1.215   3.536  0.6403  0.9717 -0.0976
   62CHL1  H23B 5755   1.773   1.059   3.485 -0.9541 -0.1592  0.3602
   62CHL1   C24 5756   1.893   1.191   3.607  0.4871  0.4565  0.0431
   62CHL1  H24A 5757   1.995   1.181   3.564  0.3044  1.2112 -0.5880
   62CHL1  H24B 5758   1.881   1.294   3.648 -0.0797  2.0336 -3.6554
   62CHL1   C25 5759   1.876   1.099   3.734 -0.5292  1.0840  0.4870
   62CHL1   H25 5760   1.858   0.993   3.705  0.4667  0.4303  2.0968
   62CHL1   C26 5761   1.998   1.112   3.833 -0.0354  0.8598 -0.0244
   62CHL1  H26A 5762   2.095   1.086   3.785  0.5671  2.1386  0.4477
   62CHL1  H26B 5763   2.007   1.214   3.875  1.0020  0.5572  0.5190
   62CHL1  H26C 5764   1.986   1.034   3.911 -0.8410  1.0921  0.0911
   62CHL1   C27 5765   1.746   1.133   3.805 -0.8616  0.6512  0.0982
   62CHL1  H27A 5766   1.658   1.150   3.738  0.1422  0.0953 -1.4172
   62CHL1  H27B 5767   1.730   1.066   3.892 -1.0124  2.4532  1.5131
   62CHL1  H27C 5768   1.758   1.238   3.840  0.9638  0.4165  0.2325
   63CHL1    C3 5769   6.323   4.506   2.132 -0.6113  0.2282 -0.0729
   63CHL1    H3 5770   6.237   4.553   2.185 -0.4160  0.9449 -0.3792
   63CHL1    O3 5771   6.306   4.530   1.991 -0.0806  0.0842 -0.4375
   63CHL1   H3' 5772   6.219   4.499   1.965  0.0865 -1.3341  0.5716
   63CHL1    C4 5773   6.446   4.563   2.202  0.2302 -0.0765  0.4508
   63CHL1   H4A 5774   6.541   4.537   2.150 -0.1173  0.1010 -0.2852
   63CHL1   H4B 5775   6.453   4.671   2.179  0.5330 -0.0929  0.4643
   63CHL1    C5 5776   6.461   4.528   2.348 -0.0713 -0.3538 -0.3642
   63CHL1    C6 5777   6.473   4.620   2.441  0.0334 -0.0212  0.7248
   63CHL1    H6 5778   6.486   4.721   2.398  0.6948 -0.7372 -0.8308
   63CHL1    C7 5779   6.508   4.600   2.585  0.5605  0.5471  0.4425
   63CHL1   H7A 5780   6.600   4.656   2.613  1.0880 -0.9900  1.9136
   63CHL1   H7B 5781   6.420   4.641   2.639 -0.1615  1.1657 -1.1529
   63CHL1    C8 5782   6.534   4.446   2.618  0.1870  0.2476  0.1285
   63CHL1    H8 5783   6.639   4.417   2.594  0.1086  1.4387 -1.8216
   63CHL1   C14 5784   6.520   4.414   2.762 -0.2081  0.4225 -0.2188
   63CHL1   H14 5785   6.430   4.470   2.795  0.5807  1.9357 -0.5235
   63CHL1   C15 5786   6.625   4.480   2.856 -0.2676 -0.2073 -0.5645
   63CHL1  H15A 5787   6.732   4.464   2.828  0.6592  2.9434  0.6453
   63CHL1  H15B 5788   6.626   4.589   2.881 -0.1671  0.5420 -3.5130
   63CHL1   C16 5789   6.601   4.401   2.987  0.0383  0.1830 -0.4045
   63CHL1  H16A 5790   6.697   4.363   3.026  0.8141 -0.0629 -2.4100
   63CHL1  H16B 5791   6.556   4.477   3.054 -0.6587  0.7736 -1.4975
   63CHL1   C17 5792   6.493   4.287   2.961 -0.3420  0.2929  0.5718
   63CHL1   H17 5793   6.388   4.320   2.974 -0.3995  0.4725 -0.2952
   63CHL1   C13 5794   6.506   4.266   2.810  0.0409 -0.2892  0.0489
   63CHL1   C18 5795   6.638   4.186   2.784 -0.0037  0.0222 -0.8388
   63CHL1  H18A 5796   6.669   4.198   2.677 -1.4398 -0.9845 -1.4009
   63CHL1  H18B 5797   6.723   4.219   2.848  0.6902 -1.3726 -1.0023
   63CHL1  H18C 5798   6.618   4.079   2.805 -1.9773  0.5020 -0.0889
   63CHL1   C12 5799   6.387   4.200   2.729  0.2275 -1.2449  0.0158
   63CHL1  H12A 5800   6.375   4.093   2.759  0.7455 -0.7926  2.0154
   63CHL1  H12B 5801   6.291   4.247   2.763  0.5263 -0.9700  0.4945
   63CHL1   C11 5802   6.416   4.209   2.574 -0.5916 -0.1084  0.0406
   63CHL1  H11A 5803   6.507   4.149   2.552 -0.0801  0.6840 -0.0483
   63CHL1  H11B 5804   6.331   4.166   2.517 -1.0781  0.5560  0.2512
   63CHL1    C9 5805   6.436   4.361   2.534  0.1530 -0.0204  0.5395
   63CHL1    H9 5806   6.340   4.407   2.566 -0.6764  1.1254 -3.1022
   63CHL1   C10 5807   6.445   4.374   2.382  0.0043 -0.1512 -0.1879
   63CHL1   C19 5808   6.576   4.300   2.334  0.5490  0.0761  0.1185
   63CHL1  H19A 5809   6.660   4.329   2.401 -0.0699  0.4621  0.7527
   63CHL1  H19B 5810   6.555   4.191   2.337  0.1670  0.1002 -1.0980
   63CHL1  H19C 5811   6.604   4.314   2.228 -1.1719  1.3082 -0.2228
   63CHL1    C1 5812   6.323   4.322   2.311  0.4527  0.1792  0.4891
   63CHL1   H1A 5813   6.327   4.211   2.306  1.2596  0.2209 -3.8320
   63CHL1   H1B 5814   6.226   4.354   2.355  0.1534  0.8306 -0.6164
   63CHL1    C2 5815   6.312   4.352   2.158  0.2342 -0.8999 -0.4430
   63CHL1   H2A 5816   6.215   4.307   2.129 -0.9377 -0.1500  2.0596
   63CHL1   H2B 5817   6.401   4.300   2.116  1.8390  0.3164  1.2783
   63CHL1   C20 5818   6.506   4.177   3.064 -0.0672  0.3798 -0.5559
   63CHL1   H20 5819   6.606   4.131   3.050 -0.1693 -0.7486  1.8025
   63CHL1   C21 5820   6.403   4.074   3.034  0.0504  0.8307  0.4284
   63CHL1  H21A 5821   6.392   4.013   3.127  1.1521  0.0482  0.0658
   63CHL1  H21B 5822   6.435   4.002   2.956 -0.9027 -1.4325  1.9710
   63CHL1  H21C 5823   6.303   4.117   3.009  0.3337  0.1564 -2.1873
   63CHL1   C22 5824   6.495   4.233   3.209  1.1982  0.4363 -0.6842
   63CHL1  H22A 5825   6.564   4.319   3.212  1.2700  0.3792  2.6805
   63CHL1  H22B 5826   6.392   4.267   3.236  1.3430  0.9233 -0.7465
   63CHL1   C23 5827   6.553   4.143   3.313 -0.0254  0.3385  0.2591
   63CHL1  H23A 5828   6.480   4.061   3.330 -0.1262  0.4595  0.4183
   63CHL1  H23B 5829   6.643   4.085   3.285  0.4021  1.5714 -1.0293
   63CHL1   C24 5830   6.588   4.221   3.439 -0.2219 -0.3160 -0.5995
   63CHL1  H24A 5831   6.671   4.290   3.414 -0.4711  0.0450 -0.4392
   63CHL1  H24B 5832   6.503   4.284   3.473 -0.8352 -0.7944 -1.2186
   63CHL1   C25 5833   6.635   4.139   3.562  0.3801  0.9385 -0.2915
   63CHL1   H25 5834   6.697   4.056   3.522  0.1800 -0.1462  1.5490
   63CHL1   C26 5835   6.727   4.214   3.664  0.1765  0.2780  0.4932
   63CHL1  H26A 5836   6.823   4.237   3.613 -0.3092  0.6755 -0.2574
   63CHL1  H26B 5837   6.669   4.303   3.698 -0.8104  0.4175 -1.4094
   63CHL1  H26C 5838   6.734   4.142   3.748  0.5286 -0.9255 -0.5364
   63CHL1   C27 5839   6.511   4.074   3.629 -0.5608  0.0992  0.2079
   63CHL1  H27A 5840   6.547   4.018   3.718 -1.1951 -2.0565 -0.8245
   63CHL1  H27B 5841   6.451   4.159   3.669 -0.0220  0.4868  0.2091
   63CHL1  H27C 5842   6.448   4.013   3.562 -0.3861 -1.1486  1.1448
   64CHL1    C3 5843   1.812   6.239   2.306  0.8187  0.0632 -0.1492
   64CHL1    H3 5844   1.805   6.149   2.240  2.2874  1.0256 -1.6923
   64CHL1    O3 5845   1.817   6.355   2.226 -0.1240 -0.2716 -0.3361
   64CHL1   H3' 5846   1.789   6.430   2.279 -0.8088 -1.0863  0.4846
   64CHL1    C4 5847   1.680   6.253   2.386 -0.1738  0.3696  0.3659
   64CHL1   H4A 5848   1.693   6.352   2.436 -1.8616  0.2598  1.0823
   64CHL1   H4B 5849   1.593   6.250   2.318  1.9159 -1.0148 -2.4524
   64CHL1    C5 5850   1.663   6.162   2.502  0.1427  0.8458  0.5184
   64CHL1    C6 5851   1.556   6.086   2.511  0.2365  0.4393 -0.4890
   64CHL1    H6 5852   1.476   6.096   2.437  0.6827  0.9846 -0.9045
   64CHL1    C7 5853   1.525   5.986   2.620 -0.6666 -0.6421 -0.0534
   64CHL1   H7A 5854   1.424   6.015   2.658 -0.0862  2.7705 -0.7265
   64CHL1   H7B 5855   1.518   5.884   2.576 -0.9460 -0.2246 -1.0279
   64CHL1    C8 5856   1.627   6.007   2.734  0.3603  0.2987 -0.1097
   64CHL1    H8 5857   1.592   6.102   2.782 -0.6322  1.0591 -2.2314
   64CHL1   C14 5858   1.618   5.887   2.824  0.9156  0.0592 -0.5763
   64CHL1   H14 5859   1.635   5.796   2.763  0.5296 -0.5690  0.2293
   64CHL1   C15 5860   1.481   5.863   2.889 -0.7949 -0.2115 -0.6787
   64CHL1  H15A 5861   1.436   5.957   2.924 -1.2628  0.1075 -2.0701
   64CHL1  H15B 5862   1.416   5.810   2.816 -0.5054  0.7606 -1.6699
   64CHL1   C16 5863   1.512   5.761   3.007 -0.3240  0.0350 -0.4827
   64CHL1  H16A 5864   1.455   5.808   3.089 -1.1095 -0.0035 -0.9965
   64CHL1  H16B 5865   1.472   5.660   2.988 -3.6908  1.0213  0.7649
   64CHL1   C17 5866   1.670   5.762   3.032  0.2916  0.4081 -0.2106
   64CHL1   H17 5867   1.707   5.675   2.973 -0.0531 -0.1433  0.3736
   64CHL1   C13 5868   1.715   5.887   2.939 -0.2146 -0.1115 -0.0083
   64CHL1   C18 5869   1.709   6.022   3.027  0.3422  0.2480  0.5581
   64CHL1  H18A 5870   1.610   6.055   3.066 -0.3520  0.0830 -0.9878
   64CHL1  H18B 5871   1.778   6.013   3.114 -0.4353  0.7445  1.2409
   64CHL1  H18C 5872   1.734   6.104   2.956 -1.6776 -0.2376 -0.7852
   64CHL1   C12 5873   1.859   5.875   2.881 -0.6073 -0.2298  0.8100
   64CHL1  H12A 5874   1.943   5.859   2.952  0.6223  1.5670 -0.1646
   64CHL1  H12B 5875   1.865   5.774   2.834  1.9421  0.4540 -0.4877
   64CHL1   C11 5876   1.894   5.985   2.781  0.5380  0.8392 -0.0085
   64CHL1  H11A 5877   1.917   6.077   2.839 -0.6187  1.2462 -0.1551
   64CHL1  H11B 5878   1.985   5.949   2.729  0.2699 -1.5841  1.0745
   64CHL1    C9 5879   1.775   6.012   2.682 -0.1327 -0.2514  0.3793
   64CHL1    H9 5880   1.779   5.921   2.618 -3.0647 -0.7668  0.8147
   64CHL1   C10 5881   1.792   6.136   2.588  0.9014  0.2208  0.5031
   64CHL1   C19 5882   1.812   6.261   2.675 -0.2052 -0.2026  0.1254
   64CHL1  H19A 5883   1.823   6.353   2.615 -0.4575 -1.4953 -2.0095
   64CHL1  H19B 5884   1.732   6.273   2.751  0.0649  1.5859  0.1659
   64CHL1  H19C 5885   1.904   6.246   2.735  1.7793  1.5221 -2.2862
   64CHL1    C1 5886   1.915   6.118   2.497 -0.5769 -0.3455  0.5049
   64CHL1   H1A 5887   2.004   6.125   2.562  0.4261 -0.3748 -0.8148
   64CHL1   H1B 5888   1.917   6.017   2.449 -1.0894  0.2390 -0.8138
   64CHL1    C2 5889   1.936   6.226   2.395 -0.6200 -0.0252  0.5800
   64CHL1   H2A 5890   2.029   6.216   2.335 -1.4593  1.8774 -1.1649
   64CHL1   H2B 5891   1.940   6.319   2.455 -3.9113  0.3643  0.3907
   64CHL1   C20 5892   1.710   5.738   3.176 -0.7559  0.3437  0.0013
   64CHL1   H20 5893   1.678   5.832   3.225 -0.4157  0.7148 -0.4781
   64CHL1   C21 5894   1.863   5.729   3.194  0.5865 -0.0259 -0.1223
   64CHL1  H21A 5895   1.911   5.638   3.151  1.4832 -0.0743  0.9247
   64CHL1  H21B 5896   1.874   5.741   3.304 -2.8119 -1.3914  0.4822
   64CHL1  H21C 5897   1.909   5.820   3.151  0.4674  0.1442  0.1104
   64CHL1   C22 5898   1.631   5.617   3.241 -0.2533 -0.1773 -0.4621
   64CHL1  H22A 5899   1.532   5.617   3.192  0.5194  2.0221 -2.2124
   64CHL1  H22B 5900   1.692   5.531   3.206  0.2920  0.2005 -0.4672
   64CHL1   C23 5901   1.602   5.620   3.391  0.0845  0.3192 -0.1736
   64CHL1  H23A 5902   1.690   5.635   3.457  0.3202  1.4223 -0.7081
   64CHL1  H23B 5903   1.537   5.709   3.405  0.4890  0.8913 -1.7531
   64CHL1   C24 5904   1.539   5.496   3.446 -0.1301 -0.4430  0.0613
   64CHL1  H24A 5905   1.444   5.457   3.402 -0.3524 -1.9770  1.7504
   64CHL1  H24B 5906   1.605   5.407   3.434 -2.4592 -2.4922  1.4833
   64CHL1   C25 5907   1.492   5.499   3.597 -0.3049  0.1329 -0.3006
   64CHL1   H25 5908   1.572   5.469   3.667 -1.5432 -0.9583  0.6900
   64CHL1   C26 5909   1.441   5.637   3.638  0.0166  0.1057 -0.5211
   64CHL1  H26A 5910   1.368   5.671   3.561  0.3687  0.5940 -0.6458
   64CHL1  H26B 5911   1.404   5.627   3.742  1.8022  0.6645  0.2108
   64CHL1  H26C 5912   1.519   5.716   3.632  0.7521 -0.3855  1.6109
   64CHL1   C27 5913   1.398   5.379   3.633  0.5580  0.6370 -0.2648
   64CHL1  H27A 5914   1.351   5.398   3.732  1.8697  2.3878  0.0883
   64CHL1  H27B 5915   1.313   5.383   3.562 -1.2485 -0.4320  1.7430
   64CHL1  H27C 5916   1.440   5.277   3.619  1.0179  1.0299 -2.0863
   65CHL1    C3 5917   0.853   1.264   2.338 -0.5417  0.9019 -0.2183
   65CHL1    H3 5918   0.766   1.308   2.390 -0.6526 -2.1496  2.4678
   65CHL1    O3 5919   0.849   1.280   2.195  0.0291  0.2859 -0.0736
   65CHL1   H3' 5920   0.943   1.274   2.174  0.2013 -2.8834  1.0752
   65CHL1    C4 5921   0.976   1.340   2.400  0.2302  0.6635 -0.0290
   65CHL1   H4A 5922   1.066   1.312   2.341  2.0120 -2.1443  3.6562
   65CHL1   H4B 5923   0.962   1.448   2.375  3.6361  0.5089 -3.6695
   65CHL1    C5 5924   0.991   1.309   2.546  0.1377 -0.5420 -0.4647
   65CHL1    C6 5925   0.981   1.407   2.641  0.7827 -0.5168  0.0235
   65CHL1    H6 5926   0.969   1.509   2.603 -1.4711 -0.2605  1.2752
   65CHL1    C7 5927   1.009   1.389   2.787 -0.6700  0.4355 -0.6395
   65CHL1   H7A 5928   1.082   1.466   2.820  0.1841 -1.4253  2.1219
   65CHL1   H7B 5929   0.924   1.408   2.856 -1.8201 -1.3916 -1.4912
   65CHL1    C8 5930   1.069   1.250   2.819  0.2216 -0.0479  0.0947
   65CHL1    H8 5931   1.172   1.247   2.778  0.7295  1.7750  1.1411
   65CHL1   C14 5932   1.052   1.222   2.970 -0.5536 -0.2458 -0.0374
   65CHL1   H14 5933   0.943   1.210   2.985 -0.1960 -3.3032  0.7938
   65CHL1   C15 5934   1.109   1.315   3.073  0.3138 -0.1450  1.1686
   65CHL1  H15A 5935   1.209   1.344   3.033 -1.2510  0.8375 -2.4280
   65CHL1  H15B 5936   1.046   1.406   3.085  0.9013  0.4490 -0.0626
   65CHL1   C16 5937   1.111   1.238   3.206  0.5217  0.1394  0.4622
   65CHL1  H16A 5938   1.217   1.241   3.240  0.4023 -0.4963  0.8987
   65CHL1  H16B 5939   1.042   1.286   3.278  1.6806  1.6257  0.6511
   65CHL1   C17 5940   1.076   1.089   3.160 -0.5380 -0.3792  0.4301
   65CHL1   H17 5941   0.965   1.084   3.163 -0.6768  0.3795 -1.7081
   65CHL1   C13 5942   1.097   1.082   3.012  0.2277  0.8224 -0.4144
   65CHL1   C18 5943   1.250   1.070   2.980 -0.2330 -0.0195 -0.5144
   65CHL1  H18A 5944   1.304   1.138   3.050 -0.5330  0.6531 -0.9305
   65CHL1  H18B 5945   1.294   0.971   3.002  0.3989  0.7753  2.2996
   65CHL1  H18C 5946   1.272   1.098   2.875  1.0863  3.4970  0.5294
   65CHL1   C12 5947   1.007   0.978   2.939  0.2281  0.2875  0.1634
   65CHL1  H12A 5948   1.049   0.877   2.958  1.5522  1.0309  1.3637
   65CHL1  H12B 5949   0.897   0.976   2.955  0.2266  1.3740  0.3437
   65CHL1   C11 5950   1.029   0.994   2.788  0.0472 -0.1616  0.0352
   65CHL1  H11A 5951   1.132   0.962   2.759 -0.1172  0.6176 -1.5112
   65CHL1  H11B 5952   0.962   0.928   2.730  0.2238 -0.5456  0.2649
   65CHL1    C9 5953   0.994   1.140   2.741  0.4403  0.6505  0.1333
   65CHL1    H9 5954   0.885   1.152   2.761  0.5978  1.8406  0.3372
   65CHL1   C10 5955   1.009   1.157   2.586  0.2088  1.1755 -0.0117
   65CHL1   C19 5956   1.147   1.101   2.531  0.1376 -0.1050  0.3277
   65CHL1  H19A 5957   1.234   1.148   2.580  1.3167 -1.5708 -0.2855
   65CHL1  H19B 5958   1.151   0.991   2.541  0.1216  0.0046  1.6591
   65CHL1  H19C 5959   1.149   1.134   2.425 -1.4827 -2.5139 -0.5349
   65CHL1    C1 5960   0.889   1.081   2.520  0.1413  0.3380  0.4532
   65CHL1   H1A 5961   0.918   0.974   2.521 -1.8232 -0.2188  0.4407
   65CHL1   H1B 5962   0.795   1.105   2.573 -0.4210 -1.1890  0.1908
   65CHL1    C2 5963   0.859   1.114   2.367  0.1048 -0.1654 -0.1420
   65CHL1   H2A 5964   0.767   1.061   2.335 -0.4847  1.8417 -2.0314
   65CHL1   H2B 5965   0.940   1.086   2.297 -0.1014 -1.2552  0.0320
   65CHL1   C20 5966   1.130   0.974   3.247 -0.8770 -0.4822 -0.3036
   65CHL1   H20 5967   1.240   0.963   3.248 -0.7725  0.4787  0.5633
   65CHL1   C21 5968   1.075   0.831   3.207 -0.1633 -0.3863  0.7665
   65CHL1  H21A 5969   1.072   0.756   3.289 -0.0760 -1.1851  0.0546
   65CHL1  H21B 5970   1.141   0.782   3.133 -0.4444  0.7799 -0.2869
   65CHL1  H21C 5971   0.969   0.841   3.177 -0.2484 -0.2978  1.0889
   65CHL1   C22 5972   1.093   0.999   3.396 -0.4077  0.0351  0.7572
   65CHL1  H22A 5973   1.130   1.099   3.428 -1.1382  0.0719  1.5213
   65CHL1  H22B 5974   0.983   0.990   3.408 -0.4518 -0.5901 -0.0684
   65CHL1   C23 5975   1.165   0.901   3.493  0.6795  0.4148  0.6503
   65CHL1  H23A 5976   1.108   0.807   3.481  1.9256 -0.2227 -0.6992
   65CHL1  H23B 5977   1.264   0.873   3.450 -0.0125  1.0866 -1.5194
   65CHL1   C24 5978   1.157   0.951   3.634 -0.1643  0.5378  0.2669
   65CHL1  H24A 5979   1.170   1.060   3.650  3.6719  0.2326  0.2154
   65CHL1  H24B 5980   1.057   0.927   3.676  0.4437 -1.3867  0.7176
   65CHL1   C25 5981   1.259   0.880   3.723  0.1527 -0.1358 -0.4612
   65CHL1   H25 5982   1.346   0.848   3.663  0.5089  1.3534 -0.7926
   65CHL1   C26 5983   1.306   0.976   3.839  1.3266 -0.2487 -0.0324
   65CHL1  H26A 5984   1.368   0.920   3.912 -0.2543  0.2113  1.7476
   65CHL1  H26B 5985   1.353   1.071   3.803  2.1540 -0.6011  0.1018
   65CHL1  H26C 5986   1.209   0.996   3.891  0.8669  0.7244 -1.2214
   65CHL1   C27 5987   1.201   0.751   3.785 -0.1351  0.2833 -0.5968
   65CHL1  H27A 5988   1.123   0.771   3.861 -0.7310 -0.2306 -1.0623
   65CHL1  H27B 5989   1.173   0.689   3.697  3.0444 -0.2183 -1.3809
   65CHL1  H27C 5990   1.285   0.699   3.836  2.0271  1.1083 -3.0455
   66CHL1    C3 5991   6.875   2.525   2.248 -0.3106  0.4401  0.4270
   66CHL1    H3 5992   6.774   2.573   2.247 -0.1732  0.7771  1.4319
   66CHL1    O3 5993   6.923   2.518   2.115  0.4910 -0.2355 -0.5312
   66CHL1   H3' 5994   7.015   2.497   2.130  0.4240 -1.8950 -2.1338
   66CHL1    C4 5995   6.968   2.605   2.339  0.6089 -0.0356 -0.2129
   66CHL1   H4A 5996   7.074   2.573   2.330  0.5335  0.2372 -2.6172
   66CHL1   H4B 5997   6.951   2.711   2.312 -0.2514 -0.4352 -1.3410
   66CHL1    C5 5998   6.918   2.598   2.483 -0.0970  0.3837 -0.1033
   66CHL1    C6 5999   6.884   2.698   2.557 -0.3410 -1.0088 -0.8260
   66CHL1    H6 6000   6.906   2.800   2.522 -1.3373 -0.4093  0.2056
   66CHL1    C7 6001   6.851   2.694   2.699 -0.3757  0.1804 -0.0555
   66CHL1   H7A 6002   6.898   2.783   2.744 -0.0757  0.8587 -1.6250
   66CHL1   H7B 6003   6.742   2.706   2.715  0.0997  0.9102  3.2289
   66CHL1    C8 6004   6.894   2.562   2.769 -1.0993  0.0294 -0.8567
   66CHL1    H8 6005   7.005   2.555   2.770 -1.1072 -1.1742  2.1232
   66CHL1   C14 6006   6.848   2.556   2.910 -0.1218 -0.4327  0.9865
   66CHL1   H14 6007   6.737   2.561   2.907 -0.0781  0.6197  0.6709
   66CHL1   C15 6008   6.905   2.664   3.004 -0.5158  0.7532 -0.6044
   66CHL1  H15A 6009   7.014   2.683   2.988 -0.6932 -0.0238 -3.0243
   66CHL1  H15B 6010   6.847   2.758   2.991 -0.2207  1.0528  0.1284
   66CHL1   C16 6011   6.889   2.608   3.150 -0.0045  0.5373 -0.6433
   66CHL1  H16A 6012   6.991   2.610   3.193  0.1864  1.7748 -1.1107
   66CHL1  H16B 6013   6.825   2.662   3.224  1.5534  2.6971 -0.7681
   66CHL1   C17 6014   6.829   2.465   3.131 -0.0995 -0.6302  0.1255
   66CHL1   H17 6015   6.719   2.475   3.125  0.0044  1.1492 -6.1041
   66CHL1   C13 6016   6.878   2.426   2.989 -0.8167  0.7472  0.1109
   66CHL1   C18 6017   7.032   2.397   2.983 -0.4041  0.7639 -0.2658
   66CHL1  H18A 6018   7.050   2.305   3.043  0.8909  0.3001 -1.3221
   66CHL1  H18B 6019   7.061   2.377   2.878  0.8935  0.1635  0.1902
   66CHL1  H18C 6020   7.095   2.483   3.016  0.1160  0.9086 -1.5924
   66CHL1   C12 6021   6.800   2.320   2.908 -0.4633  0.7099 -0.5825
   66CHL1  H12A 6022   6.801   2.215   2.946  2.2933 -0.0459 -2.4537
   66CHL1  H12B 6023   6.694   2.353   2.911 -0.7928 -0.3724  0.5876
   66CHL1   C11 6024   6.841   2.305   2.763 -0.2813  0.2234  0.2089
   66CHL1  H11A 6025   6.933   2.245   2.751  0.0347  1.1132 -2.4519
   66CHL1  H11B 6026   6.773   2.235   2.709  0.4533  0.0927 -0.5539
   66CHL1    C9 6027   6.839   2.445   2.683 -0.9346 -0.1638 -0.4025
   66CHL1    H9 6028   6.731   2.468   2.677 -0.7245  1.7489  1.9258
   66CHL1   C10 6029   6.902   2.458   2.538 -0.2520  0.4260 -0.2907
   66CHL1   C19 6030   7.040   2.398   2.555 -0.0096  0.5178 -0.4676
   66CHL1  H19A 6031   7.104   2.421   2.643 -0.1210 -2.8521  0.6564
   66CHL1  H19B 6032   7.030   2.288   2.567  1.3479  0.5519  1.6212
   66CHL1  H19C 6033   7.112   2.416   2.472  0.8621 -1.4034 -0.1894
   66CHL1    C1 6034   6.817   2.372   2.438  0.6034 -0.4154  0.3440
   66CHL1   H1A 6035   6.819   2.264   2.463 -0.3080 -0.8736 -1.4397
   66CHL1   H1B 6036   6.715   2.414   2.443  0.8688  0.3175 -0.2458
   66CHL1    C2 6037   6.865   2.381   2.290  0.9416  0.3375  0.0324
   66CHL1   H2A 6038   6.794   2.333   2.220  0.6901  2.9815 -1.6449
   66CHL1   H2B 6039   6.966   2.335   2.285  0.8510  0.2696 -2.4786
   66CHL1   C20 6040   6.873   2.383   3.254  0.0966  0.5600 -0.2568
   66CHL1   H20 6041   6.983   2.367   3.248  0.2315  1.6931 -1.2314
   66CHL1   C21 6042   6.808   2.245   3.256 -0.4788 -0.0178  0.3579
   66CHL1  H21A 6043   6.858   2.180   3.330  1.8378  1.1942 -0.0270
   66CHL1  H21B 6044   6.828   2.190   3.161  0.3769 -1.8535  1.5497
   66CHL1  H21C 6045   6.700   2.245   3.280 -0.8500  1.5621 -1.0747
   66CHL1   C22 6046   6.841   2.455   3.396 -0.7952 -0.3046 -0.5746
   66CHL1  H22A 6047   6.905   2.545   3.404  0.5107 -1.2232 -0.1658
   66CHL1  H22B 6048   6.735   2.487   3.406 -0.9665 -0.5090 -1.5757
   66CHL1   C23 6049   6.883   2.379   3.520  0.0525 -0.0051  0.3288
   66CHL1  H23A 6050   6.830   2.282   3.526 -0.3830  0.2108  0.0439
   66CHL1  H23B 6051   6.990   2.349   3.527  0.1613  0.2578 -0.1326
   66CHL1   C24 6052   6.842   2.450   3.653 -0.4839  0.7703  0.5516
   66CHL1  H24A 6053   6.866   2.558   3.648  0.4813  0.8368  4.2527
   66CHL1  H24B 6054   6.735   2.423   3.666 -0.1643 -0.2826  1.1133
   66CHL1   C25 6055   6.912   2.401   3.782  1.2723 -0.3284  0.7490
   66CHL1   H25 6056   7.019   2.423   3.761  0.7842 -0.0960 -1.7574
   66CHL1   C26 6057   6.865   2.487   3.901 -0.6799  0.0448 -0.3829
   66CHL1  H26A 6058   6.896   2.594   3.897  0.9541 -0.2186  2.2328
   66CHL1  H26B 6059   6.757   2.473   3.921 -0.2194 -0.3363  2.2883
   66CHL1  H26C 6060   6.912   2.443   3.992 -2.5565 -0.7580  0.2461
   66CHL1   C27 6061   6.904   2.248   3.807  0.1297  0.1281 -0.1343
   66CHL1  H27A 6062   6.954   2.215   3.901 -0.2731  0.0967  0.0703
   66CHL1  H27B 6063   6.944   2.186   3.724  0.4152  0.5399 -0.3116
   66CHL1  H27C 6064   6.801   2.211   3.821  0.4747 -1.7036 -1.9288
   67CHL1    C3 6065   4.578   7.081   2.143  0.3422 -0.1675 -1.1636
   67CHL1    H3 6066   4.591   7.188   2.173  0.6023 -0.5448  0.1593
   67CHL1    O3 6067   4.579   7.075   2.001  0.4761 -0.3722 -0.5271
   67CHL1   H3' 6068   4.644   7.006   1.985  2.2595  0.3428  2.6924
   67CHL1    C4 6069   4.687   7.000   2.215 -0.4794 -0.0378  0.7508
   67CHL1   H4A 6070   4.675   6.895   2.180 -0.7294  0.7034 -1.5195
   67CHL1   H4B 6071   4.787   7.028   2.176 -0.5965  0.8251  1.0522
   67CHL1    C5 6072   4.681   6.991   2.366  1.6767 -0.0714  0.0155
   67CHL1    C6 6073   4.779   7.027   2.450  0.1873 -0.5767  0.0913
   67CHL1    H6 6074   4.869   7.071   2.403 -1.1694 -0.0966 -2.2312
   67CHL1    C7 6075   4.768   7.022   2.596  0.3284 -0.6851 -0.5440
   67CHL1   H7A 6076   4.852   6.967   2.644  0.2514  0.3702  0.8656
   67CHL1   H7B 6077   4.777   7.122   2.644 -1.0838 -0.2283 -1.1823
   67CHL1    C8 6078   4.641   6.943   2.653 -0.2530  0.3726 -0.4499
   67CHL1    H8 6079   4.664   6.835   2.643  0.4657  0.7343 -4.0541
   67CHL1   C14 6080   4.621   6.977   2.795 -1.1274 -0.2618  0.3929
   67CHL1   H14 6081   4.615   7.086   2.813  0.8034  0.4242 -2.4023
   67CHL1   C15 6082   4.743   6.943   2.882  0.0371  0.3263 -0.2364
   67CHL1  H15A 6083   4.801   6.856   2.844 -1.1913 -0.3545 -0.6144
   67CHL1  H15B 6084   4.822   7.019   2.902 -0.3240  0.3640  1.1158
   67CHL1   C16 6085   4.680   6.915   3.020 -0.9954 -0.2844  0.2140
   67CHL1  H16A 6086   4.715   6.817   3.058 -1.6657 -0.9074 -0.7264
   67CHL1  H16B 6087   4.718   6.989   3.094 -0.8928 -1.9762  1.9152
   67CHL1   C17 6088   4.525   6.933   3.011 -0.4783  0.1093  0.1031
   67CHL1   H17 6089   4.502   7.041   3.019  1.2428  0.7009 -1.7939
   67CHL1   C13 6090   4.496   6.908   2.859 -0.2170 -0.0845  0.7013
   67CHL1   C18 6091   4.502   6.757   2.834 -0.1035  0.8963  0.6760
   67CHL1  H18A 6092   4.589   6.704   2.879 -0.7763 -0.6373  0.1981
   67CHL1  H18B 6093   4.410   6.714   2.877 -0.6685  0.7673 -0.6170
   67CHL1  H18C 6094   4.515   6.725   2.728 -1.9200  1.3811  0.2742
   67CHL1   C12 6095   4.374   6.966   2.787 -0.4431 -0.1708 -0.0747
   67CHL1  H12A 6096   4.277   6.929   2.828 -0.8786  0.6150 -0.3618
   67CHL1  H12B 6097   4.372   7.075   2.810 -1.0403 -0.6068  2.2244
   67CHL1   C11 6098   4.385   6.957   2.630 -0.2362  0.3697  0.2899
   67CHL1  H11A 6099   4.361   6.849   2.613 -0.9545  0.4652  0.6638
   67CHL1  H11B 6100   4.304   7.023   2.593  0.8029  1.9222  0.7001
   67CHL1    C9 6101   4.524   6.988   2.569 -0.4681 -0.2955  0.0305
   67CHL1    H9 6102   4.523   7.099   2.578 -1.0143 -0.2995  0.0665
   67CHL1   C10 6103   4.538   6.947   2.415 -0.2924 -0.4357  0.1092
   67CHL1   C19 6104   4.523   6.786   2.399 -0.0257 -0.4938  0.9993
   67CHL1  H19A 6105   4.606   6.747   2.461  1.2460  0.2634 -0.1790
   67CHL1  H19B 6106   4.425   6.743   2.428 -0.7305  0.7816  0.6092
   67CHL1  H19C 6107   4.550   6.757   2.295  1.3626  0.9138  0.9398
   67CHL1    C1 6108   4.429   7.020   2.342  0.4893 -0.6222  0.0896
   67CHL1   H1A 6109   4.331   6.975   2.369 -0.3236 -0.0137 -1.6978
   67CHL1   H1B 6110   4.434   7.126   2.375  1.4550 -1.0043  1.2440
   67CHL1    C2 6111   4.444   7.032   2.188  0.3658 -0.5231 -0.2089
   67CHL1   H2A 6112   4.361   7.096   2.149  0.8758  0.8024  0.7928
   67CHL1   H2B 6113   4.415   6.935   2.142 -2.1675  0.6006 -1.1876
   67CHL1   C20 6114   4.458   6.846   3.118  0.3877  0.3792 -0.1022
   67CHL1   H20 6115   4.465   6.739   3.087 -0.9618 -0.5407  2.4512
   67CHL1   C21 6116   4.311   6.888   3.117 -0.3286 -0.7195 -0.4455
   67CHL1  H21A 6117   4.256   6.874   3.021 -0.8917  0.3067 -0.2912
   67CHL1  H21B 6118   4.294   6.992   3.151  3.7682  0.3714 -1.2709
   67CHL1  H21C 6119   4.254   6.828   3.191  0.3463 -1.2394 -0.3356
   67CHL1   C22 6120   4.526   6.869   3.260  0.2155  0.0118  0.2120
   67CHL1  H22A 6121   4.634   6.849   3.248  0.4538  1.7900 -1.0797
   67CHL1  H22B 6122   4.524   6.980   3.274 -1.8566 -0.0434  0.7807
   67CHL1   C23 6123   4.460   6.807   3.386 -0.4237 -0.5533  0.5509
   67CHL1  H23A 6124   4.354   6.841   3.386 -0.8025 -1.5531 -1.9691
   67CHL1  H23B 6125   4.450   6.697   3.376 -1.7678 -0.5352  1.4384
   67CHL1   C24 6126   4.518   6.839   3.528  0.3411  0.1214  1.0607
   67CHL1  H24A 6127   4.516   6.950   3.534  4.0747  0.4097 -0.4152
   67CHL1  H24B 6128   4.447   6.795   3.601 -0.0786  1.9835  1.8300
   67CHL1   C25 6129   4.655   6.780   3.569  0.2028  0.5075  0.3920
   67CHL1   H25 6130   4.728   6.829   3.501 -0.6132  0.0402 -0.8651
   67CHL1   C26 6131   4.677   6.816   3.719 -0.2202 -0.1367 -0.2619
   67CHL1  H26A 6132   4.775   6.780   3.756  0.9351  0.5099 -2.4531
   67CHL1  H26B 6133   4.676   6.927   3.730  0.7674 -0.2524  1.2224
   67CHL1  H26C 6134   4.585   6.784   3.771 -0.0796 -1.4710 -0.7977
   67CHL1   C27 6135   4.665   6.624   3.546 -0.0277 -0.4335  0.2610
   67CHL1  H27A 6136   4.664   6.590   3.440  2.1164 -2.1545  0.7276
   67CHL1  H27B 6137   4.760   6.591   3.592 -0.3463 -2.3681 -0.3690
   67CHL1  H27C 6138   4.585   6.577   3.608  0.4490  1.9119  2.8505
   68CHL1    C3 6139   2.616   0.180   2.316 -0.4734  0.1224 -0.7398
   68CHL1    H3 6140   2.606   0.069   2.310  0.0235 -0.1566  2.0147
   68CHL1    O3 6141   2.626   0.231   2.186 -0.3862 -0.7102  0.2184
   68CHL1   H3' 6142   2.647   0.324   2.201  0.3067 -0.8087 -0.1350
   68CHL1    C4 6143   2.497   0.239   2.391  0.7430  0.3046  0.0291
   68CHL1   H4A 6144   2.512   0.341   2.433 -2.0825  0.3480  1.1788
   68CHL1   H4B 6145   2.411   0.235   2.320  0.2841 -0.5336  0.6055
   68CHL1    C5 6146   2.473   0.154   2.519 -0.3321 -0.4217  0.2355
   68CHL1    C6 6147   2.357   0.087   2.537 -0.0488 -1.4833  0.0870
   68CHL1    H6 6148   2.276   0.096   2.462 -0.1895 -2.0011  0.1695
   68CHL1    C7 6149   2.328  -0.002   2.658  0.0620 -0.6403  0.0115
   68CHL1   H7A 6150   2.232   0.015   2.712 -0.0275  1.2699 -0.6969
   68CHL1   H7B 6151   2.333  -0.100   2.607  1.5730 -1.4607  1.6143
   68CHL1    C8 6152   2.445   0.003   2.759 -0.0983 -0.1548 -0.0337
   68CHL1    H8 6153   2.428   0.094   2.820  0.4481 -0.4954  0.6516
   68CHL1   C14 6154   2.442  -0.119   2.848  0.2162 -0.2201 -0.9709
   68CHL1   H14 6155   2.462  -0.204   2.780  2.3895 -1.1210  0.6821
   68CHL1   C15 6156   2.307  -0.159   2.918 -0.6032 -0.2668 -0.3362
   68CHL1  H15A 6157   2.260  -0.071   2.966  2.8519  1.6532 -0.1319
   68CHL1  H15B 6158   2.235  -0.202   2.845 -0.5248 -0.2386 -0.4308
   68CHL1   C16 6159   2.349  -0.250   3.029  0.2921  0.3394 -0.0668
   68CHL1  H16A 6160   2.310  -0.228   3.131  2.1561  0.6409  0.6141
   68CHL1  H16B 6161   2.322  -0.357   3.013  3.3319 -0.5739  0.2265
   68CHL1   C17 6162   2.503  -0.256   3.035 -0.1769  0.8373 -0.7090
   68CHL1   H17 6163   2.544  -0.342   2.978  2.0846  0.7470  0.9156
   68CHL1   C13 6164   2.541  -0.125   2.955 -0.7697 -0.2889  0.2693
   68CHL1   C18 6165   2.535   0.002   3.043  0.0556 -0.3247 -0.1769
   68CHL1  H18A 6166   2.565   0.097   2.995 -0.6737 -0.7645 -1.5531
   68CHL1  H18B 6167   2.433   0.028   3.077 -0.2912 -1.3037 -0.4378
   68CHL1  H18C 6168   2.600  -0.033   3.126  0.1263 -1.1461 -0.5656
   68CHL1   C12 6169   2.677  -0.119   2.888 -0.1471  0.3987  0.3802
   68CHL1  H12A 6170   2.773  -0.112   2.943 -0.4844  4.1980  0.7678
   68CHL1  H12B 6171   2.683  -0.209   2.823  0.5167  0.8022 -0.1331
   68CHL1   C11 6172   2.699  -0.002   2.792  0.2958  0.5564  0.8812
   68CHL1  H11A 6173   2.725   0.089   2.850  0.1422 -0.2731  2.2930
   68CHL1  H11B 6174   2.785  -0.032   2.728 -1.8916 -2.7724 -0.8308
   68CHL1    C9 6175   2.579   0.015   2.694 -0.2445  0.0976 -0.2673
   68CHL1    H9 6176   2.582  -0.069   2.622  0.5354  2.7863 -3.6698
   68CHL1   C10 6177   2.601   0.142   2.610  1.0188 -0.4336  0.1854
   68CHL1   C19 6178   2.613   0.264   2.708  0.3424 -0.3846 -0.0326
   68CHL1  H19A 6179   2.647   0.353   2.652  0.7272 -1.1002 -0.9659
   68CHL1  H19B 6180   2.526   0.274   2.777 -0.5038 -1.6405 -0.8817
   68CHL1  H19C 6181   2.702   0.248   2.773 -2.8049 -2.6795  4.3000
   68CHL1    C1 6182   2.731   0.120   2.531 -0.1774  0.4161 -0.2227
   68CHL1   H1A 6183   2.815   0.133   2.602 -0.1630 -1.7325  0.2273
   68CHL1   H1B 6184   2.726   0.010   2.514 -0.0237  0.2295  0.8350
   68CHL1    C2 6185   2.738   0.195   2.398 -0.0882  0.2020  0.1930
   68CHL1   H2A 6186   2.828   0.157   2.345  1.1086 -0.4175  2.5604
   68CHL1   H2B 6187   2.755   0.302   2.421  1.0844  0.0038  0.2865
   68CHL1   C20 6188   2.569  -0.279   3.177  0.4461  0.2318  0.1735
   68CHL1   H20 6189   2.550  -0.193   3.244  1.2853  0.1294  0.5558
   68CHL1   C21 6190   2.728  -0.291   3.153  0.1421 -0.6336  0.0200
   68CHL1  H21A 6191   2.764  -0.368   3.082  2.1843 -0.7310  1.0877
   68CHL1  H21B 6192   2.773  -0.324   3.250 -3.3532  0.3562  2.1579
   68CHL1  H21C 6193   2.769  -0.191   3.130  0.8585  0.0411  3.5543
   68CHL1   C22 6194   2.525  -0.407   3.246 -0.2797  0.2820  0.4999
   68CHL1  H22A 6195   2.416  -0.422   3.226 -0.2687 -1.2510  1.4267
   68CHL1  H22B 6196   2.576  -0.497   3.206 -2.1183 -1.6752  2.2919
   68CHL1   C23 6197   2.532  -0.405   3.404  0.1155  0.1531 -0.4671
   68CHL1  H23A 6198   2.641  -0.410   3.424  0.4988 -2.0832 -2.5791
   68CHL1  H23B 6199   2.486  -0.312   3.444 -2.0786  0.0194 -2.4700
   68CHL1   C24 6200   2.453  -0.527   3.466 -0.4086 -0.0831  0.3048
   68CHL1  H24A 6201   2.349  -0.533   3.427 -0.2917  0.6946 -0.1430
   68CHL1  H24B 6202   2.501  -0.626   3.451 -1.0196 -0.2750 -0.3997
   68CHL1   C25 6203   2.441  -0.517   3.627 -0.5348 -0.1593 -0.0924
   68CHL1   H25 6204   2.543  -0.509   3.670  0.0810  0.5200 -1.5896
   68CHL1   C26 6205   2.350  -0.404   3.674  0.5190  1.0681  0.0700
   68CHL1  H26A 6206   2.251  -0.410   3.625  0.3986 -0.5690  0.4372
   68CHL1  H26B 6207   2.342  -0.413   3.785  0.7776 -3.7943 -0.0678
   68CHL1  H26C 6208   2.383  -0.302   3.647  1.2572  0.9408  0.4709
   68CHL1   C27 6209   2.384  -0.651   3.668  1.0081  0.4307 -0.1140
   68CHL1  H27A 6210   2.444  -0.737   3.631 -2.4802 -1.6836 -1.3606
   68CHL1  H27B 6211   2.369  -0.653   3.778  0.6835 -0.4568 -0.1689
   68CHL1  H27C 6212   2.284  -0.671   3.623 -1.1032  2.4029  3.2852
   69CHL1    C3 6213   5.606   6.663   2.234  0.0608  0.1508  0.6641
   69CHL1    H3 6214   5.611   6.565   2.286  0.1067 -1.0778 -1.5580
   69CHL1    O3 6215   5.609   6.646   2.093 -0.4833  0.3369 -0.5511
   69CHL1   H3' 6216   5.563   6.718   2.049 -1.7912 -0.7300 -1.0072
   69CHL1    C4 6217   5.460   6.712   2.264 -0.5222  0.0238 -0.2729
   69CHL1   H4A 6218   5.445   6.806   2.207 -1.3276 -0.0244 -0.1488
   69CHL1   H4B 6219   5.393   6.631   2.227  0.9319 -0.8258 -1.1339
   69CHL1    C5 6220   5.438   6.738   2.419 -0.3040 -0.0468  0.0540
   69CHL1    C6 6221   5.332   6.683   2.473 -0.1895 -0.0664 -0.6843
   69CHL1    H6 6222   5.257   6.619   2.424 -4.0622  0.4795  3.8167
   69CHL1    C7 6223   5.296   6.721   2.614  0.4381 -0.3170  0.1947
   69CHL1   H7A 6224   5.187   6.744   2.618  0.1430 -1.5185 -0.5458
   69CHL1   H7B 6225   5.311   6.621   2.660  0.2615 -1.0183 -1.2452
   69CHL1    C8 6226   5.384   6.835   2.684  0.6296  0.5909  0.0271
   69CHL1    H8 6227   5.333   6.930   2.658  0.0697 -0.0902 -1.4500
   69CHL1   C14 6228   5.394   6.818   2.833  0.1089  0.0111  0.5148
   69CHL1   H14 6229   5.455   6.727   2.851  0.6120  0.1404 -0.4971
   69CHL1   C15 6230   5.269   6.776   2.915 -0.3725 -0.2578  1.0456
   69CHL1  H15A 6231   5.182   6.838   2.886  0.8382  1.5274  1.0859
   69CHL1  H15B 6232   5.226   6.675   2.894 -1.5169  0.5324 -0.6517
   69CHL1   C16 6233   5.312   6.799   3.060 -0.3102 -0.0581  0.7871
   69CHL1  H16A 6234   5.239   6.856   3.121 -1.4992  2.3060 -2.5622
   69CHL1  H16B 6235   5.336   6.704   3.113  3.6077 -0.1383 -0.7502
   69CHL1   C17 6236   5.459   6.866   3.052  0.1536  0.0686 -0.2133
   69CHL1   H17 6237   5.535   6.785   3.044 -0.6487 -0.6489 -0.8014
   69CHL1   C13 6238   5.474   6.930   2.908  0.2681 -0.9101  0.1137
   69CHL1   C18 6239   5.384   7.059   2.905  0.1476 -0.3277  0.2216
   69CHL1  H18A 6240   5.310   7.064   2.987  0.1291  1.2269  0.1323
   69CHL1  H18B 6241   5.442   7.154   2.914 -0.2741 -0.1451  1.0566
   69CHL1  H18C 6242   5.323   7.070   2.813  1.3035  1.8825 -0.3601
   69CHL1   C12 6243   5.611   6.951   2.845 -0.5705 -0.0433 -0.6364
   69CHL1  H12A 6244   5.663   7.034   2.898 -1.5192 -0.0547  0.3338
   69CHL1  H12B 6245   5.671   6.859   2.864 -0.9876 -0.0497  0.7732
   69CHL1   C11 6246   5.603   6.960   2.694 -0.2668 -0.0573 -0.0235
   69CHL1  H11A 6247   5.547   7.054   2.675 -0.2872 -0.1744 -0.5609
   69CHL1  H11B 6248   5.703   6.967   2.646  0.3163 -1.5530  0.8827
   69CHL1    C9 6249   5.529   6.837   2.629  0.0362  0.0037 -0.2960
   69CHL1    H9 6250   5.580   6.745   2.665 -1.9024 -0.3072  1.8740
   69CHL1   C10 6251   5.541   6.830   2.474  0.2060 -0.3989 -0.3399
   69CHL1   C19 6252   5.508   6.975   2.427  0.4249 -0.7396 -0.0579
   69CHL1  H19A 6253   5.517   6.967   2.317  0.0486 -2.7352  0.0156
   69CHL1  H19B 6254   5.407   7.015   2.450  0.2875 -0.9685 -0.2490
   69CHL1  H19C 6255   5.586   7.041   2.471 -0.9126  0.9590 -0.1166
   69CHL1    C1 6256   5.682   6.797   2.432 -0.4004  0.5529 -0.5685
   69CHL1   H1A 6257   5.748   6.876   2.473 -3.3731  1.7538  2.4287
   69CHL1   H1B 6258   5.709   6.703   2.486  1.1137 -1.0861 -3.8914
   69CHL1    C2 6259   5.708   6.767   2.284  0.1937  0.4233 -0.6184
   69CHL1   H2A 6260   5.808   6.722   2.267  0.3283  0.5795 -0.2573
   69CHL1   H2B 6261   5.682   6.855   2.221  2.2387  1.2604 -0.3759
   69CHL1   C20 6262   5.493   6.951   3.177  0.2907  0.0309 -0.0207
   69CHL1   H20 6263   5.437   7.047   3.185  0.8052  0.4295 -1.0991
   69CHL1   C21 6264   5.644   6.992   3.170  0.2937  0.1797 -0.0997
   69CHL1  H21A 6265   5.653   7.071   3.092 -0.0302 -0.5094 -0.8531
   69CHL1  H21B 6266   5.715   6.907   3.160  2.2641  1.7728 -0.2473
   69CHL1  H21C 6267   5.674   7.039   3.266  1.3602  1.1117 -0.8671
   69CHL1   C22 6268   5.469   6.858   3.299 -0.1578  0.4558  0.2333
   69CHL1  H22A 6269   5.359   6.843   3.307 -0.0351 -0.9698 -0.5112
   69CHL1  H22B 6270   5.512   6.759   3.275  0.3625  0.6093  0.5212
   69CHL1   C23 6271   5.528   6.893   3.433  0.1110 -0.8102 -0.0391
   69CHL1  H23A 6272   5.504   6.816   3.510 -0.1171 -0.0259  0.6863
   69CHL1  H23B 6273   5.639   6.899   3.431  0.0662  0.1140 -0.0490
   69CHL1   C24 6274   5.478   7.032   3.488  0.2410 -0.0224 -0.1654
   69CHL1  H24A 6275   5.475   7.108   3.407  0.5270 -0.4533 -0.5889
   69CHL1  H24B 6276   5.373   7.012   3.517  0.5659 -0.7295  0.5711
   69CHL1   C25 6277   5.558   7.092   3.603 -0.8827 -0.0279 -0.4301
   69CHL1   H25 6278   5.650   7.128   3.553 -1.4288  0.3604 -1.1670
   69CHL1   C26 6279   5.488   7.222   3.660 -0.4361 -0.5494 -0.1398
   69CHL1  H26A 6280   5.461   7.292   3.578 -0.6919 -0.5702 -0.0719
   69CHL1  H26B 6281   5.397   7.195   3.717 -0.0987  0.4599  0.9148
   69CHL1  H26C 6282   5.552   7.277   3.733 -0.6249 -0.5031 -0.0104
   69CHL1   C27 6283   5.594   6.993   3.709  0.2965  0.0814 -0.2276
   69CHL1  H27A 6284   5.495   6.958   3.747 -0.7017  3.7174  0.9847
   69CHL1  H27B 6285   5.667   6.916   3.679  2.0917  2.0221 -1.1213
   69CHL1  H27C 6286   5.628   7.047   3.800 -0.6648 -1.2672  0.9795
   70CHL1    C3 6287   1.687   0.678   2.181  0.4244 -0.4130  0.1643
   70CHL1    H3 6288   1.620   0.597   2.144 -0.3426  0.0922  0.4249
   70CHL1    O3 6289   1.754   0.744   2.069  0.0216 -0.4218 -0.2092
   70CHL1   H3' 6290   1.818   0.809   2.098  1.3742 -2.2202  1.0415
   70CHL1    C4 6291   1.595   0.777   2.261 -0.3591  0.0671  0.4600
   70CHL1   H4A 6292   1.646   0.872   2.287 -0.5656  0.4395 -0.4500
   70CHL1   H4B 6293   1.510   0.798   2.193 -0.9622  0.1640  1.2180
   70CHL1    C5 6294   1.536   0.728   2.388 -0.2871  0.5687 -1.1175
   70CHL1    C6 6295   1.407   0.739   2.414  0.3895  0.2660 -0.2381
   70CHL1    H6 6296   1.337   0.791   2.347  0.0175 -1.6254 -1.3921
   70CHL1    C7 6297   1.335   0.699   2.538 -0.2695 -0.1102 -0.0560
   70CHL1   H7A 6298   1.269   0.784   2.567  0.8093  0.8482 -0.3012
   70CHL1   H7B 6299   1.287   0.602   2.516 -0.2008 -0.5346  1.5167
   70CHL1    C8 6300   1.440   0.665   2.644  0.3792 -0.2474 -0.8204
   70CHL1    H8 6301   1.465   0.764   2.688  1.0263 -1.0756  0.7666
   70CHL1   C14 6302   1.378   0.571   2.750 -0.2361 -0.3110 -0.1973
   70CHL1   H14 6303   1.361   0.473   2.700 -0.1340  0.4771 -1.8062
   70CHL1   C15 6304   1.244   0.609   2.812  1.0601  0.6665 -0.1939
   70CHL1  H15A 6305   1.248   0.712   2.854  0.3637  0.4846  0.3291
   70CHL1  H15B 6306   1.154   0.611   2.747 -0.0678  1.3600  1.3325
   70CHL1   C16 6307   1.227   0.518   2.933  0.5420 -0.2095  0.4284
   70CHL1  H16A 6308   1.197   0.596   3.008 -0.1278 -1.0879  1.0956
   70CHL1  H16B 6309   1.147   0.442   2.920 -0.7596  1.3376 -1.0117
   70CHL1   C17 6310   1.362   0.459   2.959  0.4589  0.4640 -0.3396
   70CHL1   H17 6311   1.354   0.361   2.906  1.3621  0.2403 -0.0861
   70CHL1   C13 6312   1.466   0.544   2.874 -0.1390 -0.2605  0.2673
   70CHL1   C18 6313   1.504   0.678   2.941 -0.0758 -0.4336 -0.2628
   70CHL1  H18A 6314   1.425   0.715   3.009 -0.8612 -0.6345 -1.0405
   70CHL1  H18B 6315   1.599   0.655   2.993  0.9732 -0.7895 -2.2268
   70CHL1  H18C 6316   1.532   0.755   2.866  1.5388 -0.5632  0.1645
   70CHL1   C12 6317   1.586   0.467   2.829 -0.3063 -0.0312 -0.0844
   70CHL1  H12A 6318   1.651   0.460   2.920 -2.5504 -0.9546  1.5419
   70CHL1  H12B 6319   1.555   0.369   2.788 -0.8202 -0.2707  0.8519
   70CHL1   C11 6320   1.657   0.534   2.710  0.0465 -0.6982  0.4793
   70CHL1  H11A 6321   1.711   0.621   2.753  2.4464 -1.1413 -1.4018
   70CHL1  H11B 6322   1.733   0.466   2.666 -0.8275 -0.4272 -1.6027
   70CHL1    C9 6323   1.565   0.583   2.588  0.6494  0.7641 -1.0584
   70CHL1    H9 6324   1.526   0.488   2.547  0.7231  0.7881 -1.1831
   70CHL1   C10 6325   1.642   0.652   2.471 -0.6296  0.2538 -0.1182
   70CHL1   C19 6326   1.732   0.757   2.537 -0.1740 -0.4758 -0.2077
   70CHL1  H19A 6327   1.667   0.823   2.597 -0.2921  0.1504 -1.0020
   70CHL1  H19B 6328   1.815   0.723   2.602 -0.8290 -0.4638  0.6401
   70CHL1  H19C 6329   1.791   0.810   2.459  0.0166  0.2471  0.4224
   70CHL1    C1 6330   1.741   0.560   2.398 -0.3169 -0.2103 -0.0590
   70CHL1   H1A 6331   1.821   0.529   2.469  0.4114 -1.4658 -1.3924
   70CHL1   H1B 6332   1.674   0.476   2.373 -0.8011  0.7698 -2.3248
   70CHL1    C2 6333   1.801   0.624   2.272 -0.1856 -0.5501 -0.0533
   70CHL1   H2A 6334   1.866   0.558   2.210 -1.3116 -0.1208 -1.7562
   70CHL1   H2B 6335   1.865   0.712   2.297 -2.2104  0.8270  0.5477
   70CHL1   C20 6336   1.414   0.436   3.096  0.1940  0.4367  0.3386
   70CHL1   H20 6337   1.508   0.495   3.098 -1.2534  2.8763  0.1284
   70CHL1   C21 6338   1.457   0.285   3.112 -0.2811 -0.6692 -0.4872
   70CHL1  H21A 6339   1.367   0.221   3.127 -0.8743  0.6165  1.8597
   70CHL1  H21B 6340   1.532   0.279   3.194  2.0420  0.3941 -2.4159
   70CHL1  H21C 6341   1.511   0.246   3.023  2.0943 -1.5851  1.2373
   70CHL1   C22 6342   1.333   0.491   3.212  0.4521  0.4525 -0.2492
   70CHL1  H22A 6343   1.287   0.590   3.193 -0.7064 -0.4143 -2.3389
   70CHL1  H22B 6344   1.259   0.411   3.235 -1.6086  2.1002 -0.7563
   70CHL1   C23 6345   1.424   0.530   3.343 -0.5529 -0.3796 -0.3026
   70CHL1  H23A 6346   1.360   0.509   3.431  1.5357 -0.0102  1.3736
   70CHL1  H23B 6347   1.497   0.446   3.346 -2.4284 -2.0508  1.6613
   70CHL1   C24 6348   1.492   0.665   3.335  0.2084  0.2249 -0.0899
   70CHL1  H24A 6349   1.543   0.694   3.240  0.0228  1.0832  0.0659
   70CHL1  H24B 6350   1.412   0.741   3.338 -0.0899  0.0043 -1.5893
   70CHL1   C25 6351   1.576   0.686   3.455  0.1520 -0.2291  0.4714
   70CHL1   H25 6352   1.526   0.656   3.549  1.8125  0.6640  1.7096
   70CHL1   C26 6353   1.707   0.616   3.433 -0.3675 -0.3030 -0.2183
   70CHL1  H26A 6354   1.681   0.518   3.387 -0.5394 -0.2102 -0.3166
   70CHL1  H26B 6355   1.757   0.681   3.358 -1.3383 -0.0096 -0.6231
   70CHL1  H26C 6356   1.756   0.608   3.533 -2.5938  1.3350  1.0855
   70CHL1   C27 6357   1.602   0.827   3.489  0.3557 -0.0683 -0.5256
   70CHL1  H27A 6358   1.507   0.879   3.515 -0.0449 -0.5041 -1.1037
   70CHL1  H27B 6359   1.654   0.842   3.587  0.4461 -0.8940 -0.4377
   70CHL1  H27C 6360   1.669   0.882   3.419  0.8409  1.6044  1.1437
   71CHL1    C3 6361   6.896   1.750   2.174  0.2778 -0.4112 -0.4656
   71CHL1    H3 6362   7.001   1.714   2.170  0.3146 -0.4430  0.6727
   71CHL1    O3 6363   6.845   1.744   2.038 -0.0217 -0.7120  0.1470
   71CHL1   H3' 6364   6.826   1.650   2.028 -0.4121 -0.8938  2.2459
   71CHL1    C4 6365   6.821   1.653   2.264 -0.3140  0.0742 -0.4631
   71CHL1   H4A 6366   6.712   1.671   2.257 -0.5632 -1.4422 -0.8206
   71CHL1   H4B 6367   6.845   1.549   2.235  1.4857  0.3607 -0.1101
   71CHL1    C5 6368   6.856   1.664   2.412 -0.2632  0.3474 -0.3280
   71CHL1    C6 6369   6.888   1.560   2.484  0.4406  0.5042  0.8414
   71CHL1    H6 6370   6.874   1.465   2.430 -0.9227  2.4463 -2.5253
   71CHL1    C7 6371   6.923   1.548   2.629 -0.3705 -0.3090 -0.2241
   71CHL1   H7A 6372   6.859   1.473   2.681 -0.9152 -0.8151 -1.5691
   71CHL1   H7B 6373   7.029   1.521   2.644 -0.2162  0.6939  0.6076
   71CHL1    C8 6374   6.895   1.691   2.697  0.7901  0.6120 -0.3730
   71CHL1    H8 6375   6.785   1.692   2.712  0.6579 -1.4245 -0.9314
   71CHL1   C14 6376   6.975   1.692   2.827 -0.2068 -0.3196 -0.0752
   71CHL1   H14 6377   7.083   1.694   2.799 -0.8168  0.8945 -2.6717
   71CHL1   C15 6378   6.944   1.587   2.940 -0.2667  0.4743  0.3748
   71CHL1  H15A 6379   6.834   1.576   2.952 -0.0222 -1.7802  1.1516
   71CHL1  H15B 6380   6.994   1.490   2.919 -1.4282 -0.0689  0.0254
   71CHL1   C16 6381   7.012   1.643   3.061  0.6885  0.6382 -0.0187
   71CHL1  H16A 6382   6.937   1.639   3.144 -1.9491  0.3796 -2.2885
   71CHL1  H16B 6383   7.108   1.594   3.089  0.9375  0.6851 -0.7773
   71CHL1   C17 6384   7.038   1.793   3.034  0.2788 -0.2507 -0.0312
   71CHL1   H17 6385   7.147   1.805   3.017  0.2409  0.2935  0.0955
   71CHL1   C13 6386   6.964   1.822   2.902  0.2239 -0.5208 -0.2336
   71CHL1   C18 6387   6.808   1.858   2.939 -0.4646  0.6790  0.2870
   71CHL1  H18A 6388   6.820   1.960   2.982  0.6195 -0.0361  1.7339
   71CHL1  H18B 6389   6.743   1.864   2.848  1.8957  0.4628 -1.5166
   71CHL1  H18C 6390   6.777   1.782   3.013  0.6015  0.8824  0.9537
   71CHL1   C12 6391   7.014   1.941   2.814 -0.2455  0.3174  0.0608
   71CHL1  H12A 6392   7.008   2.037   2.869 -0.7433 -0.2768  1.0686
   71CHL1  H12B 6393   7.120   1.929   2.785  0.1232  2.2575  0.4395
   71CHL1   C11 6394   6.944   1.943   2.675  0.1924 -0.0302 -0.0486
   71CHL1  H11A 6395   6.846   1.995   2.669  0.0344 -0.2815  0.3525
   71CHL1  H11B 6396   7.006   2.010   2.612 -0.8843 -0.2905 -1.4486
   71CHL1    C9 6397   6.929   1.803   2.608 -0.1044 -0.6205 -0.5784
   71CHL1    H9 6398   7.035   1.782   2.583  0.3374 -3.1427  2.6669
   71CHL1   C10 6399   6.858   1.800   2.473 -0.1281 -0.2761  0.1233
   71CHL1   C19 6400   6.705   1.832   2.489  0.2947  0.3998  0.2640
   71CHL1  H19A 6401   6.670   1.928   2.534 -1.9791 -0.8257  1.3295
   71CHL1  H19B 6402   6.661   1.836   2.387  0.3365  1.4851  0.2721
   71CHL1  H19C 6403   6.652   1.750   2.542 -0.0293 -0.2100 -0.9733
   71CHL1    C1 6404   6.917   1.911   2.371  0.8225  0.2563 -0.0665
   71CHL1   H1A 6405   6.890   2.013   2.407 -0.1344  0.2338 -0.6981
   71CHL1   H1B 6406   7.025   1.886   2.379  0.1997 -2.6130  0.2446
   71CHL1    C2 6407   6.881   1.894   2.223 -0.2828 -0.7966 -0.5650
   71CHL1   H2A 6408   6.937   1.965   2.158 -1.9803 -0.3986 -1.6564
   71CHL1   H2B 6409   6.774   1.922   2.217 -0.6451 -1.2031  2.3456
   71CHL1   C20 6410   7.007   1.887   3.153 -0.5319  0.1815  0.0127
   71CHL1   H20 6411   6.897   1.903   3.162 -0.6616 -0.2982 -0.6075
   71CHL1   C21 6412   7.079   2.021   3.134 -0.3383  0.3841  0.3752
   71CHL1  H21A 6413   7.102   2.073   3.229 -1.2903 -1.1708  1.5201
   71CHL1  H21B 6414   7.008   2.080   3.071 -2.5485 -1.1307  1.2905
   71CHL1  H21C 6415   7.179   2.011   3.088  0.6898  2.2809  2.0808
   71CHL1   C22 6416   7.061   1.826   3.287 -0.0081 -0.3726  0.0646
   71CHL1  H22A 6417   7.029   1.721   3.305  0.0475 -0.3410  0.3515
   71CHL1  H22B 6418   7.171   1.823   3.275  0.0840  0.7363  0.5591
   71CHL1   C23 6419   7.037   1.918   3.411 -0.8092  0.3445  0.3421
   71CHL1  H23A 6420   7.122   1.985   3.437  1.3005 -1.4295 -1.6125
   71CHL1  H23B 6421   6.951   1.987   3.400 -0.6392  1.4393  4.3005
   71CHL1   C24 6422   7.003   1.829   3.535  0.1327  0.1488  0.0775
   71CHL1  H24A 6423   6.990   1.898   3.621  0.1155 -0.0934  0.2706
   71CHL1  H24B 6424   6.904   1.780   3.523  0.2593 -0.5388  1.5096
   71CHL1   C25 6425   7.102   1.718   3.582  0.1004  0.0578 -1.2245
   71CHL1   H25 6426   7.133   1.669   3.487  0.7102  0.4166 -1.2165
   71CHL1   C26 6427   7.230   1.774   3.636 -0.0739 -0.1508 -0.1838
   71CHL1  H26A 6428   7.308   1.698   3.658 -1.4719 -2.0971 -1.4871
   71CHL1  H26B 6429   7.280   1.850   3.572 -1.7388  1.1079 -0.0502
   71CHL1  H26C 6430   7.205   1.815   3.736 -0.6646  0.8926 -0.7519
   71CHL1   C27 6431   7.026   1.624   3.680 -1.0041 -0.5347  0.4125
   71CHL1  H27A 6432   6.978   1.683   3.761  1.4629  1.8160  0.3005
   71CHL1  H27B 6433   6.955   1.551   3.635  0.1510 -1.7779  0.5418
   71CHL1  H27C 6434   7.108   1.565   3.728  0.1492  0.6012 -0.0969
   72CHL1    C3 6435   6.277   6.538   2.121 -1.1559 -0.3987  0.3576
   72CHL1    H3 6436   6.375   6.580   2.154 -0.2049 -2.6725  0.6182
   72CHL1    O3 6437   6.271   6.515   1.984  0.7382 -0.4757  0.0160
   72CHL1   H3' 6438   6.198   6.573   1.959 -0.2593 -1.3627  0.7956
   72CHL1    C4 6439   6.256   6.407   2.197 -0.1860  0.4060 -0.1437
   72CHL1   H4A 6440   6.172   6.355   2.147 -1.8633  0.9288  1.9943
   72CHL1   H4B 6441   6.348   6.350   2.170 -0.1394  0.0380  0.7620
   72CHL1    C5 6442   6.228   6.416   2.346  0.4058 -0.1309  0.2708
   72CHL1    C6 6443   6.308   6.357   2.436 -0.0941 -1.4186  0.4555
   72CHL1    H6 6444   6.395   6.298   2.406  1.1954  0.6254  0.0035
   72CHL1    C7 6445   6.281   6.369   2.581  0.1019  0.2463 -0.3448
   72CHL1   H7A 6446   6.295   6.274   2.638  1.7174  2.1770  2.7777
   72CHL1   H7B 6447   6.345   6.443   2.633 -0.8181  0.5161  0.4337
   72CHL1    C8 6448   6.145   6.422   2.622  0.0694  0.0526  0.1850
   72CHL1    H8 6449   6.079   6.334   2.607 -0.9159  0.9579 -1.0559
   72CHL1   C14 6450   6.149   6.472   2.768 -0.3335 -0.2702 -0.4233
   72CHL1   H14 6451   6.209   6.564   2.753 -0.5186 -0.1192 -0.2280
   72CHL1   C15 6452   6.221   6.395   2.882  0.3607  0.6075 -0.1164
   72CHL1  H15A 6453   6.211   6.285   2.870  2.0416  0.0687  2.6092
   72CHL1  H15B 6454   6.329   6.420   2.876  0.4056  0.5521  0.4722
   72CHL1   C16 6455   6.152   6.440   3.010  0.1078 -0.8531 -0.0421
   72CHL1  H16A 6456   6.106   6.371   3.084  0.6189  0.0750  1.1941
   72CHL1  H16B 6457   6.230   6.494   3.069 -0.3355  1.9979 -1.8444
   72CHL1   C17 6458   6.043   6.544   2.970  0.3410 -0.4246  0.0726
   72CHL1   H17 6459   6.104   6.637   2.966 -0.3074 -0.0340 -1.3370
   72CHL1   C13 6460   6.012   6.512   2.823 -0.4190  0.6107  0.1965
   72CHL1   C18 6461   5.908   6.398   2.816  0.2820  0.4672  0.5314
   72CHL1  H18A 6462   5.807   6.426   2.851  0.3163  1.9660 -0.4873
   72CHL1  H18B 6463   5.883   6.372   2.711 -2.3718 -0.5799  1.3498
   72CHL1  H18C 6464   5.952   6.307   2.863 -1.8121 -1.2528 -0.7014
   72CHL1   C12 6465   5.964   6.632   2.731  0.2086  0.3478 -0.1141
   72CHL1  H12A 6466   5.854   6.637   2.744  0.2274 -0.1500  0.2828
   72CHL1  H12B 6467   6.023   6.716   2.772  1.9140  0.0798 -1.8720
   72CHL1   C11 6468   5.968   6.600   2.583 -0.3973 -0.3136  0.3096
   72CHL1  H11A 6469   5.894   6.520   2.564  2.6478 -3.3313  0.0599
   72CHL1  H11B 6470   5.938   6.695   2.535 -1.2499  1.1263  3.4131
   72CHL1    C9 6471   6.106   6.536   2.535  0.7154 -0.4742  0.9149
   72CHL1    H9 6472   6.177   6.618   2.554 -2.0831  2.2670  0.3259
   72CHL1   C10 6473   6.117   6.509   2.376  0.6191  0.2909  0.8548
   72CHL1   C19 6474   5.982   6.440   2.338  0.1307 -0.3141  0.0256
   72CHL1  H19A 6475   5.975   6.348   2.400 -1.6858 -0.4035 -0.2576
   72CHL1  H19B 6476   5.892   6.500   2.365  1.2633  0.7713  1.5754
   72CHL1  H19C 6477   5.971   6.417   2.230 -0.4655 -0.9362  0.2156
   72CHL1    C1 6478   6.122   6.644   2.299  0.0458  0.1978  0.0130
   72CHL1   H1A 6479   6.031   6.706   2.315  1.0221  1.8019 -0.4311
   72CHL1   H1B 6480   6.201   6.717   2.327 -1.9018  2.8090 -0.8878
   72CHL1    C2 6481   6.153   6.635   2.150 -0.4468  0.2806 -0.1281
   72CHL1   H2A 6482   6.165   6.731   2.096  0.8851  0.4434  0.4291
   72CHL1   H2B 6483   6.071   6.589   2.090  1.0073 -1.0281 -1.2088
   72CHL1   C20 6484   5.923   6.564   3.072  0.0070 -0.1008  0.4243
   72CHL1   H20 6485   5.857   6.475   3.069 -1.6781  1.1071 -1.7758
   72CHL1   C21 6486   5.835   6.686   3.026 -0.0425 -0.6828  0.3264
   72CHL1  H21A 6487   5.905   6.770   3.007  0.7172 -1.6575 -1.4774
   72CHL1  H21B 6488   5.756   6.713   3.099 -0.5847 -2.6906  0.5398
   72CHL1  H21C 6489   5.765   6.664   2.944 -1.5168  0.2160  1.3023
   72CHL1   C22 6490   5.962   6.574   3.219  0.1407 -0.0160  0.4622
   72CHL1  H22A 6491   6.072   6.585   3.236  0.4301 -0.4625 -0.9863
   72CHL1  H22B 6492   5.913   6.664   3.262  0.1766 -0.8118  2.2849
   72CHL1   C23 6493   5.902   6.464   3.311 -0.0701  0.5048  0.0330
   72CHL1  H23A 6494   5.792   6.457   3.300 -0.2609  0.7986  1.6218
   72CHL1  H23B 6495   5.955   6.370   3.284 -2.8655 -1.6931  1.6358
   72CHL1   C24 6496   5.928   6.481   3.461 -0.0197 -0.7323  0.4519
   72CHL1  H24A 6497   6.036   6.492   3.482 -0.1916 -0.4355  1.2367
   72CHL1  H24B 6498   5.881   6.573   3.502 -0.6808 -0.8321 -0.0524
   72CHL1   C25 6499   5.895   6.358   3.548 -1.1766 -0.0988 -0.2466
   72CHL1   H25 6500   5.785   6.341   3.555 -1.0165 -1.6400 -1.0555
   72CHL1   C26 6501   5.952   6.227   3.499  0.5706  0.2845  0.6833
   72CHL1  H26A 6502   5.917   6.148   3.569  0.0545  0.1038  0.2353
   72CHL1  H26B 6503   5.910   6.207   3.398 -0.2493 -0.4631  1.1578
   72CHL1  H26C 6504   6.062   6.223   3.485  0.5583 -1.3114  0.8125
   72CHL1   C27 6505   5.948   6.390   3.689 -1.2823 -1.3827  0.6008
   72CHL1  H27A 6506   6.057   6.410   3.684 -1.7936  1.3321 -1.9489
   72CHL1  H27B 6507   5.893   6.477   3.731 -0.4889  0.4587 -1.9242
   72CHL1  H27C 6508   5.937   6.302   3.756 -0.1753 -0.5785  1.8867
   73CHL1    C3 6509   6.975   0.597   2.148 -0.4205 -0.7222 -0.0531
   73CHL1    H3 6510   7.042   0.509   2.151  1.9066  0.9337  3.2606
   73CHL1    O3 6511   6.966   0.611   2.010  0.3062 -0.1043 -0.1362
   73CHL1   H3' 6512   6.935   0.700   1.991 -1.3545 -0.7267 -0.5356
   73CHL1    C4 6513   6.842   0.579   2.234 -0.9688 -0.1332  1.1282
   73CHL1   H4A 6514   6.793   0.677   2.215  1.6680  1.0885  0.1457
   73CHL1   H4B 6515   6.782   0.503   2.181 -2.1913  0.3110  1.8436
   73CHL1    C5 6516   6.876   0.563   2.384 -0.6213 -0.2014 -0.3861
   73CHL1    C6 6517   6.829   0.461   2.454  1.1937  0.0110  0.6918
   73CHL1    H6 6518   6.751   0.394   2.414  1.0505 -0.9167  2.4111
   73CHL1    C7 6519   6.849   0.433   2.598 -0.7290 -0.1233 -0.3611
   73CHL1   H7A 6520   6.750   0.411   2.644 -1.0120  1.5406 -0.0955
   73CHL1   H7B 6521   6.919   0.347   2.604  0.8688  1.1219 -0.4630
   73CHL1    C8 6522   6.921   0.554   2.666 -0.4880 -0.5351 -0.4942
   73CHL1    H8 6523   6.849   0.637   2.683 -1.2241 -1.2118 -0.2210
   73CHL1   C14 6524   6.986   0.506   2.795  0.0869  0.8184 -0.2978
   73CHL1   H14 6525   7.067   0.433   2.773 -0.4154 -0.6360  2.2969
   73CHL1   C15 6526   6.906   0.423   2.894  0.7116  0.3478  0.4025
   73CHL1  H15A 6527   6.801   0.459   2.890  0.5589  0.2188  2.3246
   73CHL1  H15B 6528   6.908   0.321   2.850 -0.3331  0.7879 -0.7023
   73CHL1   C16 6529   6.970   0.436   3.035 -0.3883  0.0226 -0.1209
   73CHL1  H16A 6530   6.900   0.491   3.102 -2.3620 -3.4523  0.9373
   73CHL1  H16B 6531   6.996   0.338   3.080  1.2424  0.4611 -0.0397
   73CHL1   C17 6532   7.089   0.532   3.003  0.3563  0.4504  1.1701
   73CHL1   H17 6533   7.165   0.461   2.962 -1.1591  0.7944 -2.6602
   73CHL1   C13 6534   7.046   0.616   2.878  0.7295  0.3173 -0.6226
   73CHL1   C18 6535   6.937   0.730   2.913 -0.2167  0.3699 -0.2533
   73CHL1  H18A 6536   6.838   0.683   2.929 -0.8487  1.2688 -1.3617
   73CHL1  H18B 6537   6.968   0.804   2.990 -0.8343  0.1802  0.1797
   73CHL1  H18C 6538   6.912   0.784   2.819  1.2224 -1.9982 -2.1329
   73CHL1   C12 6539   7.171   0.662   2.796  0.6162  0.7019  0.5055
   73CHL1  H12A 6540   7.207   0.750   2.853  0.9003 -0.6512  2.5038
   73CHL1  H12B 6541   7.248   0.582   2.797 -0.2986 -0.2149 -0.4011
   73CHL1   C11 6542   7.129   0.709   2.648  0.1922 -0.1917  0.0637
   73CHL1  H11A 6543   7.074   0.804   2.661  0.3168  0.0209 -0.9116
   73CHL1  H11B 6544   7.222   0.722   2.589 -0.0943 -1.7059 -0.7652
   73CHL1    C9 6545   7.035   0.608   2.578 -0.0612  0.0651  0.0269
   73CHL1    H9 6546   7.109   0.527   2.558  0.5418  0.8937 -1.2103
   73CHL1   C10 6547   6.984   0.656   2.440  0.4726  0.3384  0.1533
   73CHL1   C19 6548   6.919   0.793   2.456 -0.0764 -0.2908 -0.1909
   73CHL1  H19A 6549   6.869   0.836   2.367 -1.4314 -1.7821 -0.1870
   73CHL1  H19B 6550   6.851   0.799   2.544 -0.5380 -0.3748 -0.5401
   73CHL1  H19C 6551   6.998   0.868   2.480  0.3262 -0.6920 -0.2499
   73CHL1    C1 6552   7.107   0.673   2.346  0.0973  0.1349  0.2014
   73CHL1   H1A 6553   7.170   0.758   2.378 -2.3430  1.5068  1.6815
   73CHL1   H1B 6554   7.179   0.589   2.356 -1.3766 -1.0355  1.5668
   73CHL1    C2 6555   7.074   0.703   2.205  0.5011 -0.1394 -0.4111
   73CHL1   H2A 6556   7.171   0.712   2.152  0.7201  0.9129  0.1303
   73CHL1   H2B 6557   7.023   0.801   2.193  1.1312  0.4583  1.4206
   73CHL1   C20 6558   7.141   0.620   3.118 -0.5199  0.9390 -1.0003
   73CHL1   H20 6559   7.122   0.728   3.100  1.2120  1.3060 -0.8685
   73CHL1   C21 6560   7.295   0.609   3.115  0.4048 -0.4749 -0.4664
   73CHL1  H21A 6561   7.328   0.519   3.172  1.5073  0.8993  1.1631
   73CHL1  H21B 6562   7.330   0.693   3.178 -3.3331  2.1259 -1.4872
   73CHL1  H21C 6563   7.342   0.611   3.014  0.1645 -2.3219 -0.6615
   73CHL1   C22 6564   7.104   0.576   3.267 -0.3749  0.2370 -0.0480
   73CHL1  H22A 6565   6.994   0.583   3.283 -0.3856 -0.8050  0.3882
   73CHL1  H22B 6566   7.124   0.467   3.267 -0.0611  0.2357  2.7296
   73CHL1   C23 6567   7.177   0.664   3.379  0.0895  0.4356  0.0187
   73CHL1  H23A 6568   7.285   0.640   3.387  0.4738  0.8607 -2.8377
   73CHL1  H23B 6569   7.168   0.772   3.357 -0.9347  0.3371 -0.1038
   73CHL1   C24 6570   7.112   0.652   3.519  0.0347 -0.5255 -0.0801
   73CHL1  H24A 6571   7.007   0.683   3.505  0.7979  2.8278  0.7059
   73CHL1  H24B 6572   7.103   0.550   3.560 -1.6118 -1.0889 -1.7206
   73CHL1   C25 6573   7.173   0.752   3.623  0.5934  0.3922  0.8813
   73CHL1   H25 6574   7.155   0.854   3.583  0.3730  1.1060  2.7077
   73CHL1   C26 6575   7.125   0.741   3.767 -0.2131  0.1211 -0.4895
   73CHL1  H26A 6576   7.183   0.807   3.834  2.2497 -0.8638 -1.5317
   73CHL1  H26B 6577   7.020   0.777   3.765  0.6023  2.9197  1.3939
   73CHL1  H26C 6578   7.138   0.635   3.799  1.0297 -0.4415 -2.6315
   73CHL1   C27 6579   7.327   0.729   3.646  0.0658  0.1717  0.0481
   73CHL1  H27A 6580   7.360   0.637   3.700  1.7715  0.0555 -1.1157
   73CHL1  H27B 6581   7.392   0.748   3.558 -0.0640  1.1363  0.1486
   73CHL1  H27C 6582   7.351   0.814   3.714 -2.1412 -1.4886  3.1474
   74CHL1    C3 6583   1.265   0.173   2.132 -0.0328 -0.1568  0.2910
   74CHL1    H3 6584   1.339   0.100   2.092  2.5098  1.7311  1.3214
   74CHL1    O3 6585   1.194   0.227   2.023  0.4333 -0.4281 -0.4420
   74CHL1   H3' 6586   1.165   0.148   1.976 -2.4220  1.0691 -1.4881
   74CHL1    C4 6587   1.164   0.096   2.222 -0.2857  0.0872  0.0620
   74CHL1   H4A 6588   1.077   0.157   2.254  0.8749  0.4672  2.6975
   74CHL1   H4B 6589   1.115   0.012   2.169  0.5682  0.3951 -1.2886
   74CHL1    C5 6590   1.233   0.046   2.340  0.3255 -0.2437 -0.2666
   74CHL1    C6 6591   1.226  -0.087   2.372  0.0835  0.7908 -0.1557
   74CHL1    H6 6592   1.185  -0.159   2.300  0.4910  0.6880 -0.2859
   74CHL1    C7 6593   1.280  -0.157   2.491 -0.9767 -0.2938 -0.3932
   74CHL1   H7A 6594   1.197  -0.219   2.530  0.1350 -1.0422  0.8415
   74CHL1   H7B 6595   1.366  -0.221   2.464 -0.0715  0.6519  0.1671
   74CHL1    C8 6596   1.320  -0.054   2.604 -0.3814 -0.1663 -0.5521
   74CHL1    H8 6597   1.230  -0.023   2.661  0.9106 -0.2768  1.6295
   74CHL1   C14 6598   1.425  -0.123   2.696  0.3211 -0.2639 -0.1468
   74CHL1   H14 6599   1.507  -0.133   2.621  2.3231  2.2552  1.4991
   74CHL1   C15 6600   1.405  -0.266   2.759  0.6768  0.0948  0.4655
   74CHL1  H15A 6601   1.305  -0.277   2.805  0.4538 -0.7304 -0.1832
   74CHL1  H15B 6602   1.415  -0.355   2.693  0.4410 -0.1326  0.7336
   74CHL1   C16 6603   1.515  -0.276   2.871  0.3502 -0.2782 -0.3579
   74CHL1  H16A 6604   1.465  -0.310   2.964 -1.6335  1.0834 -0.8691
   74CHL1  H16B 6605   1.595  -0.350   2.849 -0.8588 -1.6185 -0.4000
   74CHL1   C17 6606   1.573  -0.126   2.882  0.2670  0.6774  0.6577
   74CHL1   H17 6607   1.672  -0.122   2.832  2.4891  1.0407  4.6746
   74CHL1   C13 6608   1.477  -0.036   2.804  0.1368  0.3029  0.3105
   74CHL1   C18 6609   1.352  -0.008   2.889 -0.2900  0.4930 -0.3227
   74CHL1  H18A 6610   1.392   0.040   2.981  1.3529 -1.4127  0.0197
   74CHL1  H18B 6611   1.289   0.066   2.834  0.2519 -0.4664 -2.2991
   74CHL1  H18C 6612   1.284  -0.093   2.910 -2.1980  1.8077 -0.8831
   74CHL1   C12 6613   1.532   0.095   2.753 -0.0127  0.0876 -0.3040
   74CHL1  H12A 6614   1.558   0.164   2.836  4.4803 -3.6466  1.8697
   74CHL1  H12B 6615   1.627   0.074   2.699 -0.0615  0.9231 -0.7355
   74CHL1   C11 6616   1.446   0.175   2.649 -0.7532  1.3405  0.0957
   74CHL1  H11A 6617   1.371   0.234   2.706 -2.2029  0.1701 -0.5356
   74CHL1  H11B 6618   1.509   0.259   2.611  3.7403 -1.6333  0.1847
   74CHL1    C9 6619   1.385   0.078   2.541 -0.5434  0.0613 -0.3197
   74CHL1    H9 6620   1.473   0.040   2.485 -0.2901 -1.3624  0.9652
   74CHL1   C10 6621   1.303   0.143   2.433  0.1672 -0.5818 -0.1887
   74CHL1   C19 6622   1.202   0.241   2.500  0.1152 -0.0767  0.1756
   74CHL1  H19A 6623   1.142   0.190   2.578  3.2294 -3.8177  0.4345
   74CHL1  H19B 6624   1.259   0.324   2.547 -1.9402  0.7942  1.2357
   74CHL1  H19C 6625   1.133   0.287   2.426 -0.4069 -0.2548  0.5452
   74CHL1    C1 6626   1.397   0.222   2.332 -0.4174 -0.5239 -0.0203
   74CHL1   H1A 6627   1.450   0.299   2.391  0.2899 -1.1794  0.2107
   74CHL1   H1B 6628   1.485   0.162   2.302  0.0700  0.6465 -1.0283
   74CHL1    C2 6629   1.335   0.277   2.202 -0.6572  0.1826  0.0140
   74CHL1   H2A 6630   1.416   0.318   2.137  1.8248 -0.3377  2.5533
   74CHL1   H2B 6631   1.265   0.354   2.239 -0.5510 -0.7961  2.3938
   74CHL1   C20 6632   1.614  -0.084   3.024  0.0920 -0.2481  0.0815
   74CHL1   H20 6633   1.623   0.026   3.021  1.3269 -0.3574 -0.9725
   74CHL1   C21 6634   1.763  -0.131   3.044 -0.4960 -0.0353 -0.5718
   74CHL1  H21A 6635   1.779  -0.102   3.151 -0.7826  1.7066 -0.9651
   74CHL1  H21B 6636   1.836  -0.088   2.972 -0.6374  0.2629 -0.5400
   74CHL1  H21C 6637   1.779  -0.241   3.037 -2.0654 -0.6069  2.6866
   74CHL1   C22 6638   1.517  -0.124   3.143  0.0706  0.2612  0.8007
   74CHL1  H22A 6639   1.407  -0.120   3.134  0.1615 -0.1871 -0.7838
   74CHL1  H22B 6640   1.537  -0.232   3.162 -0.7321  0.3266  2.1322
   74CHL1   C23 6641   1.548  -0.036   3.267 -1.2719  0.3591  0.0676
   74CHL1  H23A 6642   1.650  -0.055   3.307 -0.4851  1.5972 -1.2882
   74CHL1  H23B 6643   1.542   0.073   3.247  1.8760  0.3703 -1.4301
   74CHL1   C24 6644   1.457  -0.077   3.384 -0.0557 -0.1630  0.4003
   74CHL1  H24A 6645   1.357  -0.075   3.334 -0.5195  0.3148  1.3298
   74CHL1  H24B 6646   1.470  -0.180   3.425 -0.2301  0.5002  2.2011
   74CHL1   C25 6647   1.454   0.025   3.502 -0.5360  0.7415  0.1304
   74CHL1   H25 6648   1.558   0.039   3.539  0.9587 -1.0406 -2.9608
   74CHL1   C26 6649   1.419   0.175   3.461  0.1522  0.2749 -0.3388
   74CHL1  H26A 6650   1.424   0.250   3.543 -0.6268  0.3965 -0.3986
   74CHL1  H26B 6651   1.501   0.203   3.390  1.8121 -0.6901  1.1256
   74CHL1  H26C 6652   1.322   0.192   3.409 -0.0504  1.0747  0.2735
   74CHL1   C27 6653   1.358  -0.013   3.608  0.2938  0.3595  0.0563
   74CHL1  H27A 6654   1.395  -0.106   3.656  0.1087  0.4056  0.2941
   74CHL1  H27B 6655   1.360   0.064   3.688  3.4796  0.0577  0.3741
   74CHL1  H27C 6656   1.251  -0.009   3.577  1.2658  3.3297 -3.5434
   75CHL1    C3 6657   0.753   0.112   2.164  0.9498  0.6929 -0.3015
   75CHL1    H3 6658   0.863   0.120   2.162  0.9563  0.5330 -1.6337
   75CHL1    O3 6659   0.702   0.133   2.032 -0.1960 -0.2708 -0.0993
   75CHL1   H3' 6660   0.607   0.119   2.041 -0.0987  0.1196  1.9054
   75CHL1    C4 6661   0.708  -0.031   2.212  0.1422  0.0049 -0.7725
   75CHL1   H4A 6662   0.598  -0.046   2.201  0.2866 -2.7790  0.7197
   75CHL1   H4B 6663   0.752  -0.110   2.147  0.5460  0.2710 -0.8235
   75CHL1    C5 6664   0.754  -0.055   2.356  0.6454 -0.6137  0.2211
   75CHL1    C6 6665   0.823  -0.169   2.386 -0.0255  0.2788 -0.0874
   75CHL1    H6 6666   0.845  -0.246   2.311  2.8672 -0.0397  0.9571
   75CHL1    C7 6667   0.878  -0.184   2.533  0.9362 -0.2742 -0.3220
   75CHL1   H7A 6668   0.860  -0.284   2.578 -0.0188  0.0866  0.1274
   75CHL1   H7B 6669   0.987  -0.170   2.519  0.8281 -0.4276 -1.4576
   75CHL1    C8 6670   0.820  -0.080   2.641 -0.2315  0.4736  0.1439
   75CHL1    H8 6671   0.720  -0.114   2.677  0.8649 -2.3336  0.7564
   75CHL1   C14 6672   0.909  -0.077   2.765  0.2014 -0.2656 -1.2082
   75CHL1   H14 6673   1.000  -0.024   2.730  2.0675 -3.1333 -1.0826
   75CHL1   C15 6674   0.962  -0.206   2.822 -0.5175  0.0845  0.5749
   75CHL1  H15A 6675   0.885  -0.286   2.817  0.4141 -0.7995 -0.0161
   75CHL1  H15B 6676   1.045  -0.242   2.759 -1.0428  1.9551 -1.3110
   75CHL1   C16 6677   0.995  -0.181   2.968  0.2230 -0.0403 -0.6076
   75CHL1  H16A 6678   0.923  -0.249   3.019  0.5485 -0.6023 -0.8847
   75CHL1  H16B 6679   1.095  -0.218   3.000  0.0552  0.5432  0.6175
   75CHL1   C17 6680   0.971  -0.028   2.990  0.4440  0.1317  0.0777
   75CHL1   H17 6681   1.066   0.019   2.959  1.5028 -3.2611 -2.4612
   75CHL1   C13 6682   0.865   0.007   2.887 -0.2480 -0.5783 -0.5839
   75CHL1   C18 6683   0.737  -0.056   2.938  0.6250 -0.2971  0.1642
   75CHL1  H18A 6684   0.660  -0.035   2.860  1.1685  4.7165  0.7131
   75CHL1  H18B 6685   0.742  -0.163   2.968  2.7382 -0.4861 -0.7532
   75CHL1  H18C 6686   0.699  -0.005   3.029  1.2013  0.2452  0.1065
   75CHL1   C12 6687   0.853   0.153   2.833  0.1121 -0.7049 -0.1947
   75CHL1  H12A 6688   0.800   0.207   2.914 -2.1688 -1.9919 -0.7613
   75CHL1  H12B 6689   0.952   0.202   2.822 -1.3566  2.6692  0.2780
   75CHL1   C11 6690   0.765   0.159   2.710  0.1194 -0.3871 -0.2684
   75CHL1  H11A 6691   0.660   0.138   2.740 -0.3182  1.0278 -0.7532
   75CHL1  H11B 6692   0.775   0.266   2.681 -0.8309 -0.3171 -0.3713
   75CHL1    C9 6693   0.807   0.059   2.591 -0.1039 -0.5696 -0.1720
   75CHL1    H9 6694   0.911   0.084   2.559 -0.5127 -0.1130 -1.1704
   75CHL1   C10 6695   0.721   0.060   2.460  0.2308 -0.4910 -0.4175
   75CHL1   C19 6696   0.567   0.044   2.496  0.7191 -0.6951 -0.0506
   75CHL1  H19A 6697   0.496   0.050   2.411 -0.4673  2.0609  1.0028
   75CHL1  H19B 6698   0.553  -0.041   2.565  0.3960  0.6974  1.6835
   75CHL1  H19C 6699   0.539   0.131   2.560 -0.1522 -0.9996  0.0024
   75CHL1    C1 6700   0.750   0.195   2.395 -0.0302 -0.5154  0.9597
   75CHL1   H1A 6701   0.713   0.271   2.467  0.0799  0.0356  0.4436
   75CHL1   H1B 6702   0.859   0.204   2.376  0.0744  0.8676  2.0027
   75CHL1    C2 6703   0.688   0.214   2.257 -0.2737  0.8925 -0.2547
   75CHL1   H2A 6704   0.714   0.314   2.216 -3.4840  2.3715  0.9564
   75CHL1   H2B 6705   0.577   0.220   2.264 -0.3195 -0.4660  0.3964
   75CHL1   C20 6706   0.936   0.021   3.135  0.4880 -0.0519 -0.0027
   75CHL1   H20 6707   0.877   0.114   3.122  0.6041 -0.1025 -0.9702
   75CHL1   C21 6708   1.074   0.047   3.194  0.3947 -0.4895 -0.1095
   75CHL1  H21A 6709   1.127  -0.047   3.219  0.2217 -0.5548  0.0109
   75CHL1  H21B 6710   1.057   0.107   3.286 -1.1412  1.3401 -1.4919
   75CHL1  H21C 6711   1.133   0.120   3.134  0.7510  0.3085  1.1688
   75CHL1   C22 6712   0.855  -0.068   3.235 -0.2394 -0.0304  0.0593
   75CHL1  H22A 6713   0.752  -0.077   3.195  0.1820 -1.5239 -0.7491
   75CHL1  H22B 6714   0.902  -0.168   3.238 -1.3441 -0.6856 -2.1793
   75CHL1   C23 6715   0.846  -0.022   3.383 -0.9740  0.0802  1.6671
   75CHL1  H23A 6716   0.949  -0.027   3.423  0.1719 -1.7079 -1.1982
   75CHL1  H23B 6717   0.812   0.083   3.390  1.6498  0.9148  3.1446
   75CHL1   C24 6718   0.759  -0.108   3.467 -0.5916 -0.2283 -0.6828
   75CHL1  H24A 6719   0.662  -0.133   3.418 -0.6380  0.3391 -0.8889
   75CHL1  H24B 6720   0.815  -0.199   3.498 -0.8317  0.0494  0.6585
   75CHL1   C25 6721   0.726  -0.048   3.603 -0.3400 -0.1391 -0.1549
   75CHL1   H25 6722   0.664   0.042   3.587  1.1190  0.7489 -1.0800
   75CHL1   C26 6723   0.643  -0.142   3.694 -0.7267  0.4832  0.0415
   75CHL1  H26A 6724   0.558  -0.183   3.636 -2.3120  0.4789  2.2269
   75CHL1  H26B 6725   0.696  -0.230   3.736  0.0953  0.9049 -0.0776
   75CHL1  H26C 6726   0.604  -0.076   3.775 -0.8584  0.2089  0.1992
   75CHL1   C27 6727   0.846   0.011   3.678  0.1152 -0.2444  0.0078
   75CHL1  H27A 6728   0.811   0.051   3.776  1.0227  0.4788  0.0441
   75CHL1  H27B 6729   0.922  -0.060   3.719 -0.3520 -0.0955  1.1746
   75CHL1  H27C 6730   0.899   0.091   3.623 -0.3894 -1.0700 -1.7613
   76CHL1    C3 6731   0.289   6.983   2.093  0.2076  0.2354 -0.1829
   76CHL1    H3 6732   0.388   7.031   2.108  0.8863 -0.2260 -2.7792
   76CHL1    O3 6733   0.262   7.010   1.956 -0.0361  0.1930  0.5800
   76CHL1   H3' 6734   0.209   7.090   1.955  1.1251  0.9840 -1.0770
   76CHL1    C4 6735   0.321   6.835   2.114 -0.1479  0.0901  0.0920
   76CHL1   H4A 6736   0.225   6.784   2.090  0.2864 -0.3573 -0.7521
   76CHL1   H4B 6737   0.388   6.790   2.037 -0.0189 -1.6810  1.1797
   76CHL1    C5 6738   0.364   6.818   2.259 -0.0195 -0.3823 -0.2715
   76CHL1    C6 6739   0.472   6.748   2.297  0.1636 -0.0798 -0.3517
   76CHL1    H6 6740   0.535   6.706   2.217  0.4005  1.9346 -1.2812
   76CHL1    C7 6741   0.509   6.719   2.440  1.1234  0.0921  0.0676
   76CHL1   H7A 6742   0.522   6.611   2.467 -0.0789  0.5312  2.8266
   76CHL1   H7B 6743   0.608   6.768   2.454  0.7951  0.6877  0.3173
   76CHL1    C8 6744   0.394   6.762   2.534  0.7090  1.1288  0.3843
   76CHL1    H8 6745   0.316   6.683   2.537  1.6447  0.1765  0.2547
   76CHL1   C14 6746   0.448   6.765   2.675 -0.3346 -0.0084 -0.0935
   76CHL1   H14 6747   0.525   6.845   2.662 -0.2351 -0.2139 -0.8426
   76CHL1   C15 6748   0.516   6.634   2.724 -0.7410 -0.4807 -0.6642
   76CHL1  H15A 6749   0.454   6.542   2.718  0.8016 -1.6147  0.2321
   76CHL1  H15B 6750   0.619   6.620   2.685 -0.4987 -1.5410  0.3050
   76CHL1   C16 6751   0.523   6.658   2.878 -0.3581  0.2993 -0.7398
   76CHL1  H16A 6752   0.462   6.579   2.926 -1.9742  2.3961  0.8221
   76CHL1  H16B 6753   0.629   6.664   2.911 -1.4164  2.7417  2.6909
   76CHL1   C17 6754   0.453   6.793   2.907 -1.0704 -0.0125  0.1086
   76CHL1   H17 6755   0.534   6.868   2.903 -3.8384  3.1535 -0.5829
   76CHL1   C13 6756   0.360   6.809   2.787 -0.0355  0.1033 -0.4027
   76CHL1   C18 6757   0.236   6.714   2.803 -0.2003 -0.1089  0.0955
   76CHL1  H18A 6758   0.274   6.618   2.845  1.2898  0.4343  0.0771
   76CHL1  H18B 6759   0.172   6.761   2.880 -1.3119  0.1364 -0.9567
   76CHL1  H18C 6760   0.179   6.700   2.709 -0.1517 -2.4426  0.3535
   76CHL1   C12 6761   0.320   6.952   2.758  0.5272 -0.4512 -0.0313
   76CHL1  H12A 6762   0.263   7.009   2.834  0.2646  1.0369 -1.2845
   76CHL1  H12B 6763   0.415   7.006   2.737  0.6605  0.3649  2.3766
   76CHL1   C11 6764   0.247   6.958   2.617 -1.2382 -0.0980  0.7334
   76CHL1  H11A 6765   0.149   6.906   2.628 -1.5540  0.7236  2.0335
   76CHL1  H11B 6766   0.222   7.065   2.606 -3.3008 -0.4771  1.2170
   76CHL1    C9 6767   0.332   6.897   2.500  0.3948 -0.4958 -0.2581
   76CHL1    H9 6768   0.419   6.965   2.488  0.8642 -1.1151 -0.4400
   76CHL1   C10 6769   0.267   6.896   2.358 -0.2493  0.4622  0.0523
   76CHL1   C19 6770   0.135   6.810   2.370  0.7607  0.8632 -0.0547
   76CHL1  H19A 6771   0.054   6.868   2.418 -1.7083 -1.5255 -1.0709
   76CHL1  H19B 6772   0.093   6.780   2.271  0.9079  0.6694 -0.0599
   76CHL1  H19C 6773   0.157   6.721   2.434  0.7526 -0.7910 -2.2364
   76CHL1    C1 6774   0.233   7.045   2.322 -0.5771  0.7091 -0.8173
   76CHL1   H1A 6775   0.148   7.083   2.383  1.5476  1.4452  1.8480
   76CHL1   H1B 6776   0.320   7.115   2.328  0.8051 -0.8631 -1.7622
   76CHL1    C2 6777   0.182   7.050   2.184  0.3256 -0.7542  0.3374
   76CHL1   H2A 6778   0.152   7.152   2.153 -0.6186 -0.2315  2.7463
   76CHL1   H2B 6779   0.087   6.992   2.180 -0.1015 -0.0092 -3.4881
   76CHL1   C20 6780   0.398   6.809   3.049  0.2186  0.5040 -0.0740
   76CHL1   H20 6781   0.291   6.780   3.046 -0.0778  1.6044 -2.4472
   76CHL1   C21 6782   0.413   6.952   3.090  0.6197 -0.1491 -0.0164
   76CHL1  H21A 6783   0.374   7.020   3.011  1.4097  0.8879  0.4572
   76CHL1  H21B 6784   0.518   6.984   3.107  0.6474  0.5124 -1.3071
   76CHL1  H21C 6785   0.358   6.974   3.184  2.3649  2.0494  0.5995
   76CHL1   C22 6786   0.461   6.710   3.150 -1.0481 -0.3089 -0.5303
   76CHL1  H22A 6787   0.435   6.606   3.119  0.3034 -1.4817  1.9716
   76CHL1  H22B 6788   0.570   6.728   3.141 -1.3294  0.7107 -2.3131
   76CHL1   C23 6789   0.411   6.732   3.299  0.3442 -0.6184  0.3570
   76CHL1  H23A 6790   0.439   6.835   3.331  0.5758 -1.6491  3.9753
   76CHL1  H23B 6791   0.301   6.721   3.293 -0.0388  2.8059 -1.1445
   76CHL1   C24 6792   0.478   6.642   3.398 -0.0747  0.5809  0.2407
   76CHL1  H24A 6793   0.452   6.537   3.377  2.4912 -0.1074  0.1434
   76CHL1  H24B 6794   0.589   6.649   3.391 -0.1099  1.2458  0.2676
   76CHL1   C25 6795   0.454   6.680   3.544  0.3080  0.9479 -0.1891
   76CHL1   H25 6796   0.475   6.786   3.566 -1.5154  1.4952 -0.8797
   76CHL1   C26 6797   0.301   6.672   3.586 -0.3127 -0.7871 -0.2046
   76CHL1  H26A 6798   0.235   6.707   3.503  1.0981  0.3498 -0.8948
   76CHL1  H26B 6799   0.279   6.567   3.615  0.6576 -0.9551 -0.0455
   76CHL1  H26C 6800   0.281   6.737   3.674 -2.2127 -1.3083 -0.2080
   76CHL1   C27 6801   0.533   6.587   3.637  0.3078  0.3026  0.4515
   76CHL1  H27A 6802   0.512   6.600   3.745  0.0031  1.2201  0.2941
   76CHL1  H27B 6803   0.504   6.483   3.613 -1.0483  0.8596 -0.4652
   76CHL1  H27C 6804   0.641   6.603   3.619 -0.0706  0.2806 -2.2782
   77SOPE     N 6805   2.954   4.285   6.247  0.6251 -0.0038 -0.4665
   77SOPE   HN1 6806   2.894   4.355   6.295 -0.4214 -0.4869 -1.0424
   77SOPE   HN2 6807   2.900   4.200   6.271 -0.3783  0.9982  1.0096
   77SOPE   HN3 6808   3.045   4.286   6.296  0.2268 -0.0993  0.2779
   77SOPE   C12 6809   2.958   4.310   6.096  0.2388 -0.2745  0.4113
   77SOPE  H12A 6810   3.039   4.378   6.064 -0.8380  0.4549 -0.8429
   77SOPE  H12B 6811   2.857   4.347   6.071 -0.4041  0.2570  3.3960
   77SOPE   C11 6812   2.979   4.181   6.013 -0.1634 -0.4653  0.3343
   77SOPE  H11A 6813   2.967   4.208   5.906 -1.7182  0.0545  0.6051
   77SOPE  H11B 6814   2.896   4.116   6.048 -0.5861  0.0868  0.3749
   77SOPE     P 6815   3.143   3.973   6.013 -0.1730 -0.1673  0.3483
   77SOPE   O13 6816   3.031   3.905   5.945  0.3329 -1.0609  0.1178
   77SOPE   O14 6817   3.200   3.912   6.136  0.0827  0.2240  0.6172
   77SOPE   O12 6818   3.107   4.127   6.039 -0.7806 -0.1228 -0.4589
   77SOPE   O11 6819   3.259   3.994   5.908 -0.3525  0.0773 -0.1330
   77SOPE    C1 6820   3.370   4.086   5.926  0.2323  0.8129  0.0704
   77SOPE    HA 6821   3.468   4.040   5.899 -0.1493  0.9975 -1.7379
   77SOPE    HB 6822   3.379   4.110   6.034 -0.8133 -2.3393  0.9628
   77SOPE    C2 6823   3.364   4.218   5.836  0.0758 -0.3991 -0.6295
   77SOPE    HS 6824   3.266   4.262   5.865  0.2723 -1.3430  1.6614
   77SOPE   O21 6825   3.370   4.191   5.695 -0.0203 -0.4071  0.7430
   77SOPE   C21 6826   3.278   4.248   5.622  0.0461 -0.4297  0.1644
   77SOPE   O22 6827   3.164   4.283   5.657  0.4678  0.1670 -0.7182
   77SOPE   C22 6828   3.337   4.256   5.477  0.3092  0.7185 -0.2117
   77SOPE   H2R 6829   3.350   4.155   5.431  1.6303 -0.4150  2.4490
   77SOPE   H2S 6830   3.438   4.299   5.488  0.4627  0.4215 -0.4616
   77SOPE    C3 6831   3.480   4.326   5.882  0.3078  1.1887  0.0304
   77SOPE    HX 6832   3.573   4.268   5.868 -0.5441  0.2271 -2.1228
   77SOPE    HY 6833   3.471   4.349   5.991 -0.3516  0.2234  0.1931
   77SOPE   O31 6834   3.490   4.445   5.805 -0.2895  0.4746  0.2876
   77SOPE   C31 6835   3.406   4.550   5.833  0.7930 -0.5373 -0.4187
   77SOPE   O32 6836   3.304   4.544   5.895 -0.2241  0.0408  0.0615
   77SOPE   C32 6837   3.452   4.675   5.753 -0.0089  0.3631  0.2941
   77SOPE   H2X 6838   3.537   4.720   5.808  2.0832 -3.2266  0.3361
   77SOPE   H2Y 6839   3.361   4.739   5.749  0.5887  1.1909 -1.7893
   77SOPE   C23 6840   3.252   4.348   5.389  0.4906 -0.2097 -0.7631
   77SOPE   H3R 6841   3.264   4.447   5.439 -1.4502 -0.0507 -0.5463
   77SOPE   H3S 6842   3.147   4.313   5.382  0.5596 -0.1806 -2.2543
   77SOPE   C24 6843   3.318   4.342   5.250 -0.7193 -0.5034 -0.3963
   77SOPE   H4R 6844   3.426   4.361   5.268 -0.8021  0.7668 -1.0977
   77SOPE   H4S 6845   3.329   4.239   5.210  1.7555 -0.5493  0.2599
   77SOPE   C25 6846   3.270   4.446   5.150 -0.4478  0.5709 -0.4395
   77SOPE   H5R 6847   3.172   4.410   5.111 -0.4867 -0.0995  0.2459
   77SOPE   H5S 6848   3.257   4.547   5.194  3.8462  1.4010 -0.6233
   77SOPE   C26 6849   3.368   4.452   5.026 -0.7174  0.1075 -0.1248
   77SOPE   H6R 6850   3.470   4.477   5.063 -0.4231 -0.1306 -0.7720
   77SOPE   H6S 6851   3.365   4.351   4.981 -4.0629 -0.0560  0.2246
   77SOPE   C27 6852   3.325   4.557   4.920 -0.5346  0.1207  0.1240
   77SOPE   H7R 6853   3.215   4.552   4.917 -0.4501 -1.9817 -1.7223
   77SOPE   H7S 6854   3.360   4.658   4.950  0.0480 -0.0380  0.0048
   77SOPE   C28 6855   3.377   4.521   4.777 -0.2787 -0.2246  0.2531
   77SOPE   H8R 6856   3.366   4.611   4.712 -1.7191 -0.1242  0.6166
   77SOPE   H8S 6857   3.487   4.509   4.791 -0.4386  0.2887  2.4734
   77SOPE   C29 6858   3.312   4.406   4.712 -0.0926  0.3163 -0.0115
   77SOPE   H91 6859   3.307   4.310   4.767 -0.9553 -0.5819 -1.5770
   77SOPE  C210 6860   3.239   4.394   4.602 -0.3609 -0.4807 -0.0932
   77SOPE  H101 6861   3.200   4.295   4.576  0.6692 -1.1999  1.0390
   77SOPE  C211 6862   3.215   4.495   4.494  0.1842  0.8139 -0.0879
   77SOPE  H11R 6863   3.299   4.496   4.421 -0.0535  1.6160 -0.3578
   77SOPE  H11S 6864   3.212   4.598   4.536  2.3562 -0.4528  3.6405
   77SOPE  C212 6865   3.086   4.477   4.408 -0.3655 -0.2596  0.3689
   77SOPE  H12R 6866   2.998   4.495   4.472  1.4706  0.5120  2.8077
   77SOPE  H12S 6867   3.073   4.378   4.359  2.7797 -0.1845 -0.8668
   77SOPE  C213 6868   3.086   4.589   4.299  0.1710  0.2489  0.7226
   77SOPE  H13R 6869   3.110   4.688   4.344 -0.3327 -0.0091  1.5816
   77SOPE  H13S 6870   2.980   4.599   4.268  0.6652  0.6368 -0.9698
   77SOPE  C214 6871   3.171   4.563   4.177 -0.7030  0.0303  0.7357
   77SOPE  H14R 6872   3.155   4.463   4.130  0.1272 -0.3265  1.1825
   77SOPE  H14S 6873   3.279   4.573   4.202 -1.2065  2.2340  2.2607
   77SOPE  C215 6874   3.146   4.661   4.061 -0.3780  0.0452  0.2650
   77SOPE  H15R 6875   3.199   4.754   4.090  2.2314 -0.7110 -1.7597
   77SOPE  H15S 6876   3.036   4.675   4.064 -0.4923  0.5006 -2.8422
   77SOPE  C216 6877   3.187   4.612   3.920  0.2200 -0.4199 -0.0827
   77SOPE  H16R 6878   3.154   4.683   3.841 -0.5695  1.0788  1.5295
   77SOPE  H16S 6879   3.128   4.520   3.902  1.1835 -1.8435  3.2222
   77SOPE  C217 6880   3.335   4.583   3.898  0.2147 -0.4719  0.5442
   77SOPE  H17R 6881   3.378   4.496   3.953 -2.2777 -3.2024 -1.4916
   77SOPE  H17S 6882   3.385   4.673   3.938 -0.7952 -0.2220  1.3015
   77SOPE  C218 6883   3.361   4.560   3.745 -1.0316 -0.5222 -0.0464
   77SOPE  H18R 6884   3.298   4.473   3.718 -2.4023  0.4633 -0.1127
   77SOPE  H18S 6885   3.469   4.564   3.718 -0.3229  0.3594  2.5667
   77SOPE  H18T 6886   3.322   4.642   3.682 -0.8307  0.5986  1.2370
   77SOPE   C33 6887   3.488   4.641   5.606 -0.5826  0.3154 -0.0567
   77SOPE   H3X 6888   3.405   4.595   5.547 -1.5605  0.0694  1.4290
   77SOPE   H3Y 6889   3.572   4.570   5.622 -0.0328  0.5433 -1.7725
   77SOPE   C34 6890   3.551   4.759   5.528  0.0082 -0.6217  0.7968
   77SOPE   H4X 6891   3.619   4.809   5.601 -1.5338  1.6720  0.7635
   77SOPE   H4Y 6892   3.473   4.832   5.498 -0.4794 -0.7883  1.6479
   77SOPE   C35 6893   3.623   4.711   5.397  0.0100  0.5718  0.2465
   77SOPE   H5X 6894   3.546   4.660   5.335  3.0428 -1.2317 -2.2804
   77SOPE   H5Y 6895   3.703   4.642   5.430  0.7800  1.8092  1.0985
   77SOPE   C36 6896   3.684   4.829   5.322  0.5668  0.1569  0.1837
   77SOPE   H6X 6897   3.745   4.881   5.399 -0.6857 -2.3715  3.1421
   77SOPE   H6Y 6898   3.593   4.890   5.300  0.4775  0.0721  0.3148
   77SOPE   C37 6899   3.762   4.795   5.197 -0.4964  0.5225  0.5257
   77SOPE   H7X 6900   3.824   4.705   5.214  0.4864  1.0371 -0.1648
   77SOPE   H7Y 6901   3.839   4.875   5.189 -1.9338  1.9276  0.2744
   77SOPE   C38 6902   3.688   4.793   5.064  0.4155  0.2456  0.0948
   77SOPE   H8X 6903   3.678   4.899   5.032  1.1471  1.3113  3.0494
   77SOPE   H8Y 6904   3.591   4.739   5.072  1.2606 -1.1195  1.5606
   77SOPE   C39 6905   3.772   4.739   4.955 -0.2442  0.7742  0.2287
   77SOPE   H9X 6906   3.777   4.631   4.979  2.4949  0.8677  0.4154
   77SOPE   H9Y 6907   3.876   4.778   4.959 -0.1197  0.3364  2.2825
   77SOPE  C310 6908   3.710   4.750   4.814  1.0993  0.2404  0.1603
   77SOPE  H10X 6909   3.700   4.857   4.788  3.1182  1.0226  2.2524
   77SOPE  H10Y 6910   3.610   4.703   4.820  1.5276 -0.8136 -0.5512
   77SOPE  C311 6911   3.779   4.677   4.694 -0.4423  0.7794  0.2533
   77SOPE  H11X 6912   3.784   4.575   4.737  0.1478 -0.1760 -1.9536
   77SOPE  H11Y 6913   3.879   4.720   4.671  1.2261 -2.0433  1.7730
   77SOPE  C312 6914   3.706   4.665   4.554 -0.0873  0.5094 -0.0559
   77SOPE  H12X 6915   3.698   4.766   4.507  0.5379  1.0718  0.9970
   77SOPE  H12Y 6916   3.602   4.636   4.582 -0.2434  1.5606  0.5095
   77SOPE  C313 6917   3.783   4.576   4.457 -0.5891 -0.2676  0.7958
   77SOPE  H13X 6918   3.818   4.487   4.513  0.1252 -0.3824  0.1894
   77SOPE  H13Y 6919   3.876   4.633   4.435 -0.3083 -0.7481  0.7286
   77SOPE  C314 6920   3.699   4.535   4.337  0.3597 -0.0233 -0.0766
   77SOPE  H14X 6921   3.637   4.619   4.299 -0.1069  0.1900  1.1046
   77SOPE  H14Y 6922   3.627   4.455   4.365 -0.7001  1.4213  1.6134
   77SOPE  C315 6923   3.780   4.473   4.220  0.1382 -0.2963  0.6994
   77SOPE  H15X 6924   3.839   4.387   4.260  0.9294 -0.2164 -0.2773
   77SOPE  H15Y 6925   3.847   4.558   4.198 -0.2668 -0.2041 -0.1962
   77SOPE  C316 6926   3.699   4.427   4.098 -0.0527 -0.2689  0.0916
   77SOPE  H16X 6927   3.668   4.513   4.035  0.2670 -0.8742 -0.9215
   77SOPE  H16Y 6928   3.605   4.374   4.125 -0.3571  0.3761  0.3078
   77SOPE  C317 6929   3.783   4.339   4.002 -0.6648 -0.4865 -0.8215
   77SOPE  H17X 6930   3.801   4.255   4.072 -1.1588  0.4429  0.4618
   77SOPE  H17Y 6931   3.874   4.394   3.969 -0.7676 -0.0982 -0.4809
   77SOPE  C318 6932   3.703   4.290   3.882  0.4769  0.0768 -0.2154
   77SOPE  H18X 6933   3.611   4.237   3.914  1.8666 -2.5548 -0.3109
   77SOPE  H18Y 6934   3.755   4.210   3.824  1.3108 -1.0212  1.9277
   77SOPE  H18Z 6935   3.681   4.371   3.809  1.3507 -1.6865 -2.5708
   78SOPE     N 6936   1.934   4.254   6.267 -0.2450 -0.4156 -0.5568
   78SOPE   HN1 6937   1.881   4.299   6.345  0.0984 -0.1792 -0.4579
   78SOPE   HN2 6938   1.980   4.164   6.293  0.6581  0.2503  0.2366
   78SOPE   HN3 6939   2.005   4.324   6.236 -0.3657  1.3289  2.7053
   78SOPE   C12 6940   1.851   4.231   6.137  0.0072 -0.0541 -0.2937
   78SOPE  H12A 6941   1.790   4.324   6.126 -3.2849 -1.9548  0.5553
   78SOPE  H12B 6942   1.785   4.145   6.161  0.4685 -0.1741  0.5467
   78SOPE   C11 6943   1.947   4.199   6.027  0.1075  0.3110 -1.0951
   78SOPE  H11A 6944   2.015   4.284   6.007  2.9751 -2.0407 -2.1988
   78SOPE  H11B 6945   1.890   4.183   5.933 -1.7697  1.2623 -0.1649
   78SOPE     P 6946   2.148   4.033   5.985 -0.1133 -0.0825 -0.4014
   78SOPE   O13 6947   2.165   3.885   5.981  0.0923 -0.3390 -0.3139
   78SOPE   O14 6948   2.267   4.106   6.042  0.6896  0.0999  0.5080
   78SOPE   O12 6949   2.020   4.078   6.059 -0.8022 -0.0164  0.1843
   78SOPE   O11 6950   2.119   4.079   5.841 -0.0407  0.1918  0.5909
   78SOPE    C1 6951   2.210   4.142   5.751 -0.0245  0.2996 -0.4083
   78SOPE    HA 6952   2.184   4.120   5.645  0.2824  1.4394 -0.7239
   78SOPE    HB 6953   2.309   4.093   5.763 -0.9406 -0.9862  3.4764
   78SOPE    C2 6954   2.213   4.296   5.776 -0.7766 -0.1279 -0.1523
   78SOPE    HS 6955   2.232   4.313   5.884  2.1734  0.0044 -0.6020
   78SOPE   O21 6956   2.075   4.334   5.738 -0.9857  0.2419 -0.6337
   78SOPE   C21 6957   2.043   4.457   5.776 -0.2033  0.4764  0.1737
   78SOPE   O22 6958   2.123   4.539   5.822  0.2113  0.1419  0.3760
   78SOPE   C22 6959   1.892   4.465   5.765  0.7412  0.3068  0.3638
   78SOPE   H2R 6960   1.851   4.495   5.864  0.8184  1.4729  0.0490
   78SOPE   H2S 6961   1.863   4.363   5.731  1.7011  0.0578  0.2718
   78SOPE    C3 6962   2.327   4.360   5.695 -0.1754  0.6730 -0.2853
   78SOPE    HX 6963   2.424   4.349   5.749 -0.2590  0.9891 -0.0680
   78SOPE    HY 6964   2.309   4.469   5.692 -1.6818  0.4500 -0.2306
   78SOPE   O31 6965   2.326   4.310   5.563 -0.1344  0.5490  0.3867
   78SOPE   C31 6966   2.436   4.338   5.495  0.4755  0.1800  0.0631
   78SOPE   O32 6967   2.539   4.392   5.539  0.3093 -0.4002 -0.4716
   78SOPE   C32 6968   2.421   4.304   5.344  0.4813  0.9385 -0.0226
   78SOPE   H2X 6969   2.330   4.240   5.344  0.4283  0.9984  0.9833
   78SOPE   H2Y 6970   2.509   4.241   5.317 -1.0206 -1.8429  1.1656
   78SOPE   C23 6971   1.843   4.554   5.657  0.2196  0.2018  0.9375
   78SOPE   H3R 6972   1.896   4.651   5.661  3.3393 -1.3700  1.1556
   78SOPE   H3S 6973   1.736   4.572   5.679  0.3041  1.2041  0.5530
   78SOPE   C24 6974   1.844   4.501   5.515  0.2055 -0.1809 -0.5289
   78SOPE   H4R 6975   1.928   4.429   5.510  0.8207  0.4710  0.1981
   78SOPE   H4S 6976   1.750   4.445   5.496  0.0626 -0.1044 -0.0466
   78SOPE   C25 6977   1.856   4.604   5.395 -1.3304  0.8260  0.2202
   78SOPE   H5R 6978   1.751   4.637   5.381 -1.2056  0.5707 -1.5416
   78SOPE   H5S 6979   1.921   4.684   5.435 -2.3616  0.9563  1.7064
   78SOPE   C26 6980   1.910   4.536   5.271 -0.1903  0.1466  0.6921
   78SOPE   H6R 6981   1.931   4.605   5.186  0.8260 -2.0553 -0.9378
   78SOPE   H6S 6982   2.001   4.479   5.299 -0.1469  0.2069  0.6728
   78SOPE   C27 6983   1.805   4.431   5.216 -0.4265  0.3044 -0.1802
   78SOPE   H7R 6984   1.856   4.352   5.156 -2.7157 -0.4831 -1.1816
   78SOPE   H7S 6985   1.756   4.367   5.291  1.5177  0.3194  1.1799
   78SOPE   C28 6986   1.703   4.494   5.117  0.6791  0.3658  0.5997
   78SOPE   H8R 6987   1.656   4.574   5.180  1.4111  1.4103 -0.1511
   78SOPE   H8S 6988   1.769   4.530   5.036 -1.5366 -0.9175 -1.9057
   78SOPE   C29 6989   1.615   4.384   5.069  0.7976 -0.2154 -0.0052
   78SOPE   H91 6990   1.664   4.320   4.994 -0.0548 -0.0027 -0.7592
   78SOPE  C210 6991   1.488   4.355   5.115  0.0766  0.1444  0.2767
   78SOPE  H101 6992   1.437   4.266   5.074 -1.2791  1.9515 -2.2053
   78SOPE  C211 6993   1.413   4.428   5.230  0.2972 -0.4923  0.1170
   78SOPE  H11R 6994   1.313   4.466   5.202  0.5123  0.9054  1.1333
   78SOPE  H11S 6995   1.473   4.514   5.265 -0.3679  0.1575 -0.3212
   78SOPE  C212 6996   1.394   4.329   5.353 -0.3124 -0.3038  0.2905
   78SOPE  H12R 6997   1.497   4.294   5.372  1.6097  3.8825 -1.2191
   78SOPE  H12S 6998   1.324   4.253   5.312 -0.3030  0.4214 -1.1436
   78SOPE  C213 6999   1.335   4.402   5.470  0.5404  0.5635 -0.7961
   78SOPE  H13R 7000   1.236   4.444   5.441  1.7159  1.7525 -3.4160
   78SOPE  H13S 7001   1.398   4.488   5.501  1.2073 -0.5436  1.0966
   78SOPE  C214 7002   1.331   4.312   5.594 -0.0521  0.0573  0.3397
   78SOPE  H14R 7003   1.252   4.234   5.589 -2.7797  2.7099 -2.0099
   78SOPE  H14S 7004   1.296   4.378   5.676  0.9569  3.3694 -1.6814
   78SOPE  C215 7005   1.469   4.244   5.638  0.1693  0.0510  0.2735
   78SOPE  H15R 7006   1.556   4.312   5.618 -0.1746  0.2068 -0.7746
   78SOPE  H15S 7007   1.489   4.154   5.576 -0.4031  2.1639 -3.2582
   78SOPE  C216 7008   1.481   4.207   5.787  0.7957 -0.2041 -0.3598
   78SOPE  H16R 7009   1.399   4.139   5.819  1.0596 -1.1926 -1.6987
   78SOPE  H16S 7010   1.471   4.301   5.846 -0.2781 -1.2974  1.2810
   78SOPE  C217 7011   1.609   4.133   5.823 -0.6030 -0.2562 -0.1361
   78SOPE  H17R 7012   1.682   4.216   5.835 -2.1705  1.1798 -0.0346
   78SOPE  H17S 7013   1.635   4.073   5.733 -1.9325 -0.3202 -0.5055
   78SOPE  C218 7014   1.610   4.050   5.952  0.1658 -0.2569  0.0211
   78SOPE  H18R 7015   1.570   4.109   6.037  0.0889 -0.1467 -0.0909
   78SOPE  H18S 7016   1.711   4.013   5.980  0.8960  0.4366 -1.5545
   78SOPE  H18T 7017   1.538   3.967   5.930 -1.5538  0.2920  3.0317
   78SOPE   C33 7018   2.417   4.428   5.250  0.3243 -0.1648  0.1806
   78SOPE   H3X 7019   2.518   4.475   5.246 -0.8303  2.3913 -1.1099
   78SOPE   H3Y 7020   2.360   4.516   5.285 -0.8096 -0.4983 -0.7610
   78SOPE   C34 7021   2.361   4.385   5.115  0.1357  0.1623 -1.0680
   78SOPE   H4X 7022   2.303   4.472   5.078 -0.8487 -0.4297 -0.9512
   78SOPE   H4Y 7023   2.285   4.305   5.124 -0.0352 -0.1239 -4.1040
   78SOPE   C35 7024   2.476   4.355   5.017  0.6384  0.2042  0.2046
   78SOPE   H5X 7025   2.525   4.256   5.035 -0.3951 -0.5063 -0.7348
   78SOPE   H5Y 7026   2.559   4.429   5.019  0.5334  0.3096  0.5998
   78SOPE   C36 7027   2.416   4.366   4.877  0.3396  1.0284 -0.3852
   78SOPE   H6X 7028   2.374   4.465   4.846  2.0075  1.8622 -0.0756
   78SOPE   H6Y 7029   2.333   4.293   4.862 -0.0328  1.5101 -0.7275
   78SOPE   C37 7030   2.517   4.327   4.768  0.1309  0.7707  0.2758
   78SOPE   H7X 7031   2.533   4.217   4.780  3.6924  0.9411 -1.5918
   78SOPE   H7Y 7032   2.610   4.387   4.778  0.5496  0.5818 -1.9082
   78SOPE   C38 7033   2.461   4.368   4.629 -0.1123 -0.6179 -0.6530
   78SOPE   H8X 7034   2.447   4.478   4.625 -0.2996 -0.5500  1.0595
   78SOPE   H8Y 7035   2.369   4.310   4.608  0.1921 -1.8984  1.2212
   78SOPE   C39 7036   2.556   4.345   4.519  0.2324 -0.4108 -0.0345
   78SOPE   H9X 7037   2.588   4.238   4.510  1.7622 -0.1495  1.6963
   78SOPE   H9Y 7038   2.655   4.390   4.543  2.5085 -4.1082 -1.5234
   78SOPE  C310 7039   2.513   4.391   4.379  0.2486  0.4382  0.6374
   78SOPE  H10X 7040   2.469   4.493   4.370 -1.9846 -0.3851  1.5203
   78SOPE  H10Y 7041   2.440   4.315   4.345  1.9502 -0.4661 -1.1765
   78SOPE  C311 7042   2.633   4.382   4.288  0.5729  0.4894 -0.9139
   78SOPE  H11X 7043   2.667   4.277   4.280 -0.2148  0.1561  0.0274
   78SOPE  H11Y 7044   2.718   4.437   4.334 -1.2336  3.3694 -0.7873
   78SOPE  C312 7045   2.606   4.431   4.148 -0.2058 -0.5437 -0.0332
   78SOPE  H12X 7046   2.561   4.533   4.149 -2.8403 -1.5579 -2.3828
   78SOPE  H12Y 7047   2.525   4.379   4.093  1.1499 -0.9747 -1.7003
   78SOPE  C313 7048   2.718   4.430   4.051  0.0307 -0.7761  0.2552
   78SOPE  H13X 7049   2.806   4.485   4.092 -0.6535 -0.6529  1.6506
   78SOPE  H13Y 7050   2.695   4.478   3.953  2.2325 -1.0786 -0.4556
   78SOPE  C314 7051   2.770   4.291   4.013  0.1875  0.1168  0.3706
   78SOPE  H14X 7052   2.687   4.239   3.960  0.8624 -2.8250  1.9560
   78SOPE  H14Y 7053   2.792   4.226   4.101 -0.5032 -1.8425 -0.8308
   78SOPE  C315 7054   2.894   4.296   3.926 -0.2598 -0.1450 -0.1150
   78SOPE  H15X 7055   2.972   4.318   4.002  0.0319 -2.8933  0.4976
   78SOPE  H15Y 7056   2.886   4.377   3.851 -0.0285  0.1371  0.1669
   78SOPE  C316 7057   2.938   4.172   3.853 -0.4838 -0.0370 -0.4108
   78SOPE  H16X 7058   2.856   4.130   3.791 -0.1282 -1.8011  0.2636
   78SOPE  H16Y 7059   2.971   4.089   3.919 -1.6584  0.0321  0.2979
   78SOPE  C317 7060   3.043   4.192   3.745  0.2051 -0.9545 -0.5898
   78SOPE  H17X 7061   3.080   4.092   3.711 -0.3283 -0.8545 -1.5141
   78SOPE  H17Y 7062   3.135   4.246   3.775  0.9819 -2.2203 -0.5878
   78SOPE  C318 7063   2.978   4.253   3.621 -0.2406 -0.6274 -0.1671
   78SOPE  H18X 7064   2.925   4.179   3.556  1.7334 -1.0311 -1.3916
   78SOPE  H18Y 7065   3.052   4.291   3.548 -0.7049  0.5533 -0.0445
   78SOPE  H18Z 7066   2.912   4.338   3.648  2.2448  1.6633 -0.9185
   79SOPE     N 7067   4.244   1.253   6.002 -0.4315  0.1193  0.2772
   79SOPE   HN1 7068   4.333   1.205   6.027 -1.6424 -2.2167  0.2850
   79SOPE   HN2 7069   4.171   1.217   6.066  0.5998  2.4322  2.9591
   79SOPE   HN3 7070   4.228   1.229   5.902 -1.1212  0.5770  0.2744
   79SOPE   C12 7071   4.243   1.393   6.042  0.5481  0.8997  0.6462
   79SOPE  H12A 7072   4.317   1.450   5.981  0.7403  0.8132  0.7986
   79SOPE  H12B 7073   4.268   1.398   6.150  0.9636 -1.2284  0.6830
   79SOPE   C11 7074   4.105   1.456   6.025  0.3463  0.4540 -0.2788
   79SOPE  H11A 7075   4.066   1.448   5.922 -0.8792  0.3378  0.1815
   79SOPE  H11B 7076   4.118   1.562   6.056  0.5145 -0.1365  1.8544
   79SOPE     P 7077   3.893   1.457   6.186 -0.2338  0.2358 -0.2250
   79SOPE   O13 7078   3.946   1.510   6.314 -0.0578 -0.4326 -0.1331
   79SOPE   O14 7079   3.787   1.358   6.184  0.1766  0.0305  0.3304
   79SOPE   O12 7080   4.015   1.394   6.110 -0.0655  0.1820  1.0067
   79SOPE   O11 7081   3.860   1.581   6.096  0.4614  0.4291  0.3498
   79SOPE    C1 7082   3.752   1.568   5.991  0.0367 -0.1453  0.2929
   79SOPE    HA 7083   3.653   1.565   6.040  0.0804  0.9417  0.4621
   79SOPE    HB 7084   3.773   1.481   5.925  0.3096 -1.2557  1.7956
   79SOPE    C2 7085   3.744   1.698   5.911  0.7957 -0.1046 -0.0784
   79SOPE    HS 7086   3.654   1.697   5.846 -1.4857  1.6374  2.7913
   79SOPE   O21 7087   3.865   1.721   5.838 -0.6243 -0.3492  0.4586
   79SOPE   C21 7088   3.884   1.638   5.740 -0.1878  0.0707  0.4199
   79SOPE   O22 7089   3.797   1.569   5.689  0.0589 -0.1343 -0.6447
   79SOPE   C22 7090   4.018   1.667   5.678 -0.5712  0.0191  0.2562
   79SOPE   H2R 7091   4.081   1.576   5.680 -1.4910 -0.6262  1.4982
   79SOPE   H2S 7092   4.067   1.744   5.741  1.2137  0.3760 -1.4801
   79SOPE    C3 7093   3.695   1.810   6.013  0.0829  0.1694  0.1040
   79SOPE    HX 7094   3.775   1.821   6.088  0.3431  1.7921 -0.3672
   79SOPE    HY 7095   3.593   1.785   6.050  0.1688  0.5155  0.5770
   79SOPE   O31 7096   3.683   1.937   5.941 -0.1565  0.0963  0.0438
   79SOPE   C31 7097   3.802   2.006   5.930  0.3782  0.0146  0.7806
   79SOPE   O32 7098   3.901   1.994   5.995  0.3367 -0.1644 -0.2382
   79SOPE   C32 7099   3.798   2.108   5.813 -0.2134 -0.2774  0.3171
   79SOPE   H2X 7100   3.869   2.183   5.854 -0.8783 -0.2378  1.4129
   79SOPE   H2Y 7101   3.694   2.149   5.815  0.7136  2.3171 -0.3008
   79SOPE   C23 7102   4.019   1.715   5.531 -0.0293  0.1119  0.8036
   79SOPE   H3R 7103   4.122   1.747   5.501  0.1780 -1.8042 -0.7963
   79SOPE   H3S 7104   3.953   1.804   5.527  0.0706  0.1552 -0.4211
   79SOPE   C24 7105   3.970   1.612   5.427 -0.2160  0.2540 -0.4306
   79SOPE   H4R 7106   4.039   1.525   5.432  0.6626  1.0087  1.3259
   79SOPE   H4S 7107   3.863   1.585   5.436 -0.2793  0.2247 -1.1948
   79SOPE   C25 7108   3.991   1.666   5.286 -0.0534 -0.3124  0.2871
   79SOPE   H5R 7109   3.957   1.589   5.212  3.3948 -2.3821  0.6525
   79SOPE   H5S 7110   3.935   1.759   5.264  0.6143  0.3807  1.4480
   79SOPE   C26 7111   4.149   1.678   5.251  0.1207  0.5438 -0.5944
   79SOPE   H6R 7112   4.184   1.775   5.293 -1.8332 -0.0637  2.8673
   79SOPE   H6S 7113   4.197   1.599   5.312 -0.9969 -0.8031 -1.3980
   79SOPE   C27 7114   4.179   1.657   5.104  0.2280 -1.0066 -1.0491
   79SOPE   H7R 7115   4.286   1.627   5.098  0.8005  0.6731 -0.0167
   79SOPE   H7S 7116   4.112   1.581   5.058 -0.3691 -0.2724 -1.4022
   79SOPE   C28 7117   4.168   1.784   5.012  0.0077 -0.2844 -0.2610
   79SOPE   H8R 7118   4.070   1.833   5.025  0.4159  0.9105 -1.4948
   79SOPE   H8S 7119   4.247   1.849   5.054  0.4833 -1.3218  0.5102
   79SOPE   C29 7120   4.189   1.759   4.862  0.6910  0.4769 -0.6360
   79SOPE   H91 7121   4.136   1.672   4.821 -0.0683 -0.4722  2.1574
   79SOPE  C210 7122   4.264   1.836   4.780 -0.1232 -0.2299  0.0303
   79SOPE  H101 7123   4.267   1.819   4.671  2.4794 -1.0913  0.1778
   79SOPE  C211 7124   4.337   1.964   4.817  0.2671  0.4927 -0.2018
   79SOPE  H11R 7125   4.293   1.997   4.913 -0.5764  1.8355 -1.0196
   79SOPE  H11S 7126   4.323   2.048   4.745  0.3789  0.0996 -0.6895
   79SOPE  C212 7127   4.490   1.947   4.832 -0.1441  0.0920  0.4886
   79SOPE  H12R 7128   4.526   2.049   4.854 -0.6646  0.5501 -0.6794
   79SOPE  H12S 7129   4.536   1.920   4.735 -0.1091 -0.4523  0.6525
   79SOPE  C213 7130   4.553   1.855   4.940  0.1242  0.1720  0.4764
   79SOPE  H13R 7131   4.664   1.854   4.932  0.2539 -1.5063  1.9374
   79SOPE  H13S 7132   4.521   1.753   4.912 -0.7050  0.5103  0.1324
   79SOPE  C214 7133   4.523   1.911   5.077  0.0577 -0.1656 -0.3825
   79SOPE  H14R 7134   4.424   1.960   5.068 -0.0088 -0.5091 -1.8220
   79SOPE  H14S 7135   4.594   1.995   5.091  1.2620 -1.2423  0.1651
   79SOPE  C215 7136   4.558   1.817   5.192 -0.3032 -0.3774  0.3431
   79SOPE  H15R 7137   4.666   1.794   5.183  0.0751  0.2995  2.6176
   79SOPE  H15S 7138   4.501   1.725   5.166 -0.6913  0.0639 -0.4050
   79SOPE  C216 7139   4.530   1.881   5.327 -0.2521 -0.4202  0.5683
   79SOPE  H16R 7140   4.421   1.882   5.350 -0.2995 -2.7332  0.6213
   79SOPE  H16S 7141   4.569   1.985   5.327  2.1870 -1.2323 -1.0968
   79SOPE  C217 7142   4.591   1.795   5.438  0.0630  0.1415  0.4317
   79SOPE  H17R 7143   4.590   1.865   5.525  3.0785  2.0776 -0.9272
   79SOPE  H17S 7144   4.696   1.769   5.411 -0.7636  0.4952 -3.6866
   79SOPE  C218 7145   4.507   1.663   5.467  0.3542 -0.3439  0.2338
   79SOPE  H18R 7146   4.501   1.599   5.377 -0.0668  1.8631 -1.3975
   79SOPE  H18S 7147   4.403   1.699   5.482  0.0691 -0.5276 -1.2038
   79SOPE  H18T 7148   4.545   1.604   5.553  0.3501 -3.3282 -1.6437
   79SOPE   C33 7149   3.832   2.042   5.679 -0.4468 -0.1830 -0.0840
   79SOPE   H3X 7150   3.898   1.953   5.686  0.2545  0.2871 -0.6614
   79SOPE   H3Y 7151   3.882   2.124   5.622 -0.5638 -0.5399 -0.7176
   79SOPE   C34 7152   3.709   2.010   5.595  0.0425 -0.0243  0.0343
   79SOPE   H4X 7153   3.627   2.077   5.627 -1.5720 -0.8065 -2.2166
   79SOPE   H4Y 7154   3.678   1.907   5.621  2.6364 -0.1402  3.2915
   79SOPE   C35 7155   3.738   2.020   5.442 -0.2099  0.2797  0.7665
   79SOPE   H5X 7156   3.813   1.941   5.420 -0.0056  0.3958  1.0377
   79SOPE   H5Y 7157   3.779   2.118   5.408 -0.5932 -0.4848 -2.2092
   79SOPE   C36 7158   3.609   2.006   5.360  0.2169 -0.4867  0.5653
   79SOPE   H6X 7159   3.538   2.091   5.373 -2.1674 -2.2103 -0.5465
   79SOPE   H6Y 7160   3.562   1.911   5.392 -2.0705  0.1635 -0.6440
   79SOPE   C37 7161   3.645   1.981   5.208 -0.1670 -0.1166  0.0069
   79SOPE   H7X 7162   3.701   1.885   5.205 -2.1613 -1.3554 -3.9294
   79SOPE   H7Y 7163   3.714   2.059   5.169  0.0156 -1.1150 -1.7735
   79SOPE   C38 7164   3.516   1.957   5.134 -0.1504  0.8311 -0.5430
   79SOPE   H8X 7165   3.447   2.044   5.139 -3.0395 -1.3632  2.7301
   79SOPE   H8Y 7166   3.455   1.870   5.166  1.4280 -0.0099  0.3324
   79SOPE   C39 7167   3.557   1.922   4.988  0.4336 -0.3055 -0.2729
   79SOPE   H9X 7168   3.617   1.829   4.986  1.3779  0.2162  1.4757
   79SOPE   H9Y 7169   3.626   1.998   4.946  1.7803 -2.2640 -1.7777
   79SOPE  C310 7170   3.445   1.914   4.888  0.1299 -0.4542 -0.5170
   79SOPE  H10X 7171   3.397   2.014   4.896  0.2422 -0.2020 -2.5963
   79SOPE  H10Y 7172   3.382   1.833   4.930  1.5609 -1.3617 -0.0154
   79SOPE  C311 7173   3.500   1.890   4.751  0.5770 -0.2348 -0.6262
   79SOPE  H11X 7174   3.567   1.801   4.763  0.9309  0.1831  0.7295
   79SOPE  H11Y 7175   3.577   1.963   4.719  0.1173  0.1283 -0.9192
   79SOPE  C312 7176   3.393   1.875   4.646  0.1210  0.2323 -0.2665
   79SOPE  H12X 7177   3.313   1.952   4.655 -0.5941 -0.1833 -2.3676
   79SOPE  H12Y 7178   3.356   1.774   4.673 -0.1798  0.8098  1.6303
   79SOPE  C313 7179   3.440   1.880   4.496 -0.4026  0.0026  0.2784
   79SOPE  H13X 7180   3.503   1.969   4.472 -2.6926  1.1458 -1.9836
   79SOPE  H13Y 7181   3.348   1.886   4.435 -1.1971 -1.5489  1.2493
   79SOPE  C314 7182   3.517   1.751   4.458  0.4319 -0.4596 -0.1703
   79SOPE  H14X 7183   3.507   1.753   4.347  1.0004  2.3945 -0.2387
   79SOPE  H14Y 7184   3.460   1.661   4.490 -0.9872 -0.1926 -1.7849
   79SOPE  C315 7185   3.664   1.750   4.487  0.2574 -0.2175 -0.9905
   79SOPE  H15X 7186   3.680   1.736   4.596 -1.8027 -0.0110 -0.6389
   79SOPE  H15Y 7187   3.709   1.844   4.448 -1.8539  1.5672  0.6349
   79SOPE  C316 7188   3.745   1.636   4.418  0.1404  0.3129 -1.0889
   79SOPE  H16X 7189   3.768   1.655   4.311 -1.1200 -0.8900 -1.6077
   79SOPE  H16Y 7190   3.670   1.555   4.406  0.1290  0.0343  0.5578
   79SOPE  C317 7191   3.870   1.593   4.493 -0.0335 -0.4161  0.0197
   79SOPE  H17X 7192   3.844   1.553   4.594  1.3521 -2.7473 -0.4786
   79SOPE  H17Y 7193   3.930   1.686   4.505 -1.9029  0.9921 -0.8898
   79SOPE  C318 7194   3.964   1.486   4.429  0.7419 -0.0276  0.7082
   79SOPE  H18X 7195   3.906   1.393   4.411 -0.0646  0.8358 -1.6617
   79SOPE  H18Y 7196   4.053   1.461   4.490  0.3485 -2.3297  0.4248
   79SOPE  H18Z 7197   3.990   1.528   4.329 -1.2191 -0.8086 -0.1778
   80SOPE     N 7198   2.202   5.199   6.249 -0.5963 -0.4087 -0.1713
   80SOPE   HN1 7199   2.146   5.230   6.167 -2.7393  1.5375  1.8602
   80SOPE   HN2 7200   2.136   5.180   6.328  1.1764  2.5487  2.2427
   80SOPE   HN3 7201   2.255   5.286   6.270 -0.1702 -0.2974 -1.6294
   80SOPE   C12 7202   2.304   5.094   6.216  0.1405  0.0930  0.2184
   80SOPE  H12A 7203   2.293   5.068   6.109 -1.9690 -0.0381  0.4153
   80SOPE  H12B 7204   2.285   5.005   6.280  1.4378  0.9377  1.8532
   80SOPE   C11 7205   2.452   5.138   6.226 -0.8952 -0.2651  0.5158
   80SOPE  H11A 7206   2.515   5.073   6.161 -0.0902  1.3822 -0.4304
   80SOPE  H11B 7207   2.483   5.106   6.327 -1.2812 -0.5853  0.5343
   80SOPE     P 7208   2.625   5.327   6.157  0.2389  0.6303 -0.0519
   80SOPE   O13 7209   2.717   5.254   6.252 -0.1255 -0.3496 -0.7718
   80SOPE   O14 7210   2.625   5.471   6.165  0.1239 -0.0832 -0.0649
   80SOPE   O12 7211   2.476   5.270   6.189  0.6565 -0.5616 -0.3935
   80SOPE   O11 7212   2.643   5.275   6.015 -0.0173  0.0613  0.6289
   80SOPE    C1 7213   2.563   5.331   5.914  0.2209 -0.8173 -0.0812
   80SOPE    HA 7214   2.619   5.352   5.820 -2.0852 -0.2942 -1.4055
   80SOPE    HB 7215   2.535   5.435   5.940 -0.7839 -0.4433 -2.3654
   80SOPE    C2 7216   2.439   5.246   5.879  0.1536 -0.1007 -0.7826
   80SOPE    HS 7217   2.381   5.234   5.974 -0.8799  1.2046 -1.2084
   80SOPE   O21 7218   2.496   5.124   5.829  0.0384  0.1251 -0.5216
   80SOPE   C21 7219   2.414   5.021   5.827  0.3108 -0.0092 -0.0882
   80SOPE   O22 7220   2.296   5.015   5.861  0.1150 -0.0031  0.3000
   80SOPE   C22 7221   2.489   4.899   5.771 -0.5992  0.0992  0.3661
   80SOPE   H2R 7222   2.554   4.872   5.857 -0.2815  0.2859  0.1911
   80SOPE   H2S 7223   2.567   4.928   5.697 -0.6700  0.4189  0.4130
   80SOPE    C3 7224   2.351   5.311   5.772 -0.0423  0.2183  0.2003
   80SOPE    HX 7225   2.284   5.389   5.814 -1.4890 -0.0145 -1.5499
   80SOPE    HY 7226   2.293   5.223   5.736  1.3230 -1.2581  1.4476
   80SOPE   O31 7227   2.431   5.360   5.655 -0.3563 -1.1109 -0.2621
   80SOPE   C31 7228   2.382   5.461   5.588 -0.5341 -1.0309  0.3724
   80SOPE   O32 7229   2.284   5.528   5.615  0.1981  0.6913 -0.2276
   80SOPE   C32 7230   2.473   5.483   5.463  0.2962 -0.3416 -0.3392
   80SOPE   H2X 7231   2.503   5.383   5.424 -0.5719 -0.2412 -1.2920
   80SOPE   H2Y 7232   2.567   5.535   5.493  0.1319 -1.2166  1.9396
   80SOPE   C23 7233   2.419   4.774   5.728 -0.5061 -0.3796 -0.3150
   80SOPE   H3R 7234   2.338   4.745   5.798 -1.0492  1.8600  0.0618
   80SOPE   H3S 7235   2.494   4.692   5.732  1.0097  0.9675 -0.0265
   80SOPE   C24 7236   2.365   4.769   5.592 -0.1057  0.0456  0.3404
   80SOPE   H4R 7237   2.447   4.788   5.519 -0.4197  0.2491  0.0386
   80SOPE   H4S 7238   2.334   4.665   5.570 -0.7713  0.3609 -0.2594
   80SOPE   C25 7239   2.247   4.859   5.570  0.1291 -0.4964 -0.3893
   80SOPE   H5R 7240   2.182   4.841   5.659  0.7223 -2.6403 -0.3540
   80SOPE   H5S 7241   2.281   4.965   5.571 -0.1832 -0.3756  1.4133
   80SOPE   C26 7242   2.171   4.834   5.444 -0.2187 -0.1415  0.0712
   80SOPE   H6R 7243   2.156   4.726   5.423  0.8364  0.0087 -1.6356
   80SOPE   H6S 7244   2.086   4.905   5.439 -0.8642 -0.7184  1.8833
   80SOPE   C27 7245   2.250   4.875   5.318  0.4746  0.1116 -0.2819
   80SOPE   H7R 7246   2.276   4.983   5.320  0.2331  0.1789 -0.6345
   80SOPE   H7S 7247   2.339   4.808   5.321  0.9294  0.6371 -1.4199
   80SOPE   C28 7248   2.167   4.836   5.197  0.3699  0.1037  0.8044
   80SOPE   H8R 7249   2.166   4.727   5.174 -1.4321  0.4017 -0.6806
   80SOPE   H8S 7250   2.059   4.860   5.199 -0.2721 -2.3538 -0.2822
   80SOPE   C29 7251   2.222   4.897   5.069  0.7445 -0.0222 -0.7750
   80SOPE   H91 7252   2.284   4.986   5.090 -0.2656  0.9193 -1.6523
   80SOPE  C210 7253   2.216   4.854   4.945 -0.1271  0.1771  0.3460
   80SOPE  H101 7254   2.266   4.914   4.867 -0.7956 -0.9535 -1.0042
   80SOPE  C211 7255   2.163   4.724   4.893 -0.2467 -0.6878 -0.1116
   80SOPE  H11R 7256   2.123   4.658   4.973  1.5104 -0.5610  0.9162
   80SOPE  H11S 7257   2.242   4.662   4.846 -1.5714  0.4920 -4.3459
   80SOPE  C212 7258   2.053   4.737   4.792  0.5953  1.1966 -0.1809
   80SOPE  H12R 7259   2.098   4.772   4.697 -0.0835  0.2976 -0.8605
   80SOPE  H12S 7260   1.980   4.814   4.825  1.3345  2.6178 -1.7447
   80SOPE  C213 7261   1.976   4.606   4.762  0.3213  0.0938 -0.2061
   80SOPE  H13R 7262   1.890   4.637   4.700  2.1809  1.0785 -2.4455
   80SOPE  H13S 7263   1.932   4.560   4.853 -1.3744 -1.2099 -1.6258
   80SOPE  C214 7264   2.057   4.507   4.681  0.8091 -0.5503 -0.7082
   80SOPE  H14R 7265   1.996   4.415   4.683 -0.5223  0.2424 -2.1833
   80SOPE  H14S 7266   2.158   4.484   4.721  0.0519 -1.8670  0.5283
   80SOPE  C215 7267   2.077   4.538   4.536  0.0932 -0.1072  1.1532
   80SOPE  H15R 7268   2.143   4.627   4.529  0.6677 -0.5068  1.4117
   80SOPE  H15S 7269   1.978   4.568   4.495  1.3669  2.1069 -0.5251
   80SOPE  C216 7270   2.128   4.420   4.445  0.0333 -0.1477  0.6554
   80SOPE  H16R 7271   2.129   4.320   4.493  1.7199 -0.3535  0.2438
   80SOPE  H16S 7272   2.230   4.451   4.412  0.1805 -0.8690  0.4155
   80SOPE  C217 7273   2.054   4.404   4.315  0.2277 -0.5788  0.4488
   80SOPE  H17R 7274   1.947   4.410   4.344  0.7435  0.7413  2.2779
   80SOPE  H17S 7275   2.058   4.302   4.272 -0.3927 -0.7072  0.6888
   80SOPE  C218 7276   2.080   4.519   4.218  0.7436 -0.4243  0.6955
   80SOPE  H18R 7277   2.191   4.532   4.215  0.7607 -0.6732  0.1565
   80SOPE  H18S 7278   2.037   4.615   4.254  1.7240 -0.0281  0.8582
   80SOPE  H18T 7279   2.043   4.495   4.117  1.1364 -1.3462  0.7577
   80SOPE   C33 7280   2.403   5.557   5.350  0.1380 -0.2309 -0.4091
   80SOPE   H3X 7281   2.476   5.586   5.271  2.1745 -0.1641  1.3911
   80SOPE   H3Y 7282   2.359   5.648   5.395 -2.5023 -0.7193 -1.7856
   80SOPE   C34 7283   2.292   5.477   5.286  0.4351 -0.0416  0.3110
   80SOPE   H4X 7284   2.212   5.482   5.364  2.7826  2.8201  2.7758
   80SOPE   H4Y 7285   2.317   5.369   5.283 -0.7199 -0.2970 -0.5790
   80SOPE   C35 7286   2.245   5.526   5.147 -0.7781  0.3245 -0.8471
   80SOPE   H5X 7287   2.196   5.625   5.156 -3.0114 -0.5577 -2.5596
   80SOPE   H5Y 7288   2.164   5.452   5.125 -0.1104 -0.1645 -1.7344
   80SOPE   C36 7289   2.347   5.520   5.038 -0.6982 -0.2261  0.3359
   80SOPE   H6X 7290   2.404   5.425   5.049  0.1927 -0.4337 -4.1598
   80SOPE   H6Y 7291   2.424   5.600   5.045 -2.5237  1.5116  1.3257
   80SOPE   C37 7292   2.280   5.525   4.905 -0.1884 -0.7521 -0.0321
   80SOPE   H7X 7293   2.346   5.559   4.822 -2.2781  1.1325 -1.0437
   80SOPE   H7Y 7294   2.201   5.604   4.909 -0.5698 -1.1148 -0.3280
   80SOPE   C38 7295   2.205   5.401   4.859 -0.5773  0.0675  0.7269
   80SOPE   H8X 7296   2.100   5.416   4.892 -1.3885 -1.6010 -0.9060
   80SOPE   H8Y 7297   2.238   5.310   4.912  0.9565 -1.8588 -3.1527
   80SOPE   C39 7298   2.202   5.386   4.709 -0.0074  0.0947  0.2717
   80SOPE   H9X 7299   2.304   5.385   4.666  0.0501 -0.4924  0.4239
   80SOPE   H9Y 7300   2.156   5.478   4.667 -0.6713  0.6026  2.0194
   80SOPE  C310 7301   2.119   5.269   4.657  0.0088 -0.1797  0.0033
   80SOPE  H10X 7302   2.012   5.287   4.682 -0.2890  1.3144 -2.0403
   80SOPE  H10Y 7303   2.160   5.181   4.710  0.0889 -0.8079 -1.0567
   80SOPE  C311 7304   2.117   5.250   4.505  0.0150  0.3402 -0.0181
   80SOPE  H11X 7305   2.225   5.253   4.478  0.9858 -2.8661  2.8221
   80SOPE  H11Y 7306   2.071   5.345   4.470  0.5159  0.2319 -1.0157
   80SOPE  C312 7307   2.057   5.125   4.447 -0.1295  0.4179 -0.3474
   80SOPE  H12X 7308   1.948   5.145   4.436 -0.0188  1.7503  0.6884
   80SOPE  H12Y 7309   2.058   5.038   4.517 -0.4089  0.6325 -0.0708
   80SOPE  C313 7310   2.110   5.094   4.306  0.2418  0.7927  0.6465
   80SOPE  H13X 7311   2.214   5.057   4.320  0.7493  2.5593  1.8109
   80SOPE  H13Y 7312   2.116   5.193   4.257 -0.4286  1.5276  2.0153
   80SOPE  C314 7313   2.024   4.999   4.224  0.0638  0.2294 -0.5439
   80SOPE  H14X 7314   1.928   5.055   4.221 -0.1197  0.0384  0.8604
   80SOPE  H14Y 7315   1.997   4.904   4.275 -2.1897  1.8175  1.4263
   80SOPE  C315 7316   2.058   4.980   4.080 -0.4024  0.1144  0.5456
   80SOPE  H15X 7317   2.103   5.070   4.033  1.5865 -0.7174  0.7633
   80SOPE  H15Y 7318   1.968   4.951   4.022  0.3751 -1.1793 -0.0495
   80SOPE  C316 7319   2.175   4.877   4.064  0.0221  0.4774 -0.9390
   80SOPE  H16X 7320   2.149   4.776   4.105 -0.5047  0.2553 -1.7898
   80SOPE  H16Y 7321   2.260   4.914   4.125  1.1781 -2.2923 -0.7120
   80SOPE  C317 7322   2.240   4.869   3.925  0.1417  0.2818  0.4739
   80SOPE  H17X 7323   2.277   4.970   3.899 -0.8259  0.8162  1.1178
   80SOPE  H17Y 7324   2.166   4.838   3.848 -0.0829 -0.0760  0.8213
   80SOPE  C318 7325   2.371   4.780   3.922 -0.6680 -0.5876  0.0519
   80SOPE  H18X 7326   2.436   4.800   3.834 -0.5637 -0.7159  0.1000
   80SOPE  H18Y 7327   2.348   4.671   3.926 -0.4020 -0.6668 -0.4406
   80SOPE  H18Z 7328   2.424   4.802   4.016 -0.1262  1.7686 -0.7430
   81SOPE     N 7329   3.108   6.544   5.960  0.4162  0.4636  0.0149
   81SOPE   HN1 7330   3.068   6.447   5.956 -0.2328  0.7010  0.6287
   81SOPE   HN2 7331   3.126   6.586   6.053  0.1093 -1.1792  0.8676
   81SOPE   HN3 7332   3.035   6.601   5.912 -0.4776  1.1152  2.0313
   81SOPE   C12 7333   3.235   6.540   5.877  0.2114 -0.4065 -0.3924
   81SOPE  H12A 7334   3.215   6.482   5.784  0.0734 -1.7199  0.4252
   81SOPE  H12B 7335   3.308   6.490   5.945 -1.8425 -0.8969  1.5674
   81SOPE   C11 7336   3.281   6.679   5.829  0.2318  0.2611  0.1669
   81SOPE  H11A 7337   3.207   6.696   5.748 -2.2912 -1.9114  1.8398
   81SOPE  H11B 7338   3.378   6.665   5.778  1.1198  1.0524  1.5583
   81SOPE     P 7339   3.254   6.927   5.906 -0.3387 -0.0439  0.1935
   81SOPE   O13 7340   3.260   7.002   6.036 -0.2018  0.3414 -0.1170
   81SOPE   O14 7341   3.127   6.928   5.845  0.2728 -0.6527  0.1691
   81SOPE   O12 7342   3.294   6.774   5.928  0.3262  0.1399 -0.1012
   81SOPE   O11 7343   3.370   6.983   5.810 -0.3320 -0.6525  0.3641
   81SOPE    C1 7344   3.329   7.039   5.682  0.3661 -0.1674  0.2900
   81SOPE    HA 7345   3.416   7.091   5.636  0.3698 -0.1981  0.2623
   81SOPE    HB 7346   3.244   7.111   5.681 -0.0416 -0.6422  0.2273
   81SOPE    C2 7347   3.294   6.934   5.575  0.3067  0.1864 -0.6926
   81SOPE    HS 7348   3.213   6.869   5.615  0.1912  1.1552  0.7123
   81SOPE   O21 7349   3.418   6.876   5.539 -0.7629 -0.0000  0.2986
   81SOPE   C21 7350   3.399   6.752   5.493  0.7571  0.4760  0.2995
   81SOPE   O22 7351   3.292   6.688   5.490 -0.5513  0.2195  0.0554
   81SOPE   C22 7352   3.546   6.700   5.474  0.4270  0.0847  0.0167
   81SOPE   H2R 7353   3.575   6.678   5.579  0.4502  2.1011  0.4890
   81SOPE   H2S 7354   3.614   6.785   5.450  0.5433 -0.0090  0.0195
   81SOPE    C3 7355   3.219   7.006   5.455 -0.6746  0.4772  0.0043
   81SOPE    HX 7356   3.288   7.082   5.411 -1.7036  1.0411 -0.6702
   81SOPE    HY 7357   3.136   7.068   5.495  0.9663  2.7814  0.0644
   81SOPE   O31 7358   3.187   6.911   5.354 -0.7518  0.7060  0.2977
   81SOPE   C31 7359   3.065   6.859   5.358  0.3699 -0.2079 -0.1436
   81SOPE   O32 7360   2.973   6.886   5.436 -0.4417  0.2259 -0.2031
   81SOPE   C32 7361   3.051   6.756   5.250  0.2057  0.2771  0.0441
   81SOPE   H2X 7362   3.135   6.687   5.274  0.3187  1.2224  2.7807
   81SOPE   H2Y 7363   3.070   6.808   5.154 -2.6247  1.1923 -0.1077
   81SOPE   C23 7364   3.570   6.584   5.375  1.2642 -1.0376 -0.0074
   81SOPE   H3R 7365   3.494   6.504   5.366  1.5087 -1.1106 -1.7417
   81SOPE   H3S 7366   3.660   6.532   5.412  0.5070 -1.4951  1.2579
   81SOPE   C24 7367   3.583   6.624   5.225  0.1367  0.1830  0.9050
   81SOPE   H4R 7368   3.661   6.702   5.212  0.6457 -0.5445 -0.6776
   81SOPE   H4S 7369   3.620   6.538   5.165  2.2166  1.8516 -0.3536
   81SOPE   C25 7370   3.450   6.672   5.165  0.1832  0.2728  0.2347
   81SOPE   H5R 7371   3.362   6.613   5.200  0.6862 -0.2915  0.5596
   81SOPE   H5S 7372   3.436   6.773   5.210  0.6673  0.9683 -1.1396
   81SOPE   C26 7373   3.449   6.688   5.004 -0.3834  0.0173  0.6277
   81SOPE   H6R 7374   3.539   6.743   4.969  0.2606  0.1050  2.3160
   81SOPE   H6S 7375   3.462   6.590   4.954 -0.0926  1.1634 -1.6413
   81SOPE   C27 7376   3.320   6.758   4.940 -0.5908 -0.2661  0.9605
   81SOPE   H7R 7377   3.223   6.730   4.987 -0.8496  0.5213  0.9240
   81SOPE   H7S 7378   3.339   6.865   4.964 -0.1314  0.2860 -1.5510
   81SOPE   C28 7379   3.320   6.740   4.788  0.0773  0.5357 -0.6979
   81SOPE   H8R 7380   3.416   6.766   4.739  2.1475 -1.6348  1.8914
   81SOPE   H8S 7381   3.305   6.633   4.763  1.2622  0.4584 -1.1700
   81SOPE   C29 7382   3.217   6.812   4.728 -0.4895 -0.2806  0.4164
   81SOPE   H91 7383   3.124   6.808   4.785  0.5743 -1.1704  2.1576
   81SOPE  C210 7384   3.208   6.826   4.592 -0.5655 -0.4115 -0.3841
   81SOPE  H101 7385   3.115   6.867   4.552 -1.9520 -1.2661  1.8006
   81SOPE  C211 7386   3.309   6.785   4.491  0.2559  0.6001  0.4337
   81SOPE  H11R 7387   3.315   6.674   4.491  1.1564  0.6387 -0.3766
   81SOPE  H11S 7388   3.409   6.829   4.511  0.8017  0.1615 -1.1457
   81SOPE  C212 7389   3.273   6.826   4.350 -0.2999 -0.2594  1.1475
   81SOPE  H12R 7390   3.257   6.936   4.338  3.6111  0.3584  0.0426
   81SOPE  H12S 7391   3.191   6.762   4.311 -0.0681  0.5235 -0.7220
   81SOPE  C213 7392   3.387   6.797   4.246  0.1815  0.2574  0.0370
   81SOPE  H13R 7393   3.415   6.689   4.245  1.4573  0.5625 -1.7713
   81SOPE  H13S 7394   3.473   6.861   4.275  0.2506 -0.4249  1.4110
   81SOPE  C214 7395   3.345   6.836   4.104  0.2668 -0.0302 -0.3308
   81SOPE  H14R 7396   3.315   6.943   4.094  0.6097  0.2404  1.2288
   81SOPE  H14S 7397   3.249   6.780   4.107 -0.7389  1.5545  3.2996
   81SOPE  C215 7398   3.448   6.813   3.990  0.4578 -0.1484  0.3619
   81SOPE  H15R 7399   3.447   6.706   3.959  2.6450 -0.5379  1.4514
   81SOPE  H15S 7400   3.551   6.846   4.012  0.3543  0.3537  0.1192
   81SOPE  C216 7401   3.402   6.901   3.864  0.0641  0.4843  0.2546
   81SOPE  H16R 7402   3.472   6.899   3.777  0.6404  0.7651  0.7021
   81SOPE  H16S 7403   3.394   7.009   3.889 -0.8473  0.6015 -0.4873
   81SOPE  C217 7404   3.263   6.867   3.808 -0.2541 -0.3319  0.0625
   81SOPE  H17R 7405   3.224   6.945   3.739 -1.4415 -1.7071 -0.8946
   81SOPE  H17S 7406   3.193   6.864   3.895  2.1689 -0.9701  2.0980
   81SOPE  C218 7407   3.257   6.726   3.741 -0.6314  0.6009  0.0324
   81SOPE  H18R 7408   3.161   6.708   3.689 -1.9577  3.1932  1.3780
   81SOPE  H18S 7409   3.266   6.656   3.827 -1.3898  1.1607  0.5818
   81SOPE  H18T 7410   3.337   6.716   3.665  1.4798  0.9665  2.0670
   81SOPE   C33 7411   2.914   6.686   5.239 -0.6438 -0.2644 -0.4308
   81SOPE   H3X 7412   2.839   6.768   5.240 -0.0823  0.2606 -0.9529
   81SOPE   H3Y 7413   2.918   6.619   5.329  3.3836 -0.5611 -0.6150
   81SOPE   C34 7414   2.909   6.595   5.113  0.0958  0.0450 -0.2028
   81SOPE   H4X 7415   2.823   6.524   5.114  1.8806 -2.2480  1.0464
   81SOPE   H4Y 7416   3.005   6.539   5.101  1.8115  2.9500 -0.8948
   81SOPE   C35 7417   2.891   6.672   4.983 -0.1159  0.0705 -0.1044
   81SOPE   H5X 7418   2.982   6.730   4.955 -0.2548 -0.3834 -1.6062
   81SOPE   H5Y 7419   2.805   6.742   4.985  0.5996  0.9515  0.7577
   81SOPE   C36 7420   2.873   6.573   4.869  0.7981 -0.2394 -0.3731
   81SOPE   H6X 7421   2.785   6.510   4.893  0.5337  0.9501  2.1167
   81SOPE   H6Y 7422   2.958   6.501   4.868  0.0865 -1.1075 -0.1364
   81SOPE   C37 7423   2.853   6.641   4.729 -0.1480 -0.0133 -0.0070
   81SOPE   H7X 7424   2.934   6.717   4.724  1.2912 -1.5920 -2.6267
   81SOPE   H7Y 7425   2.761   6.702   4.720  0.1870  0.8553  1.8701
   81SOPE   C38 7426   2.877   6.545   4.612 -0.5106 -0.4720 -0.3978
   81SOPE   H8X 7427   2.980   6.502   4.620 -0.2372  0.3863  0.8562
   81SOPE   H8Y 7428   2.876   6.592   4.511 -3.5080  3.2306  1.1339
   81SOPE   C39 7429   2.771   6.436   4.605  0.4987  0.6449 -0.6217
   81SOPE   H9X 7430   2.680   6.492   4.573  0.0538  2.5781  3.4418
   81SOPE   H9Y 7431   2.746   6.404   4.708  0.5469  0.1188 -0.7669
   81SOPE  C310 7432   2.804   6.311   4.526  0.0532  0.4210  0.5066
   81SOPE  H10X 7433   2.814   6.344   4.420 -2.5172  0.6516  0.2640
   81SOPE  H10Y 7434   2.712   6.249   4.539  0.1462 -0.7771 -3.2583
   81SOPE  C311 7435   2.931   6.245   4.583  0.5043  0.0369  0.8300
   81SOPE  H11X 7436   2.926   6.222   4.692 -1.0497  1.2012  1.0441
   81SOPE  H11Y 7437   3.024   6.301   4.560  0.1214 -0.1879 -1.4974
   81SOPE  C312 7438   2.951   6.104   4.527  0.2975 -0.9261  0.2624
   81SOPE  H12X 7439   2.863   6.038   4.543  0.9443 -2.2338 -1.2990
   81SOPE  H12Y 7440   3.036   6.058   4.583  1.3362  0.4451 -0.1264
   81SOPE  C313 7441   2.976   6.111   4.371 -0.4321  0.8489 -0.5943
   81SOPE  H13X 7442   3.059   6.182   4.352 -0.0540  0.5709 -0.0200
   81SOPE  H13Y 7443   2.881   6.153   4.332 -0.7195  0.5905 -0.1833
   81SOPE  C314 7444   2.995   5.968   4.310  0.3180  0.3397 -0.1530
   81SOPE  H14X 7445   2.919   5.906   4.362 -0.9132  3.7506  2.5831
   81SOPE  H14Y 7446   3.097   5.927   4.326 -0.7113 -2.5932 -0.5135
   81SOPE  C315 7447   2.960   5.970   4.156 -0.6850  0.8051 -0.4272
   81SOPE  H15X 7448   3.032   6.031   4.097 -1.2837 -0.5644 -2.7057
   81SOPE  H15Y 7449   2.859   6.011   4.134 -1.6718 -3.3504 -5.5597
   81SOPE  C316 7450   2.983   5.830   4.091 -0.0242 -0.6630 -0.2206
   81SOPE  H16X 7451   3.076   5.785   4.133  0.6570 -0.7346 -1.7243
   81SOPE  H16Y 7452   2.998   5.828   3.981  0.6926 -2.5295 -0.1327
   81SOPE  C317 7453   2.886   5.715   4.141 -0.5367 -0.7369  0.6770
   81SOPE  H17X 7454   2.780   5.737   4.117  0.4946  1.5836 -2.5165
   81SOPE  H17Y 7455   2.900   5.699   4.250 -2.7097 -2.8869  0.7060
   81SOPE  C318 7456   2.926   5.578   4.071  0.2485 -1.1920 -0.0526
   81SOPE  H18X 7457   2.848   5.500   4.083  0.1714 -0.9855  0.9294
   81SOPE  H18Y 7458   3.020   5.530   4.107  0.4384 -0.8259 -0.0572
   81SOPE  H18Z 7459   2.944   5.583   3.962 -1.7206  1.6120 -0.3650
   82SOPE     N 7460   6.776   1.501   6.041 -0.0934  0.2003 -0.6090
   82SOPE   HN1 7461   6.706   1.562   5.994 -3.5224 -1.3356  2.0841
   82SOPE   HN2 7462   6.850   1.556   6.087  0.1575  1.0994 -2.0056
   82SOPE   HN3 7463   6.830   1.456   5.964 -0.6630  0.6307 -1.2770
   82SOPE   C12 7464   6.702   1.404   6.120 -0.7671  0.1083 -0.4818
   82SOPE  H12A 7465   6.623   1.359   6.056  0.4454 -2.5426 -0.2546
   82SOPE  H12B 7466   6.651   1.452   6.206  0.9694  0.6354  0.3043
   82SOPE   C11 7467   6.809   1.310   6.173  0.7911 -0.1452 -0.9628
   82SOPE  H11A 7468   6.759   1.233   6.235  0.1514  1.5375  0.7140
   82SOPE  H11B 7469   6.883   1.361   6.238  0.9444 -2.3443  0.6962
   82SOPE     P 7470   6.981   1.152   6.073 -0.0507 -0.0808 -0.5830
   82SOPE   O13 7471   6.934   1.038   6.155 -0.1768  0.0402 -0.4143
   82SOPE   O14 7472   7.107   1.222   6.114  0.3011  0.0309 -0.5836
   82SOPE   O12 7473   6.861   1.252   6.055 -0.1946 -0.0592 -0.0714
   82SOPE   O11 7474   7.006   1.113   5.924  0.5162  0.5834 -0.0160
   82SOPE    C1 7475   6.918   1.134   5.810  0.2569 -0.2474 -0.2554
   82SOPE    HA 7476   6.945   1.225   5.754 -0.8010 -0.3480 -0.9758
   82SOPE    HB 7477   6.810   1.141   5.835 -0.5264  4.0709 -3.5785
   82SOPE    C2 7478   6.932   1.014   5.702  0.4885  0.7958  0.2022
   82SOPE    HS 7479   6.944   0.922   5.763  0.5211  0.7039  0.0598
   82SOPE   O21 7480   7.045   1.045   5.618 -0.4847  0.2704 -0.1657
   82SOPE   C21 7481   7.131   0.939   5.606 -0.0906  0.9374  0.1337
   82SOPE   O22 7482   7.110   0.827   5.654 -0.7170 -0.0959  0.2368
   82SOPE   C22 7483   7.248   0.968   5.511 -0.1319  0.2093 -0.3966
   82SOPE   H2R 7484   7.315   1.040   5.563  1.3258  1.1594 -3.3796
   82SOPE   H2S 7485   7.224   1.023   5.418  0.6832 -0.9338 -1.3003
   82SOPE    C3 7486   6.808   0.998   5.606 -1.0359 -0.6306  0.3440
   82SOPE    HX 7487   6.800   1.097   5.556  1.9978  0.1331  1.1939
   82SOPE    HY 7488   6.726   0.990   5.681  0.7463  1.0131  2.5682
   82SOPE   O31 7489   6.823   0.893   5.504 -0.6846 -0.4176 -0.6789
   82SOPE   C31 7490   6.798   0.773   5.559 -0.2123  0.0060 -0.0598
   82SOPE   O32 7491   6.754   0.758   5.668 -0.0927 -0.5349 -0.0198
   82SOPE   C32 7492   6.848   0.670   5.459 -0.6363  0.4239 -0.1710
   82SOPE   H2X 7493   6.945   0.705   5.417 -0.7434 -0.3597 -1.1231
   82SOPE   H2Y 7494   6.766   0.673   5.384  1.3230  1.1096 -2.4174
   82SOPE   C23 7495   7.337   0.859   5.469  0.3038  0.5810  0.7044
   82SOPE   H3R 7496   7.373   0.796   5.553 -0.1134 -0.4988  0.0950
   82SOPE   H3S 7497   7.426   0.890   5.410  1.4949  0.5768  2.4258
   82SOPE   C24 7498   7.254   0.772   5.370 -0.6344 -0.1392  0.3267
   82SOPE   H4R 7499   7.307   0.675   5.368  1.6234  1.0335 -0.5465
   82SOPE   H4S 7500   7.157   0.734   5.409 -0.2762 -0.4820  0.8816
   82SOPE   C25 7501   7.235   0.823   5.226 -0.4748 -0.2502  0.4290
   82SOPE   H5R 7502   7.148   0.891   5.218  0.4786  0.9322 -0.3373
   82SOPE   H5S 7503   7.335   0.869   5.207  0.2717 -1.9292  0.0684
   82SOPE   C26 7504   7.218   0.708   5.117 -0.1510 -0.0950 -0.3214
   82SOPE   H6R 7505   7.298   0.633   5.137 -1.9432 -1.8792  0.6104
   82SOPE   H6S 7506   7.124   0.662   5.155  0.4255  1.5318  3.6065
   82SOPE   C27 7507   7.204   0.770   4.976 -0.3939 -0.8933 -1.0316
   82SOPE   H7R 7508   7.114   0.835   4.975 -0.0271 -0.3670 -2.7749
   82SOPE   H7S 7509   7.288   0.842   4.963 -1.2295  0.0477 -1.3690
   82SOPE   C28 7510   7.213   0.664   4.866  0.0047 -0.5410 -0.1016
   82SOPE   H8R 7511   7.314   0.618   4.866  0.6260  0.6000 -3.4288
   82SOPE   H8S 7512   7.148   0.576   4.887  1.8686 -1.7766  0.7803
   82SOPE   C29 7513   7.195   0.715   4.727  0.1982 -0.7756 -0.0378
   82SOPE   H91 7514   7.280   0.705   4.658 -0.0691 -0.3449 -0.4279
   82SOPE  C210 7515   7.078   0.744   4.669  0.0141  1.0874 -0.4426
   82SOPE  H101 7516   7.073   0.775   4.564 -3.2037  3.6005  0.3061
   82SOPE  C211 7517   6.942   0.754   4.736 -0.5002 -0.4547  0.1154
   82SOPE  H11R 7518   6.955   0.747   4.846 -0.0335 -2.3869 -0.0159
   82SOPE  H11S 7519   6.881   0.663   4.719  1.6776 -2.2592  1.3754
   82SOPE  C212 7520   6.867   0.878   4.701  0.1369  0.6898 -0.1012
   82SOPE  H12R 7521   6.874   0.901   4.592  1.8923 -0.2719 -0.2286
   82SOPE  H12S 7522   6.909   0.968   4.751 -1.1952  1.7580 -0.8158
   82SOPE  C213 7523   6.720   0.873   4.754  0.4920 -0.0969 -0.1297
   82SOPE  H13R 7524   6.675   0.781   4.711 -1.7195  1.2952 -0.9856
   82SOPE  H13S 7525   6.656   0.954   4.714 -1.0956 -0.9340  0.6239
   82SOPE  C214 7526   6.705   0.878   4.905 -0.2092 -0.1944 -0.1600
   82SOPE  H14R 7527   6.725   0.979   4.944 -2.1304 -0.2343  1.0508
   82SOPE  H14S 7528   6.778   0.808   4.952 -1.4333 -1.1985  0.3255
   82SOPE  C215 7529   6.564   0.839   4.946  0.6499 -0.0134 -0.2708
   82SOPE  H15R 7530   6.580   0.737   4.987 -2.4231 -0.1143  0.9076
   82SOPE  H15S 7531   6.504   0.808   4.857 -0.6635  0.2336  0.5058
   82SOPE  C216 7532   6.485   0.932   5.041 -0.3173 -0.1349  0.1137
   82SOPE  H16R 7533   6.376   0.927   5.021 -0.7754 -1.0601  2.5144
   82SOPE  H16S 7534   6.545   1.024   5.021  1.9744 -1.2423  1.4369
   82SOPE  C217 7535   6.501   0.897   5.188 -0.0465  0.0417 -0.8540
   82SOPE  H17R 7536   6.604   0.902   5.229  0.3389 -0.9112 -1.6656
   82SOPE  H17S 7537   6.462   0.796   5.212 -2.7182  0.5859 -2.4001
   82SOPE  C218 7538   6.406   0.980   5.277 -0.6687 -0.4785 -0.0001
   82SOPE  H18R 7539   6.305   0.954   5.239  0.3743 -2.0798 -1.8362
   82SOPE  H18S 7540   6.426   1.088   5.261 -1.9912 -0.3352 -0.9116
   82SOPE  H18T 7541   6.414   0.958   5.386  1.8142  4.1289  1.0158
   82SOPE   C33 7542   6.859   0.529   5.521 -0.0543  0.2454  0.7287
   82SOPE   H3X 7543   6.771   0.512   5.587 -1.1839 -0.3249 -0.8386
   82SOPE   H3Y 7544   6.944   0.525   5.592  0.8868 -0.2678 -0.3901
   82SOPE   C34 7545   6.862   0.417   5.414 -0.0853  0.0429  0.2756
   82SOPE   H4X 7546   6.760   0.412   5.369 -0.7689 -0.1865  1.7719
   82SOPE   H4Y 7547   6.868   0.316   5.460 -0.4526 -1.3934 -2.6293
   82SOPE   C35 7548   6.975   0.430   5.310  0.0174 -0.1949 -0.2016
   82SOPE   H5X 7549   7.071   0.440   5.365  0.5516 -2.0178 -0.7483
   82SOPE   H5Y 7550   6.956   0.522   5.251 -0.1534 -0.8482 -1.1773
   82SOPE   C36 7551   6.991   0.315   5.215  0.3260  0.1068 -0.7441
   82SOPE   H6X 7552   6.910   0.319   5.138  0.6378 -0.1849 -1.0913
   82SOPE   H6Y 7553   6.978   0.220   5.272 -2.2407 -0.7949 -2.5994
   82SOPE   C37 7554   7.131   0.330   5.151  0.5358  0.1434  0.3132
   82SOPE   H7X 7555   7.204   0.309   5.232  2.4987  0.1229 -1.3804
   82SOPE   H7Y 7556   7.151   0.431   5.107 -0.1770 -0.5586 -1.7011
   82SOPE   C38 7557   7.157   0.227   5.043  0.5541 -0.9180 -0.4172
   82SOPE   H8X 7558   7.184   0.130   5.089 -0.2189 -1.1069 -0.3447
   82SOPE   H8Y 7559   7.254   0.261   5.000  0.4297  2.3901  1.5579
   82SOPE   C39 7560   7.052   0.195   4.937  1.4810 -0.5121 -0.3460
   82SOPE   H9X 7561   6.988   0.283   4.917  1.2190 -1.1044 -2.3375
   82SOPE   H9Y 7562   6.990   0.118   4.987 -1.9787  2.3565  0.1737
   82SOPE  C310 7563   7.103   0.129   4.811  0.1456 -0.1737  0.4258
   82SOPE  H10X 7564   7.024   0.058   4.781  0.7217 -0.1339 -1.3243
   82SOPE  H10Y 7565   7.191   0.064   4.831 -1.4230 -2.2364  0.9536
   82SOPE  C311 7566   7.128   0.221   4.681 -0.5191  0.3186 -0.4789
   82SOPE  H11X 7567   7.163   0.153   4.599  1.1528  0.6223 -0.0430
   82SOPE  H11Y 7568   7.202   0.300   4.703  0.4966 -0.2812 -1.5911
   82SOPE  C312 7569   7.003   0.308   4.636 -0.2207  0.1182 -0.1452
   82SOPE  H12X 7570   6.966   0.365   4.724  0.9546  3.0069 -1.3850
   82SOPE  H12Y 7571   6.927   0.245   4.585  1.9804 -0.9786 -2.2629
   82SOPE  C313 7572   7.047   0.413   4.534 -0.0668  0.4066  0.7078
   82SOPE  H13X 7573   7.121   0.481   4.580 -1.3469  2.5864 -0.2537
   82SOPE  H13Y 7574   6.953   0.472   4.523 -0.0822  0.5204  1.4279
   82SOPE  C314 7575   7.093   0.367   4.394 -0.4021  0.0089 -0.8894
   82SOPE  H14X 7576   7.012   0.313   4.340  0.6991 -1.4671 -1.1045
   82SOPE  H14Y 7577   7.175   0.293   4.401 -0.8183 -0.5475 -1.6822
   82SOPE  C315 7578   7.143   0.482   4.301 -0.5088 -0.4284 -0.4943
   82SOPE  H15X 7579   7.224   0.544   4.346 -0.7637 -0.1952 -0.3547
   82SOPE  H15Y 7580   7.060   0.555   4.288 -1.3061 -1.1027  0.6931
   82SOPE  C316 7581   7.181   0.426   4.165 -0.5017  0.2259  0.4362
   82SOPE  H16X 7582   7.091   0.391   4.110 -0.2957  1.1217 -0.5019
   82SOPE  H16Y 7583   7.257   0.346   4.176 -1.0930 -0.4564 -0.3005
   82SOPE  C317 7584   7.251   0.532   4.073 -0.1151 -0.5044 -0.7069
   82SOPE  H17X 7585   7.332   0.573   4.137 -2.3587  0.8379  1.4446
   82SOPE  H17Y 7586   7.176   0.611   4.051 -0.1955 -0.2682  0.3809
   82SOPE  C318 7587   7.309   0.471   3.947  0.2284  0.3871  0.9756
   82SOPE  H18X 7588   7.232   0.426   3.880 -0.7490  2.3594  0.7116
   82SOPE  H18Y 7589   7.378   0.386   3.968 -1.2820 -1.1444  0.0334
   82SOPE  H18Z 7590   7.373   0.531   3.879 -1.3202 -0.0921 -0.9856
   83SOPE     N 7591   3.022   5.220   1.708 -0.2895 -0.2959  0.3797
   83SOPE   HN1 7592   3.065   5.226   1.613  0.0014 -2.6266  0.3255
   83SOPE   HN2 7593   2.937   5.280   1.704 -0.1113 -0.0179  0.6963
   83SOPE   HN3 7594   3.081   5.270   1.778 -2.4333 -1.1503  2.9591
   83SOPE   C12 7595   2.973   5.085   1.763 -0.2085  0.0279  0.1037
   83SOPE  H12A 7596   2.938   5.028   1.674 -0.8851 -0.4144  0.6401
   83SOPE  H12B 7597   2.888   5.110   1.830 -0.8517  0.0988 -0.7312
   83SOPE   C11 7598   3.078   4.997   1.830 -0.2724  0.1312  0.6456
   83SOPE  H11A 7599   3.031   4.899   1.853  2.3249 -1.7293 -1.3794
   83SOPE  H11B 7600   3.117   5.056   1.915  1.3331 -2.4327  1.8103
   83SOPE     P 7601   3.311   4.900   1.797 -0.1866  0.0300  0.1055
   83SOPE   O13 7602   3.419   4.914   1.701 -0.1789  0.4345  0.6878
   83SOPE   O14 7603   3.273   4.766   1.843 -0.4308 -0.6493 -0.3284
   83SOPE   O12 7604   3.187   4.972   1.734  0.3966  0.7121 -0.0320
   83SOPE   O11 7605   3.351   4.993   1.914  0.0217  0.2519 -0.3476
   83SOPE    C1 7606   3.449   5.090   1.907  0.2343 -0.6610  0.1642
   83SOPE    HA 7607   3.410   5.175   1.967  0.0402 -0.8529  0.3125
   83SOPE    HB 7608   3.452   5.134   1.805 -0.4915  1.4128  0.9800
   83SOPE    C2 7609   3.577   5.034   1.968  0.0552 -0.5402  0.6855
   83SOPE    HS 7610   3.609   4.960   1.891  0.6217  0.5505 -0.1631
   83SOPE   O21 7611   3.545   4.984   2.099 -0.4699  0.0661 -0.2629
   83SOPE   C21 7612   3.543   4.854   2.112  0.7670  0.3910 -0.8088
   83SOPE   O22 7613   3.576   4.774   2.025 -0.2094  0.5210  0.2381
   83SOPE   C22 7614   3.472   4.815   2.243 -0.0829  0.4009  0.0743
   83SOPE   H2R 7615   3.361   4.816   2.230 -0.2999 -1.6556  1.2992
   83SOPE   H2S 7616   3.488   4.897   2.317 -0.3119 -0.7756  1.4557
   83SOPE    C3 7617   3.690   5.137   1.972  0.5135  0.7120  0.7185
   83SOPE    HX 7618   3.678   5.193   2.066  0.1243  1.5618  0.1749
   83SOPE    HY 7619   3.682   5.201   1.881  1.4594  2.0507  1.5573
   83SOPE   O31 7620   3.822   5.075   1.968  0.5063  0.1499  0.9956
   83SOPE   C31 7621   3.914   5.175   1.977 -1.3455 -0.5769 -0.1946
   83SOPE   O32 7622   3.888   5.295   1.990  0.6938  0.0614  0.1478
   83SOPE   C32 7623   4.051   5.111   1.971 -0.0378  0.1941 -0.3207
   83SOPE   H2X 7624   4.129   5.179   1.932  1.5539 -1.2998  0.1504
   83SOPE   H2Y 7625   4.051   5.014   1.916 -0.0837 -0.1378  0.2551
   83SOPE   C23 7626   3.516   4.682   2.316  0.1019 -0.1220 -0.3073
   83SOPE   H3R 7627   3.472   4.595   2.262 -1.0860  0.7035 -0.6976
   83SOPE   H3S 7628   3.474   4.666   2.417 -1.5169 -3.2060 -1.3407
   83SOPE   C24 7629   3.668   4.663   2.322  0.2455 -0.4401 -0.2547
   83SOPE   H4R 7630   3.704   4.660   2.216 -0.2932  0.4874 -0.4743
   83SOPE   H4S 7631   3.719   4.753   2.362  4.0986 -2.3410 -0.3963
   83SOPE   C25 7632   3.706   4.534   2.399 -0.1055 -0.2219 -0.5044
   83SOPE   H5R 7633   3.634   4.500   2.476 -0.0356 -1.1333 -0.8272
   83SOPE   H5S 7634   3.700   4.455   2.321 -2.6548 -0.6742  0.0744
   83SOPE   C26 7635   3.846   4.550   2.453 -0.2277  0.2000  0.3164
   83SOPE   H6R 7636   3.912   4.598   2.377  0.0674  2.0303  1.6452
   83SOPE   H6S 7637   3.843   4.613   2.545  1.0970  0.7593  0.0072
   83SOPE   C27 7638   3.913   4.421   2.498  0.0056  0.1454  0.5775
   83SOPE   H7R 7639   3.924   4.352   2.411 -1.0065  0.0283  0.5306
   83SOPE   H7S 7640   4.014   4.451   2.533 -0.6640  0.2690  2.5283
   83SOPE   C28 7641   3.840   4.337   2.609 -0.0793  0.1375  0.5670
   83SOPE   H8R 7642   3.748   4.289   2.569 -0.0330  1.0844 -0.7272
   83SOPE   H8S 7643   3.903   4.252   2.645 -0.2616 -0.1822  0.1357
   83SOPE   C29 7644   3.801   4.419   2.729 -0.2152  0.6267  0.3172
   83SOPE   H91 7645   3.716   4.485   2.705 -1.1954 -0.4627  0.7045
   83SOPE  C210 7646   3.843   4.413   2.860  0.1356 -0.7003  0.2322
   83SOPE  H101 7647   3.789   4.473   2.935 -1.0409 -2.3828  0.7829
   83SOPE  C211 7648   3.934   4.313   2.928 -0.1234 -0.0359  0.6196
   83SOPE  H11R 7649   4.041   4.329   2.905  0.1612 -1.0097  1.2110
   83SOPE  H11S 7650   3.902   4.209   2.907 -0.9948  0.0851  1.2925
   83SOPE  C212 7651   3.909   4.330   3.081  0.3646 -0.3265 -0.4640
   83SOPE  H12R 7652   3.801   4.316   3.102  0.4747 -0.4365  0.0391
   83SOPE  H12S 7653   3.937   4.434   3.108  0.7798 -0.6625  0.4266
   83SOPE  C213 7654   3.999   4.239   3.166 -0.3677 -0.1096 -0.7313
   83SOPE  H13R 7655   4.107   4.258   3.148  0.1704  0.8607  2.7878
   83SOPE  H13S 7656   3.967   4.134   3.149 -1.3743  0.1346 -0.4220
   83SOPE  C214 7657   3.964   4.265   3.312 -0.4164 -0.0160  0.4789
   83SOPE  H14R 7658   3.853   4.263   3.316 -0.6697 -2.4201 -3.3559
   83SOPE  H14S 7659   4.003   4.366   3.337  1.2594 -0.1780 -1.2639
   83SOPE  C215 7660   4.033   4.152   3.402  0.0459  0.0707 -0.1212
   83SOPE  H15R 7661   4.143   4.163   3.391  0.5941 -1.7600  2.6860
   83SOPE  H15S 7662   3.997   4.052   3.371  2.7685 -0.7729 -0.7843
   83SOPE  C216 7663   3.996   4.170   3.545  0.1406 -0.2637  0.3517
   83SOPE  H16R 7664   3.894   4.128   3.558 -0.0412 -0.0363 -0.3262
   83SOPE  H16S 7665   3.993   4.273   3.586 -1.7825 -0.2140  0.1790
   83SOPE  C217 7666   4.078   4.077   3.638  0.3384  0.2749  0.0031
   83SOPE  H17R 7667   4.087   3.975   3.595  1.3871  0.3199  0.0874
   83SOPE  H17S 7668   4.018   4.072   3.732 -1.8186  2.0767 -1.1839
   83SOPE  C218 7669   4.222   4.118   3.672 -0.2379 -0.4174 -0.0362
   83SOPE  H18R 7670   4.266   4.040   3.737 -1.9142 -0.8674  0.6111
   83SOPE  H18S 7671   4.229   4.219   3.716 -2.2750  0.5128 -1.6988
   83SOPE  H18T 7672   4.284   4.121   3.580  0.3603 -0.8773  0.3452
   83SOPE   C33 7673   4.112   5.068   2.110 -0.1981  0.9522 -0.2528
   83SOPE   H3X 7674   4.154   5.159   2.158 -0.2556  0.7560  0.1818
   83SOPE   H3Y 7675   4.196   4.999   2.088  1.2483  2.5611  0.0338
   83SOPE   C34 7676   4.015   5.015   2.213 -0.2499  0.0686  0.4081
   83SOPE   H4X 7677   3.986   4.915   2.174 -0.5226  0.3958 -0.2504
   83SOPE   H4Y 7678   3.929   5.086   2.208 -1.6780 -1.6575 -1.8276
   83SOPE   C35 7679   4.072   4.996   2.358  0.6644  0.4599 -0.1750
   83SOPE   H5X 7680   4.126   5.079   2.406  2.5125 -1.7302  1.7450
   83SOPE   H5Y 7681   4.150   4.917   2.365  0.8028  0.6310  0.1882
   83SOPE   C36 7682   3.960   4.958   2.451 -0.4405 -0.0237  0.5536
   83SOPE   H6X 7683   3.906   4.863   2.429  0.0487 -0.5546  1.5563
   83SOPE   H6Y 7684   3.882   5.037   2.451 -0.4923 -0.0476 -1.1353
   83SOPE   C37 7685   4.024   4.937   2.596  0.4433  0.2603  0.5434
   83SOPE   H7X 7686   4.074   5.032   2.623 -2.2209  2.3162 -1.2133
   83SOPE   H7Y 7687   4.105   4.862   2.592  0.8708  0.7342  0.1231
   83SOPE   C38 7688   3.920   4.893   2.704 -0.0924 -0.9655 -0.4513
   83SOPE   H8X 7689   3.872   4.798   2.673  0.3204 -0.9967 -1.0021
   83SOPE   H8Y 7690   3.840   4.970   2.713  0.0610 -0.6190 -1.8644
   83SOPE   C39 7691   3.975   4.867   2.848 -0.0850  0.3002  0.6741
   83SOPE   H9X 7692   4.023   4.963   2.878  0.3871 -0.1350  1.3124
   83SOPE   H9Y 7693   4.038   4.776   2.846 -1.1212 -0.4204  0.2679
   83SOPE  C310 7694   3.864   4.838   2.945  0.9386 -0.2138  0.5980
   83SOPE  H10X 7695   3.818   4.739   2.925  0.8061 -0.3930  1.7257
   83SOPE  H10Y 7696   3.789   4.919   2.931  0.0331 -1.1571 -0.0820
   83SOPE  C311 7697   3.910   4.839   3.093 -0.7246  0.9071 -0.1914
   83SOPE  H11X 7698   3.974   4.929   3.102 -0.1725  0.4011  1.1897
   83SOPE  H11Y 7699   3.975   4.751   3.114 -3.4050 -1.3582 -0.7717
   83SOPE  C312 7700   3.799   4.834   3.193 -0.3516  0.7129 -0.1947
   83SOPE  H12X 7701   3.753   4.734   3.178  0.0922  0.5478 -0.4739
   83SOPE  H12Y 7702   3.720   4.901   3.155 -1.0916 -0.3805 -0.6284
   83SOPE  C313 7703   3.835   4.852   3.337  0.5125  0.1292 -0.9985
   83SOPE  H13X 7704   3.821   4.960   3.360  1.8963 -0.2965  2.2048
   83SOPE  H13Y 7705   3.943   4.833   3.351  0.1761  0.6035  3.4963
   83SOPE  C314 7706   3.763   4.766   3.441  0.8300 -0.0256 -0.5881
   83SOPE  H14X 7707   3.782   4.660   3.411 -3.7307 -0.7856 -1.4904
   83SOPE  H14Y 7708   3.658   4.791   3.415  0.6135 -1.0974 -0.8025
   83SOPE  C315 7709   3.803   4.800   3.583  0.5216  0.0968 -0.8365
   83SOPE  H15X 7710   3.790   4.909   3.596  1.8223  0.2020 -0.2400
   83SOPE  H15Y 7711   3.911   4.779   3.599  0.3038 -0.1304  0.4555
   83SOPE  C316 7712   3.725   4.720   3.691 -0.6599  0.4837 -0.5990
   83SOPE  H16X 7713   3.744   4.611   3.681  0.7399  0.6700 -0.1979
   83SOPE  H16Y 7714   3.617   4.739   3.671 -1.0531 -2.2547 -1.5217
   83SOPE  C317 7715   3.758   4.757   3.837  0.9426  0.7443  0.4271
   83SOPE  H17X 7716   3.683   4.724   3.912  1.2871 -0.9853  0.0429
   83SOPE  H17Y 7717   3.745   4.868   3.839 -0.5879  0.6341 -0.9452
   83SOPE  C318 7718   3.893   4.704   3.894 -0.4317 -0.0677  0.5439
   83SOPE  H18X 7719   3.882   4.609   3.950  1.3419 -2.0370 -2.1717
   83SOPE  H18Y 7720   3.923   4.775   3.974  0.8518 -0.3725  0.3619
   83SOPE  H18Z 7721   3.978   4.700   3.822 -0.8411  1.7826 -0.1007
   84SOPE     N 7722   2.530   3.791   1.928 -0.2524 -0.2426  0.1924
   84SOPE   HN1 7723   2.495   3.712   1.870 -1.6282  1.6224 -1.6836
   84SOPE   HN2 7724   2.614   3.823   1.877  0.7668 -1.7391  0.8596
   84SOPE   HN3 7725   2.567   3.756   2.019  5.1852  1.3493 -1.0557
   84SOPE   C12 7726   2.401   3.868   1.926 -0.2883 -0.2420  0.5617
   84SOPE  H12A 7727   2.330   3.810   1.989  0.0900 -0.5778  0.6866
   84SOPE  H12B 7728   2.365   3.865   1.821  2.1106  0.8826 -0.3639
   84SOPE   C11 7729   2.417   4.014   1.966 -0.2153 -0.0544 -0.5783
   84SOPE  H11A 7730   2.437   4.031   2.074  1.0321 -1.1321 -0.6140
   84SOPE  H11B 7731   2.316   4.057   1.953 -0.1560  1.0959  2.1462
   84SOPE     P 7732   2.511   4.246   1.881 -0.1468 -0.1640  0.0622
   84SOPE   O13 7733   2.378   4.293   1.915  0.0569 -0.1424 -0.3689
   84SOPE   O14 7734   2.563   4.280   1.747  0.6597 -0.3217 -0.5511
   84SOPE   O12 7735   2.512   4.093   1.891 -0.5822  0.5973 -0.1315
   84SOPE   O11 7736   2.620   4.294   1.989 -0.3635 -0.2086 -0.0175
   84SOPE    C1 7737   2.761   4.252   1.989  0.5040  0.0709  0.4004
   84SOPE    HA 7738   2.813   4.319   2.061 -1.0055  0.6097  1.0288
   84SOPE    HB 7739   2.809   4.263   1.889  0.1921  1.0180  0.3402
   84SOPE    C2 7740   2.784   4.117   2.066 -0.1158  0.8259  0.5079
   84SOPE    HS 7741   2.719   4.046   2.010  1.3218  1.0017 -1.4908
   84SOPE   O21 7742   2.746   4.132   2.202 -0.2694 -0.0333  0.0347
   84SOPE   C21 7743   2.676   4.038   2.262 -0.3714  0.9997  0.2442
   84SOPE   O22 7744   2.630   3.938   2.206 -0.2092  0.3542  0.2147
   84SOPE   C22 7745   2.650   4.077   2.414  0.1075 -0.5791 -0.4571
   84SOPE   H2R 7746   2.592   3.991   2.454 -0.9957  0.8935  1.2550
   84SOPE   H2S 7747   2.578   4.160   2.401  0.9387 -0.0662 -2.2189
   84SOPE    C3 7748   2.925   4.066   2.031 -0.3871 -0.3525  0.1343
   84SOPE    HX 7749   2.950   4.082   1.924  0.8838  1.0220  0.6025
   84SOPE    HY 7750   2.934   3.955   2.032 -0.5995 -0.3836 -0.7339
   84SOPE   O31 7751   3.024   4.133   2.113  0.3971  0.5775 -0.0610
   84SOPE   C31 7752   3.043   4.082   2.236  0.4174 -0.2603  0.1540
   84SOPE   O32 7753   2.995   3.978   2.273  0.2629 -0.4845  0.0870
   84SOPE   C32 7754   3.138   4.167   2.317  0.4201  0.4847  0.2397
   84SOPE   H2X 7755   3.085   4.265   2.320 -1.7207 -0.5459 -1.3320
   84SOPE   H2Y 7756   3.233   4.179   2.260  0.1753 -3.1586 -1.2145
   84SOPE   C23 7757   2.778   4.121   2.487 -0.1287  0.4818  0.4153
   84SOPE   H3R 7758   2.829   4.201   2.429  0.9543  0.1381  0.8701
   84SOPE   H3S 7759   2.848   4.036   2.497 -0.3740  0.1875 -0.2803
   84SOPE   C24 7760   2.748   4.177   2.629  0.1826  0.3861  0.6793
   84SOPE   H4R 7761   2.668   4.253   2.625 -0.5830 -0.2069  3.1512
   84SOPE   H4S 7762   2.710   4.092   2.689  1.1565 -1.5137 -1.2127
   84SOPE   C25 7763   2.869   4.227   2.699 -0.5512 -0.1898  0.3911
   84SOPE   H5R 7764   2.952   4.154   2.710  0.5002  0.9744  0.4583
   84SOPE   H5S 7765   2.902   4.319   2.646 -1.4694 -0.6381 -1.0138
   84SOPE   C26 7766   2.850   4.282   2.843 -0.3726  0.4970 -0.4613
   84SOPE   H6R 7767   2.783   4.369   2.854  0.5880  1.0550  1.1930
   84SOPE   H6S 7768   2.801   4.190   2.884  0.3194  0.5410  0.4758
   84SOPE   C27 7769   2.979   4.316   2.917 -0.7078 -0.1133  0.1795
   84SOPE   H7R 7770   3.059   4.244   2.890 -1.3215 -1.0036  0.7223
   84SOPE   H7S 7771   3.006   4.423   2.902  2.2957 -0.9187 -0.8839
   84SOPE   C28 7772   2.958   4.298   3.067 -0.2042 -0.8188  0.7877
   84SOPE   H8R 7773   2.863   4.348   3.098  0.5081 -0.7020  2.9797
   84SOPE   H8S 7774   2.951   4.190   3.092  1.5662 -0.8579  1.2076
   84SOPE   C29 7775   3.072   4.364   3.146  0.4130  0.9706  0.0819
   84SOPE   H91 7776   3.174   4.337   3.114 -1.0379 -2.8813 -1.9078
   84SOPE  C210 7777   3.060   4.441   3.257 -0.0530  0.3279  0.4665
   84SOPE  H101 7778   3.149   4.486   3.301 -0.3180 -0.3091  1.6985
   84SOPE  C211 7779   2.927   4.480   3.325 -1.5314 -1.1310  0.0573
   84SOPE  H11R 7780   2.878   4.396   3.378  1.1661 -2.0932  1.1767
   84SOPE  H11S 7781   2.857   4.529   3.253  1.2101  1.1814 -1.2498
   84SOPE  C212 7782   2.954   4.585   3.443  0.7364 -0.4846  0.6691
   84SOPE  H12R 7783   2.993   4.682   3.407  0.5196  0.2538  2.3357
   84SOPE  H12S 7784   3.028   4.538   3.512 -0.7041 -1.6117  1.5299
   84SOPE  C213 7785   2.837   4.606   3.536 -0.2236 -0.3980 -0.3635
   84SOPE  H13R 7786   2.791   4.511   3.572  0.5258 -0.9359 -0.7885
   84SOPE  H13S 7787   2.752   4.650   3.478  0.0926  2.0446  0.9271
   84SOPE  C214 7788   2.880   4.699   3.653 -0.6774 -0.0494  1.2005
   84SOPE  H14R 7789   2.895   4.801   3.613  0.0883 -0.5581  0.1269
   84SOPE  H14S 7790   2.973   4.660   3.700 -0.7193 -0.2400  1.1275
   84SOPE  C215 7791   2.761   4.715   3.752 -0.8752  0.8542 -0.5913
   84SOPE  H15R 7792   2.717   4.614   3.771 -0.0828  0.3901 -1.1492
   84SOPE  H15S 7793   2.691   4.787   3.705  0.8762  2.9470 -0.1432
   84SOPE  C216 7794   2.817   4.763   3.882 -0.1980 -0.3756  0.2171
   84SOPE  H16R 7795   2.891   4.841   3.853 -2.1375  1.2004 -0.7794
   84SOPE  H16S 7796   2.869   4.680   3.933 -0.6338 -1.4565 -1.0295
   84SOPE  C217 7797   2.700   4.804   3.969  0.2612 -0.1663  1.2033
   84SOPE  H17R 7798   2.640   4.712   3.988 -0.2002  0.3471  2.3069
   84SOPE  H17S 7799   2.639   4.882   3.918 -1.5906 -2.8558 -1.0267
   84SOPE  C218 7800   2.742   4.854   4.101 -0.0632 -0.0149 -0.2817
   84SOPE  H18R 7801   2.658   4.910   4.148 -0.4225 -1.5719  1.0398
   84SOPE  H18S 7802   2.837   4.911   4.090 -0.5001  0.2510 -3.6531
   84SOPE  H18T 7803   2.764   4.777   4.177  0.1977  0.2801 -0.0553
   84SOPE   C33 7804   3.179   4.099   2.446  0.4354  0.2436 -0.4726
   84SOPE   H3X 7805   3.219   3.997   2.425 -3.1344 -1.1654 -1.2797
   84SOPE   H3Y 7806   3.083   4.088   2.500  2.2898 -0.5921  2.9482
   84SOPE   C34 7807   3.283   4.179   2.530 -0.7608 -0.3443  0.5300
   84SOPE   H4X 7808   3.232   4.268   2.572 -1.9441 -0.7203 -0.0580
   84SOPE   H4Y 7809   3.356   4.215   2.455 -1.5138  0.2716  0.0669
   84SOPE   C35 7810   3.346   4.104   2.647 -0.4482  0.1449 -0.1880
   84SOPE   H5X 7811   3.374   4.001   2.616 -1.7162 -0.1536 -0.4238
   84SOPE   H5Y 7812   3.261   4.087   2.717  0.8407  1.8944  1.9042
   84SOPE   C36 7813   3.472   4.173   2.706  0.0578  0.4634 -0.0933
   84SOPE   H6X 7814   3.432   4.274   2.730  0.2842  0.3322  0.8557
   84SOPE   H6Y 7815   3.557   4.174   2.635  1.2136  1.0793  1.2597
   84SOPE   C37 7816   3.515   4.103   2.831 -0.3304  0.2237  0.1148
   84SOPE   H7X 7817   3.622   4.122   2.853 -0.4112 -1.1131  1.8512
   84SOPE   H7Y 7818   3.495   3.994   2.827 -1.4422  0.4357 -0.4202
   84SOPE   C38 7819   3.447   4.161   2.959 -0.2976  0.4377 -0.1806
   84SOPE   H8X 7820   3.338   4.177   2.940 -0.1378  1.7345 -0.1515
   84SOPE   H8Y 7821   3.500   4.256   2.981 -0.1934  0.6719 -1.3779
   84SOPE   C39 7822   3.453   4.061   3.077  0.0503 -0.1494  0.0305
   84SOPE   H9X 7823   3.384   3.975   3.060 -1.2915  0.3423  2.5276
   84SOPE   H9Y 7824   3.407   4.107   3.167 -0.2449 -0.8525  0.2462
   84SOPE  C310 7825   3.593   4.005   3.111 -0.4942 -0.1995 -0.3606
   84SOPE  H10X 7826   3.676   4.078   3.110  0.7028 -1.4619  1.1811
   84SOPE  H10Y 7827   3.627   3.933   3.034 -1.2627  0.3343 -1.2207
   84SOPE  C311 7828   3.608   3.963   3.265  0.3519  0.0383  0.4071
   84SOPE  H11X 7829   3.515   3.908   3.291  0.3848  0.5482  1.7050
   84SOPE  H11Y 7830   3.604   4.050   3.334 -0.6491  0.3429 -0.0228
   84SOPE  C312 7831   3.736   3.879   3.293  0.5860  0.2026  0.5458
   84SOPE  H12X 7832   3.827   3.929   3.256  0.1820 -1.2988 -2.7880
   84SOPE  H12Y 7833   3.725   3.797   3.220 -0.6674  0.8664 -0.0561
   84SOPE  C313 7834   3.746   3.840   3.440  0.4900  0.1650  0.3635
   84SOPE  H13X 7835   3.656   3.793   3.486  0.3459  0.4100  0.3399
   84SOPE  H13Y 7836   3.750   3.942   3.484 -0.1543  0.1676  0.4264
   84SOPE  C314 7837   3.868   3.762   3.484  0.0965  0.4075 -0.2319
   84SOPE  H14X 7838   3.954   3.829   3.466  1.6542 -1.1286  1.1253
   84SOPE  H14Y 7839   3.876   3.674   3.417  0.5961  1.2685 -1.3212
   84SOPE  C315 7840   3.865   3.728   3.634  0.9731  0.0585 -0.7050
   84SOPE  H15X 7841   3.780   3.661   3.656  2.7169 -1.4509  2.1424
   84SOPE  H15Y 7842   3.849   3.820   3.693  0.8972 -0.6707  0.4351
   84SOPE  C316 7843   3.996   3.661   3.686 -0.3481 -0.4946 -0.1341
   84SOPE  H16X 7844   4.086   3.712   3.646 -0.0356  0.4017  1.5902
   84SOPE  H16Y 7845   3.981   3.557   3.651 -1.7249 -0.8416  1.3859
   84SOPE  C317 7846   4.008   3.658   3.834  0.0626 -0.3733  0.0818
   84SOPE  H17X 7847   4.115   3.635   3.851  0.3608  1.2795  0.7023
   84SOPE  H17Y 7848   3.936   3.582   3.870 -1.1934 -0.1781 -1.8564
   84SOPE  C318 7849   3.981   3.796   3.905 -0.8161 -0.1299  0.5233
   84SOPE  H18X 7850   4.011   3.877   3.835  0.9583 -1.3269 -0.1626
   84SOPE  H18Y 7851   4.028   3.805   4.005 -1.9869  0.7394  1.0162
   84SOPE  H18Z 7852   3.871   3.811   3.916 -0.8061 -0.4437  1.0842
   85SOPE     N 7853   5.685   4.588   1.898  0.1226  0.5295  0.2981
   85SOPE   HN1 7854   5.744   4.542   1.826 -2.0918  0.4962 -1.6110
   85SOPE   HN2 7855   5.703   4.689   1.887  2.5437 -0.0539 -2.4716
   85SOPE   HN3 7856   5.723   4.545   1.985  0.9132 -2.3382 -1.3101
   85SOPE   C12 7857   5.543   4.547   1.868 -0.0098  0.2709  0.1022
   85SOPE  H12A 7858   5.483   4.566   1.959  1.5243 -2.6126  1.8602
   85SOPE  H12B 7859   5.563   4.440   1.846  0.7763 -0.1643  2.6282
   85SOPE   C11 7860   5.502   4.613   1.734 -0.8055 -0.4822 -0.2035
   85SOPE  H11A 7861   5.573   4.575   1.658 -0.4975  0.1959 -0.2623
   85SOPE  H11B 7862   5.516   4.720   1.758  0.0619 -1.1396  2.7089
   85SOPE     P 7863   5.305   4.436   1.708 -0.2082  0.2372  0.0965
   85SOPE   O13 7864   5.410   4.344   1.665 -0.0169 -0.3751 -0.0474
   85SOPE   O14 7865   5.185   4.445   1.623  0.0451 -0.1077 -0.1914
   85SOPE   O12 7866   5.368   4.581   1.704 -0.5211  0.1143  0.2804
   85SOPE   O11 7867   5.264   4.421   1.860  0.6937 -0.1764  0.3675
   85SOPE    C1 7868   5.135   4.464   1.908  0.1584 -0.1492 -0.2095
   85SOPE    HA 7869   5.117   4.417   2.007 -0.3751  2.4222  0.9865
   85SOPE    HB 7870   5.056   4.428   1.839  0.5769 -0.1977 -0.6715
   85SOPE    C2 7871   5.096   4.617   1.912 -0.4602  0.0419  0.3041
   85SOPE    HS 7872   5.118   4.651   1.808 -1.1123 -0.4282  0.0055
   85SOPE   O21 7873   5.168   4.684   2.017  0.3116 -0.3372  1.1333
   85SOPE   C21 7874   5.165   4.825   2.007 -0.2055  0.1718 -0.0715
   85SOPE   O22 7875   5.136   4.885   1.903  1.1511 -0.1062  0.4344
   85SOPE   C22 7876   5.209   4.895   2.133 -0.3723  0.2346 -0.4230
   85SOPE   H2R 7877   5.307   4.844   2.146  0.0024  1.2635  0.8905
   85SOPE   H2S 7878   5.144   4.866   2.218 -0.4077 -1.3143 -0.9317
   85SOPE    C3 7879   4.938   4.635   1.929 -0.0739 -0.0747  0.3529
   85SOPE    HX 7880   4.884   4.559   1.868  0.5105 -1.9521  2.0530
   85SOPE    HY 7881   4.896   4.731   1.892  2.0971  1.1145  0.8523
   85SOPE   O31 7882   4.888   4.606   2.063 -0.0373 -0.1439  0.1393
   85SOPE   C31 7883   4.865   4.713   2.141 -0.1804 -0.7247 -0.7452
   85SOPE   O32 7884   4.879   4.830   2.105  0.4000 -0.1646 -0.3582
   85SOPE   C32 7885   4.846   4.665   2.282 -0.2368 -0.5036  0.0857
   85SOPE   H2X 7886   4.947   4.649   2.325  0.2414  0.3747 -0.6686
   85SOPE   H2Y 7887   4.804   4.563   2.274  0.1942 -0.5413 -3.2463
   85SOPE   C23 7888   5.218   5.051   2.123 -0.3367  0.5795 -0.0639
   85SOPE   H3R 7889   5.118   5.099   2.127 -0.6593  0.1058 -1.5956
   85SOPE   H3S 7890   5.257   5.085   2.025 -0.0823 -0.8843 -0.4993
   85SOPE   C24 7891   5.313   5.116   2.228 -0.6086  0.3261 -0.0787
   85SOPE   H4R 7892   5.411   5.065   2.225 -0.8420 -0.1464  0.1819
   85SOPE   H4S 7893   5.324   5.226   2.213  1.5078 -0.0213 -1.3882
   85SOPE   C25 7894   5.268   5.085   2.369 -0.5327  0.2780 -0.5704
   85SOPE   H5R 7895   5.167   5.125   2.390 -0.6609 -0.8826  1.1449
   85SOPE   H5S 7896   5.250   4.977   2.391  0.9375  0.1240 -0.0140
   85SOPE   C26 7897   5.359   5.157   2.473 -0.0406  0.3111 -0.2546
   85SOPE   H6R 7898   5.460   5.111   2.462 -0.9893 -2.2592  1.0428
   85SOPE   H6S 7899   5.360   5.266   2.450 -1.9440  0.2410 -0.7719
   85SOPE   C27 7900   5.309   5.130   2.615 -0.4661 -0.6151 -0.0454
   85SOPE   H7R 7901   5.200   5.149   2.615 -0.7460 -1.9408  1.8251
   85SOPE   H7S 7902   5.312   5.026   2.653 -0.5768  0.0785  1.9790
   85SOPE   C28 7903   5.374   5.238   2.708 -0.1944 -0.0179  0.7314
   85SOPE   H8R 7904   5.485   5.225   2.708 -0.3272 -1.9920 -1.6249
   85SOPE   H8S 7905   5.348   5.335   2.662  1.7981  0.3577  0.3167
   85SOPE   C29 7906   5.298   5.218   2.832  0.2213 -0.2200 -0.8738
   85SOPE   H91 7907   5.244   5.123   2.842  0.4855 -0.1527  1.8353
   85SOPE  C210 7908   5.280   5.315   2.924  0.0442  0.2142  0.0524
   85SOPE  H101 7909   5.212   5.301   3.009 -0.4950  0.2438 -0.3697
   85SOPE  C211 7910   5.345   5.452   2.918 -0.1505 -0.4556  0.4228
   85SOPE  H11R 7911   5.269   5.529   2.894 -0.1986 -0.1087  1.6200
   85SOPE  H11S 7912   5.433   5.462   2.850 -1.4888 -1.3255 -1.5443
   85SOPE  C212 7913   5.401   5.487   3.053  0.1676  0.0023 -0.7503
   85SOPE  H12R 7914   5.451   5.586   3.048  1.1557 -0.5307 -1.8289
   85SOPE  H12S 7915   5.471   5.408   3.087 -1.3633 -0.0584  2.7717
   85SOPE  C213 7916   5.299   5.505   3.158  1.3709  0.1824  0.9505
   85SOPE  H13R 7917   5.246   5.409   3.176 -1.3209  1.5070  0.5593
   85SOPE  H13S 7918   5.220   5.576   3.125  0.6092 -0.2856  1.7337
   85SOPE  C214 7919   5.358   5.551   3.293  0.6315  0.6155  0.2430
   85SOPE  H14R 7920   5.390   5.657   3.292  2.5201  0.0808 -1.3124
   85SOPE  H14S 7921   5.435   5.479   3.329 -0.0102 -1.4718 -2.2466
   85SOPE  C215 7922   5.250   5.547   3.398 -0.1989 -0.1075 -0.1764
   85SOPE  H15R 7923   5.234   5.444   3.438 -1.1952  0.6418  1.4691
   85SOPE  H15S 7924   5.151   5.586   3.367  0.9691  1.8763 -1.7061
   85SOPE  C216 7925   5.292   5.637   3.512 -0.9636 -0.4189  0.0958
   85SOPE  H16R 7926   5.301   5.742   3.476 -0.3644 -0.5731 -0.2075
   85SOPE  H16S 7927   5.393   5.628   3.558 -1.3823 -0.5985  1.0146
   85SOPE  C217 7928   5.181   5.642   3.618  0.0494  0.0143  0.3067
   85SOPE  H17R 7929   5.151   5.537   3.635  0.3491 -0.6473 -2.6312
   85SOPE  H17S 7930   5.091   5.692   3.577  0.4938  1.0253  0.5327
   85SOPE  C218 7931   5.225   5.717   3.743 -0.2804  0.5930 -0.1184
   85SOPE  H18R 7932   5.262   5.821   3.726  1.4176 -0.0682 -0.6789
   85SOPE  H18S 7933   5.297   5.655   3.801  0.6031  0.6738 -1.0914
   85SOPE  H18T 7934   5.140   5.737   3.812 -1.1354 -1.0907 -0.6449
   85SOPE   C33 7935   4.769   4.759   2.378  0.7230  0.0249 -0.1600
   85SOPE   H3X 7936   4.747   4.714   2.477  2.3749  1.5749  0.9755
   85SOPE   H3Y 7937   4.677   4.788   2.322  2.4931  2.4346 -2.0244
   85SOPE   C34 7938   4.847   4.887   2.418 -0.0868  0.4822  0.1964
   85SOPE   H4X 7939   4.777   4.942   2.484 -1.9580  0.0809 -1.3545
   85SOPE   H4Y 7940   4.867   4.953   2.331 -0.8282 -0.6633 -0.8846
   85SOPE   C35 7941   4.978   4.874   2.498  0.3703 -0.3123  0.2277
   85SOPE   H5X 7942   5.011   4.978   2.519  1.4130  0.0883 -2.9327
   85SOPE   H5Y 7943   5.057   4.829   2.435  1.1016  0.3321  0.6746
   85SOPE   C36 7944   4.955   4.798   2.630  0.2687 -0.1584  0.0390
   85SOPE   H6X 7945   4.916   4.696   2.607  0.0758 -0.3908  1.3404
   85SOPE   H6Y 7946   4.870   4.853   2.676  1.2821  0.9006  0.6811
   85SOPE   C37 7947   5.079   4.784   2.725  0.3530 -0.8764 -0.2225
   85SOPE   H7X 7948   5.122   4.885   2.745 -1.5522  0.1418 -0.9708
   85SOPE   H7Y 7949   5.162   4.732   2.673  0.6686 -1.4644  0.8489
   85SOPE   C38 7950   5.038   4.720   2.860  0.0216 -0.4176 -0.2829
   85SOPE   H8X 7951   5.120   4.705   2.933  0.4880  1.5919 -0.3431
   85SOPE   H8Y 7952   4.993   4.622   2.833  2.4821 -1.3614 -1.2439
   85SOPE   C39 7953   4.928   4.800   2.938 -0.1881  0.8914 -0.2526
   85SOPE   H9X 7954   4.919   4.736   3.028  1.0553  1.9112  0.6221
   85SOPE   H9Y 7955   4.830   4.811   2.887  1.1202 -0.7615 -3.4051
   85SOPE  C310 7956   4.976   4.937   2.976 -0.2422  0.1255  0.5363
   85SOPE  H10X 7957   4.968   5.016   2.898  0.7230  1.1659  1.4561
   85SOPE  H10Y 7958   5.086   4.930   2.989  0.0318  1.5914 -0.7352
   85SOPE  C311 7959   4.919   5.001   3.102  0.5495 -0.2013 -0.2034
   85SOPE  H11X 7960   4.944   5.107   3.126  1.2729 -0.6477  1.1363
   85SOPE  H11Y 7961   4.955   4.947   3.192 -2.5431 -0.1897  1.1788
   85SOPE  C312 7962   4.762   4.993   3.111 -0.2461  0.3192  0.1159
   85SOPE  H12X 7963   4.726   4.894   3.074  0.1671  0.4459 -0.6519
   85SOPE  H12Y 7964   4.722   5.065   3.036  1.4650 -0.1486 -1.3042
   85SOPE  C313 7965   4.700   5.025   3.243  0.6421 -0.0319  0.4710
   85SOPE  H13X 7966   4.759   5.111   3.280 -0.4881  0.3355  1.4985
   85SOPE  H13Y 7967   4.696   4.941   3.315 -0.5934  1.3073  2.0511
   85SOPE  C314 7968   4.560   5.078   3.229  0.1059  1.3635 -0.8566
   85SOPE  H14X 7969   4.492   4.991   3.224  0.8823  0.7311 -0.5586
   85SOPE  H14Y 7970   4.555   5.126   3.129  0.6090  0.3707 -1.3624
   85SOPE  C315 7971   4.504   5.171   3.338 -0.4052  0.4344  0.2873
   85SOPE  H15X 7972   4.402   5.201   3.305 -1.3867 -2.6845  0.2063
   85SOPE  H15Y 7973   4.554   5.269   3.351  1.2387 -0.5013  1.3274
   85SOPE  C316 7974   4.484   5.104   3.479 -0.3456  0.3480  0.0762
   85SOPE  H16X 7975   4.582   5.054   3.496 -1.3085 -0.8892  2.3802
   85SOPE  H16Y 7976   4.395   5.038   3.477 -1.8878  2.3221  1.1122
   85SOPE  C317 7977   4.460   5.206   3.590 -0.4134  0.5426 -0.6100
   85SOPE  H17X 7978   4.552   5.268   3.581  1.8184 -2.1128  1.7881
   85SOPE  H17Y 7979   4.465   5.153   3.687  0.8731  0.6842 -0.5793
   85SOPE  C318 7980   4.333   5.285   3.577  0.3199  0.7206 -0.6763
   85SOPE  H18X 7981   4.240   5.224   3.586  0.5605  0.6259  1.8432
   85SOPE  H18Y 7982   4.330   5.327   3.474  1.8421 -1.5189 -1.7236
   85SOPE  H18Z 7983   4.333   5.358   3.661  0.7871  0.7820 -0.7303
   86SOPE     N 7984   5.743   1.043   1.959 -0.2787 -0.1640  0.9006
   86SOPE   HN1 7985   5.739   1.142   1.990  0.6084  0.3018 -0.3730
   86SOPE   HN2 7986   5.697   0.987   2.032  0.6760 -3.0223 -0.5255
   86SOPE   HN3 7987   5.840   1.005   1.963 -1.0354 -2.1118  2.3324
   86SOPE   C12 7988   5.666   1.029   1.826 -0.1297  0.6774 -0.5686
   86SOPE  H12A 7989   5.662   0.920   1.809  0.6719  0.2595  1.6598
   86SOPE  H12B 7990   5.728   1.072   1.744 -0.7073  0.7113 -0.9958
   86SOPE   C11 7991   5.527   1.077   1.840 -0.4173  0.8529 -0.0400
   86SOPE  H11A 7992   5.470   1.055   1.747 -0.1119 -0.4489  0.0676
   86SOPE  H11B 7993   5.535   1.188   1.847 -0.5039  1.0467 -2.2348
   86SOPE     P 7994   5.406   0.878   1.961 -0.0148 -0.0376  0.4958
   86SOPE   O13 7995   5.517   0.785   1.921  0.6053  0.0232 -0.4989
   86SOPE   O14 7996   5.280   0.872   1.887 -0.1587  0.1389  0.7231
   86SOPE   O12 7997   5.467   1.026   1.958  0.0075 -0.3604  0.0478
   86SOPE   O11 7998   5.376   0.859   2.113  0.3564 -0.5830  0.1030
   86SOPE    C1 7999   5.319   0.956   2.196 -0.3104  0.4697 -0.1320
   86SOPE    HA 8000   5.249   0.911   2.269 -2.3089  1.8140 -1.1343
   86SOPE    HB 8001   5.257   1.025   2.134 -1.9673 -0.8095  0.0444
   86SOPE    C2 8002   5.436   1.035   2.266 -0.3282 -0.1376  0.2721
   86SOPE    HS 8003   5.500   1.077   2.185 -1.6634  1.4407 -0.0392
   86SOPE   O21 8004   5.505   0.946   2.347  0.1252  0.0170 -0.2732
   86SOPE   C21 8005   5.610   0.884   2.297 -0.5591 -0.9139  0.5504
   86SOPE   O22 8006   5.658   0.911   2.186 -0.0639 -0.1078 -0.1794
   86SOPE   C22 8007   5.665   0.784   2.401  0.6257 -0.3180 -0.6817
   86SOPE   H2R 8008   5.572   0.743   2.444 -0.0352 -0.6236 -2.3161
   86SOPE   H2S 8009   5.720   0.843   2.477 -0.3080 -0.5150  0.1656
   86SOPE    C3 8010   5.386   1.158   2.347 -0.5354 -0.0592  0.7069
   86SOPE    HX 8011   5.300   1.201   2.291 -1.2678 -1.3201  0.8104
   86SOPE    HY 8012   5.465   1.234   2.361 -1.5725  1.0653  0.6585
   86SOPE   O31 8013   5.338   1.124   2.482 -0.3611  0.4040 -0.3841
   86SOPE   C31 8014   5.287   1.225   2.551  0.2063  0.1458 -0.0787
   86SOPE   O32 8015   5.273   1.337   2.504 -0.5180 -0.7919  0.4358
   86SOPE   C32 8016   5.226   1.187   2.677 -0.2274 -0.2418 -0.9024
   86SOPE   H2X 8017   5.278   1.097   2.717 -0.2689 -0.8092 -2.0822
   86SOPE   H2Y 8018   5.120   1.167   2.653 -0.0326  1.6617 -3.9036
   86SOPE   C23 8019   5.756   0.673   2.343 -0.6492 -0.1185  0.7557
   86SOPE   H3R 8020   5.842   0.736   2.312 -1.1742  0.8939  1.3171
   86SOPE   H3S 8021   5.707   0.632   2.252 -0.2885  0.8253  0.1247
   86SOPE   C24 8022   5.794   0.570   2.446  0.8587 -0.2109 -0.3587
   86SOPE   H4R 8023   5.879   0.501   2.427 -0.4173 -1.4920 -1.6350
   86SOPE   H4S 8024   5.807   0.620   2.545  1.5267 -1.2957  0.1239
   86SOPE   C25 8025   5.675   0.469   2.468 -0.1598 -0.0195  0.3318
   86SOPE   H5R 8026   5.622   0.514   2.555 -0.0975  0.1578  0.2794
   86SOPE   H5S 8027   5.615   0.456   2.376 -1.0664  0.0425  0.8990
   86SOPE   C26 8028   5.732   0.330   2.517  0.2333  0.2470 -0.3853
   86SOPE   H6R 8029   5.801   0.280   2.445  0.2477 -0.2044 -0.0594
   86SOPE   H6S 8030   5.789   0.354   2.609  0.2658  1.1081 -0.6171
   86SOPE   C27 8031   5.627   0.220   2.549  0.0159 -0.8199 -0.4982
   86SOPE   H7R 8032   5.561   0.204   2.461  0.5620 -0.9393 -0.8920
   86SOPE   H7S 8033   5.683   0.129   2.581 -1.8378 -1.0953  2.2031
   86SOPE   C28 8034   5.540   0.244   2.672  0.0889  0.3631 -0.2545
   86SOPE   H8R 8035   5.472   0.156   2.684  1.3518 -0.6055  0.0464
   86SOPE   H8S 8036   5.606   0.255   2.760  1.4683  0.2958 -1.2422
   86SOPE   C29 8037   5.437   0.355   2.657  0.1340  0.3124 -0.4673
   86SOPE   H91 8038   5.378   0.343   2.565  0.2369 -2.1056 -0.2796
   86SOPE  C210 8039   5.409   0.452   2.745  0.5736 -0.2383 -0.5086
   86SOPE  H101 8040   5.329   0.523   2.721  0.7058  0.4356  0.9244
   86SOPE  C211 8041   5.475   0.471   2.879 -0.1873 -0.0800  0.4281
   86SOPE  H11R 8042   5.520   0.380   2.925 -2.0743 -0.9705  0.5888
   86SOPE  H11S 8043   5.407   0.530   2.944 -0.6870 -0.3962  0.2006
   86SOPE  C212 8044   5.596   0.567   2.841  0.1747  0.1704  0.5278
   86SOPE  H12R 8045   5.654   0.528   2.755 -1.2250 -0.0965 -0.3115
   86SOPE  H12S 8046   5.662   0.585   2.929 -0.2727  3.3270  0.3640
   86SOPE  C213 8047   5.557   0.721   2.804 -0.2409  0.7537  0.1764
   86SOPE  H13R 8048   5.498   0.766   2.887  0.3804 -0.8885  1.5807
   86SOPE  H13S 8049   5.490   0.722   2.716 -1.5678 -0.1973  1.1220
   86SOPE  C214 8050   5.679   0.810   2.786  0.6339  0.4775  0.1845
   86SOPE  H14R 8051   5.736   0.774   2.698 -0.4384 -1.0552  0.0830
   86SOPE  H14S 8052   5.739   0.805   2.879  0.0570 -2.0946  0.4727
   86SOPE  C215 8053   5.639   0.957   2.758 -0.1151 -0.2658  0.4211
   86SOPE  H15R 8054   5.576   0.998   2.840 -1.6673 -0.0028 -0.8736
   86SOPE  H15S 8055   5.592   0.963   2.658  0.2010 -2.5887  0.0547
   86SOPE  C216 8056   5.770   1.050   2.766  0.0395  0.5552 -0.8649
   86SOPE  H16R 8057   5.855   1.010   2.707  0.9617 -1.0859  1.4432
   86SOPE  H16S 8058   5.800   1.042   2.873  0.0466  0.8611 -0.8437
   86SOPE  C217 8059   5.754   1.194   2.728 -0.0587 -0.3452 -0.2563
   86SOPE  H17R 8060   5.830   1.267   2.762 -1.8535  2.0776 -1.1339
   86SOPE  H17S 8061   5.670   1.241   2.783  0.2847 -0.6154  0.5043
   86SOPE  C218 8062   5.725   1.190   2.576  0.5444 -0.8328 -0.1086
   86SOPE  H18R 8063   5.620   1.157   2.568  0.8135 -1.5303 -1.0319
   86SOPE  H18S 8064   5.786   1.115   2.520  1.2750 -0.1893 -0.2044
   86SOPE  H18T 8065   5.734   1.292   2.531  2.2309  0.5779  3.0746
   86SOPE   C33 8066   5.247   1.284   2.802 -0.5495  0.3032  0.2558
   86SOPE   H3X 8067   5.169   1.246   2.872 -2.0962  0.4224 -1.3443
   86SOPE   H3Y 8068   5.210   1.385   2.775  1.5673  1.2887  0.7683
   86SOPE   C34 8069   5.390   1.290   2.860 -0.7453  0.4013  0.5057
   86SOPE   H4X 8070   5.449   1.314   2.770 -1.6051 -1.6142 -0.6739
   86SOPE   H4Y 8071   5.408   1.186   2.895  0.1205  1.3661  3.2327
   86SOPE   C35 8072   5.387   1.383   2.981 -0.6942  0.1822 -0.0226
   86SOPE   H5X 8073   5.342   1.481   2.952  1.0707  1.0349 -0.0560
   86SOPE   H5Y 8074   5.487   1.399   3.027 -1.5930  0.3874  1.9627
   86SOPE   C36 8075   5.303   1.334   3.098  0.2400  0.6601 -0.3771
   86SOPE   H6X 8076   5.317   1.225   3.115 -1.5136  0.0366 -2.4641
   86SOPE   H6Y 8077   5.196   1.327   3.069 -0.4716 -1.1592  2.3385
   86SOPE   C37 8078   5.303   1.426   3.221 -0.6298  0.1667  0.5667
   86SOPE   H7X 8079   5.270   1.526   3.187 -0.0117 -0.1614 -1.1558
   86SOPE   H7Y 8080   5.406   1.441   3.260 -0.5727  2.6551 -0.3839
   86SOPE   C38 8081   5.219   1.388   3.342  0.3349 -0.2913  0.5084
   86SOPE   H8X 8082   5.220   1.278   3.358 -1.6963 -0.4775 -0.3757
   86SOPE   H8Y 8083   5.124   1.435   3.309  1.6393  0.5496 -2.2932
   86SOPE   C39 8084   5.256   1.462   3.468  0.5086 -0.1221 -0.0278
   86SOPE   H9X 8085   5.281   1.567   3.443 -1.4206  0.6317  0.9527
   86SOPE   H9Y 8086   5.341   1.415   3.520 -0.5867  0.3141  2.2882
   86SOPE  C310 8087   5.134   1.476   3.559 -0.3932  0.4282 -0.5983
   86SOPE  H10X 8088   5.106   1.372   3.587 -1.6217 -0.0428 -3.2643
   86SOPE  H10Y 8089   5.046   1.508   3.501  0.4626  0.3183 -1.9901
   86SOPE  C311 8090   5.150   1.569   3.683  0.0931 -0.3094  0.5919
   86SOPE  H11X 8091   5.047   1.582   3.723  0.4363  1.8177  0.9382
   86SOPE  H11Y 8092   5.179   1.663   3.632 -0.2784 -0.7149 -0.3773
   86SOPE  C312 8093   5.252   1.517   3.779  0.2290 -0.3558  0.2692
   86SOPE  H12X 8094   5.347   1.494   3.725  1.2492 -0.3288  1.9624
   86SOPE  H12Y 8095   5.218   1.428   3.836 -2.0720  0.2216 -0.1087
   86SOPE  C313 8096   5.279   1.628   3.874  0.5237 -0.4287  0.2985
   86SOPE  H13X 8097   5.192   1.645   3.940 -0.0724 -1.5549 -0.1804
   86SOPE  H13Y 8098   5.300   1.725   3.825 -1.7457 -0.5397 -1.0010
   86SOPE  C314 8099   5.398   1.601   3.959  0.0018 -0.0006  0.4478
   86SOPE  H14X 8100   5.492   1.602   3.898  0.3565 -0.4511  0.9808
   86SOPE  H14Y 8101   5.401   1.494   3.991 -2.2070 -0.2607 -0.0604
   86SOPE  C315 8102   5.415   1.703   4.069  0.6464  0.2961 -0.2777
   86SOPE  H15X 8103   5.316   1.714   4.119  0.6434  0.1502 -0.2487
   86SOPE  H15Y 8104   5.430   1.800   4.018 -0.6371 -0.0953 -1.4685
   86SOPE  C316 8105   5.537   1.685   4.155  0.3467  0.7899 -0.5992
   86SOPE  H16X 8106   5.622   1.671   4.085  0.2121 -1.2379 -0.4323
   86SOPE  H16Y 8107   5.515   1.590   4.208  2.2051  0.3881 -0.4764
   86SOPE  C317 8108   5.563   1.798   4.255  0.4393 -0.2361 -0.1294
   86SOPE  H17X 8109   5.470   1.813   4.315 -0.5307 -1.1325 -1.3434
   86SOPE  H17Y 8110   5.573   1.891   4.195 -0.7136 -0.3665 -0.5479
   86SOPE  C318 8111   5.679   1.795   4.347 -0.1063  1.0428  0.6247
   86SOPE  H18X 8112   5.679   1.884   4.413 -1.9405  0.2649  1.7857
   86SOPE  H18Y 8113   5.773   1.795   4.288 -0.4778 -1.0399 -0.0708
   86SOPE  H18Z 8114   5.689   1.711   4.419 -1.0178  1.7654  1.6257
   87SOPE     N 8115   5.872   0.621   1.774  0.2343 -0.6176  0.3313
   87SOPE   HN1 8116   5.786   0.637   1.716  1.4681  1.1798 -1.1198
   87SOPE   HN2 8117   5.947   0.662   1.714  1.3674  0.5222  2.4268
   87SOPE   HN3 8118   5.896   0.520   1.771 -1.4647 -1.0600 -2.2475
   87SOPE   C12 8119   5.844   0.680   1.901  0.1764  0.9183 -0.6710
   87SOPE  H12A 8120   5.755   0.627   1.939  1.3364 -1.5369 -1.1627
   87SOPE  H12B 8121   5.818   0.787   1.893  1.5411  1.2276 -1.2758
   87SOPE   C11 8122   5.967   0.669   1.994  0.9326 -0.2722  1.1789
   87SOPE  H11A 8123   6.000   0.566   2.021  1.7839 -0.2910  0.1198
   87SOPE  H11B 8124   5.950   0.713   2.095 -0.3401  0.3489  0.7232
   87SOPE     P 8125   6.123   0.877   1.944  0.1462 -0.1472 -0.0174
   87SOPE   O13 8126   6.003   0.963   1.943 -0.6590 -0.1782  0.2634
   87SOPE   O14 8127   6.224   0.899   1.840  0.3059 -0.3041  0.2685
   87SOPE   O12 8128   6.084   0.724   1.930 -0.5751 -0.0531  0.0900
   87SOPE   O11 8129   6.198   0.882   2.082  0.2790 -0.3220 -0.6078
   87SOPE    C1 8130   6.333   0.854   2.103 -0.5993  0.6937  0.2509
   87SOPE    HA 8131   6.364   0.892   2.203 -2.7902 -0.8280  1.5942
   87SOPE    HB 8132   6.404   0.890   2.025 -1.3691  1.4034 -0.1372
   87SOPE    C2 8133   6.354   0.702   2.110  0.3058  0.7542  0.4319
   87SOPE    HS 8134   6.317   0.666   2.011  0.6713 -0.4738  0.7281
   87SOPE   O21 8135   6.270   0.648   2.216 -0.4521 -0.2530 -0.4411
   87SOPE   C21 8136   6.232   0.527   2.202 -0.1472  0.3945  0.0132
   87SOPE   O22 8137   6.253   0.456   2.107  0.5722 -0.1878 -0.4308
   87SOPE   C22 8138   6.186   0.459   2.333 -0.3828  0.8396 -0.4548
   87SOPE   H2R 8139   6.269   0.390   2.362 -0.2331  0.9284 -0.6748
   87SOPE   H2S 8140   6.097   0.399   2.305 -0.2518  1.4335 -2.2672
   87SOPE    C3 8141   6.500   0.657   2.137  0.5414 -0.1909  0.2857
   87SOPE    HX 8142   6.562   0.688   2.050 -1.2091  2.3793 -0.1729
   87SOPE    HY 8143   6.504   0.547   2.130 -0.0606 -0.2710  1.0073
   87SOPE   O31 8144   6.560   0.719   2.254  0.4687 -0.0372  0.3508
   87SOPE   C31 8145   6.536   0.641   2.363 -0.3380  0.0702 -0.3542
   87SOPE   O32 8146   6.481   0.535   2.357  0.3127 -0.2720  0.3789
   87SOPE   C32 8147   6.575   0.721   2.490  0.1097  0.3146 -0.0714
   87SOPE   H2X 8148   6.590   0.830   2.476 -1.1454  1.1735  3.8315
   87SOPE   H2Y 8149   6.674   0.687   2.526  0.2383  1.3289  0.5820
   87SOPE   C23 8150   6.160   0.555   2.451 -0.2573  0.4276 -0.4128
   87SOPE   H3R 8151   6.065   0.610   2.430 -0.0932  0.4916 -1.0104
   87SOPE   H3S 8152   6.237   0.632   2.474 -0.3380  0.2925  0.3293
   87SOPE   C24 8153   6.131   0.476   2.581 -0.2325 -0.1545  0.0258
   87SOPE   H4R 8154   6.059   0.396   2.556  1.3251 -1.3836 -0.7476
   87SOPE   H4S 8155   6.232   0.441   2.612  0.1275 -0.1304 -1.0438
   87SOPE   C25 8156   6.077   0.573   2.694 -0.5270  0.2302  0.2579
   87SOPE   H5R 8157   6.141   0.664   2.708  1.9800 -0.9289 -2.5193
   87SOPE   H5S 8158   5.971   0.583   2.662  0.0931  0.1244 -2.0090
   87SOPE   C26 8159   6.090   0.503   2.829 -0.1797 -0.0789  0.4096
   87SOPE   H6R 8160   6.071   0.395   2.810  1.0476 -0.8139  2.8374
   87SOPE   H6S 8161   6.199   0.499   2.852  0.5378  2.6805 -1.9789
   87SOPE   C27 8162   6.004   0.557   2.945  0.0605  0.1850 -0.3479
   87SOPE   H7R 8163   5.897   0.553   2.918  0.0363  2.3393 -0.7844
   87SOPE   H7S 8164   6.022   0.492   3.033 -1.5058  1.0852  0.6827
   87SOPE   C28 8165   6.033   0.706   2.987  0.1098  0.1797  0.0452
   87SOPE   H8R 8166   6.141   0.733   2.982 -0.3558  1.9608 -1.8058
   87SOPE   H8S 8167   5.994   0.759   2.897 -0.9614 -2.3968 -1.1105
   87SOPE   C29 8168   5.970   0.745   3.115  0.0687 -0.7012  0.0947
   87SOPE   H91 8169   5.890   0.821   3.112  0.2288 -0.5415 -0.1090
   87SOPE  C210 8170   6.005   0.707   3.236  0.0191 -0.7100  0.3820
   87SOPE  H101 8171   5.952   0.750   3.322 -0.4628 -2.0356  0.7586
   87SOPE  C211 8172   6.126   0.620   3.269  0.0591  0.4376  0.0886
   87SOPE  H11R 8173   6.188   0.689   3.329 -0.9628  2.3349 -0.9341
   87SOPE  H11S 8174   6.190   0.597   3.181  2.7794  1.4029  1.7106
   87SOPE  C212 8175   6.116   0.481   3.344  0.0670  0.0231 -0.1714
   87SOPE  H12R 8176   6.206   0.420   3.324  0.8165  1.7847 -2.8855
   87SOPE  H12S 8177   6.039   0.413   3.303 -0.7857  1.1617 -0.5130
   87SOPE  C213 8178   6.105   0.499   3.497  0.1222 -0.0328 -0.5174
   87SOPE  H13R 8179   6.009   0.546   3.528  1.5820  0.9662  3.0247
   87SOPE  H13S 8180   6.188   0.557   3.543 -0.0325 -0.4531  0.2982
   87SOPE  C214 8181   6.104   0.365   3.571  0.5167  1.0188 -0.5466
   87SOPE  H14R 8182   6.023   0.305   3.525  0.1154  0.8691  0.3264
   87SOPE  H14S 8183   6.081   0.379   3.679  0.5408  1.0196 -0.5416
   87SOPE  C215 8184   6.227   0.276   3.558 -0.4420 -0.3552 -0.4335
   87SOPE  H15R 8185   6.245   0.260   3.450  1.1066 -0.8795 -0.1136
   87SOPE  H15S 8186   6.210   0.177   3.604  1.0783  0.9002  3.2425
   87SOPE  C216 8187   6.349   0.326   3.642  0.2199 -0.0707  0.2029
   87SOPE  H16R 8188   6.373   0.427   3.602 -1.0120 -0.0294 -0.4742
   87SOPE  H16S 8189   6.428   0.250   3.625 -2.2835 -3.0460  1.0385
   87SOPE  C217 8190   6.315   0.339   3.794 -0.4420 -0.1316  0.6560
   87SOPE  H17R 8191   6.287   0.234   3.821 -0.6091 -0.0077  0.9734
   87SOPE  H17S 8192   6.226   0.399   3.823  0.8658  0.8623  2.8455
   87SOPE  C218 8193   6.439   0.373   3.877  0.7513  0.4015 -0.0734
   87SOPE  H18R 8194   6.459   0.477   3.844 -0.6793  0.5598 -0.5046
   87SOPE  H18S 8195   6.536   0.325   3.853  1.2994  0.7263  1.4113
   87SOPE  H18T 8196   6.411   0.372   3.985  0.0138 -0.6124 -0.2497
   87SOPE   C33 8197   6.484   0.694   2.610 -0.1412  0.0216  0.1551
   87SOPE   H3X 8198   6.452   0.588   2.605  1.6396 -0.5314 -0.4567
   87SOPE   H3Y 8199   6.396   0.760   2.596  0.8981  1.2753 -0.8057
   87SOPE   C34 8200   6.558   0.731   2.747 -0.6393  0.4895  0.3991
   87SOPE   H4X 8201   6.633   0.810   2.728  1.1775 -0.9813  1.1507
   87SOPE   H4Y 8202   6.607   0.639   2.785 -1.0241  0.9186  1.9993
   87SOPE   C35 8203   6.453   0.778   2.846  0.3978 -0.0937 -0.2404
   87SOPE   H5X 8204   6.394   0.685   2.856  0.7662 -0.2373  0.8323
   87SOPE   H5Y 8205   6.390   0.857   2.802 -3.0922 -1.5679  1.6780
   87SOPE   C36 8206   6.510   0.799   2.986  0.0397  0.1384  0.1436
   87SOPE   H6X 8207   6.422   0.845   3.035 -1.1287 -2.4467  0.6748
   87SOPE   H6Y 8208   6.600   0.864   2.985 -0.7020  1.2883  2.2359
   87SOPE   C37 8209   6.542   0.682   3.071 -0.4359  0.4050  0.5618
   87SOPE   H7X 8210   6.602   0.617   3.005  0.2642  2.1929 -0.6462
   87SOPE   H7Y 8211   6.449   0.629   3.097 -0.1094 -1.2247 -1.4139
   87SOPE   C38 8212   6.622   0.713   3.197  0.2413  0.1538 -0.1527
   87SOPE   H8X 8213   6.705   0.780   3.166  0.7024 -0.6948 -0.7799
   87SOPE   H8Y 8214   6.671   0.622   3.237  1.0893  1.1975  1.3236
   87SOPE   C39 8215   6.530   0.779   3.299  0.2094  0.2600  0.1015
   87SOPE   H9X 8216   6.433   0.726   3.291  0.0545  0.5776 -0.1498
   87SOPE   H9Y 8217   6.504   0.879   3.259 -4.0105 -1.2156 -1.4325
   87SOPE  C310 8218   6.585   0.790   3.441  0.1024 -0.2985  0.1531
   87SOPE  H10X 8219   6.674   0.857   3.443 -0.6705  0.7517 -0.3200
   87SOPE  H10Y 8220   6.620   0.689   3.473  0.2757 -0.4967 -0.6317
   87SOPE  C311 8221   6.483   0.846   3.538 -0.1620  0.2642 -0.2454
   87SOPE  H11X 8222   6.393   0.786   3.513  0.0568 -0.5244  0.7987
   87SOPE  H11Y 8223   6.464   0.953   3.517 -1.1706 -0.1449 -1.5602
   87SOPE  C312 8224   6.514   0.811   3.687 -0.4910 -0.7753 -0.5385
   87SOPE  H12X 8225   6.514   0.700   3.693 -0.3953 -1.0765 -3.9980
   87SOPE  H12Y 8226   6.434   0.846   3.755  0.8024 -0.5013  0.8894
   87SOPE  C313 8227   6.657   0.849   3.737  0.8581 -0.8881  0.0650
   87SOPE  H13X 8228   6.671   0.956   3.710  0.6623 -1.1941 -1.3538
   87SOPE  H13Y 8229   6.734   0.784   3.688  1.2769 -1.7843  1.8313
   87SOPE  C314 8230   6.687   0.827   3.884  0.9815 -0.0307  0.1315
   87SOPE  H14X 8231   6.789   0.867   3.902  0.5266  1.1846  0.1364
   87SOPE  H14Y 8232   6.675   0.720   3.911  2.9003 -0.8344 -1.9582
   87SOPE  C315 8233   6.591   0.897   3.984 -0.2118 -0.2569  0.4030
   87SOPE  H15X 8234   6.628   0.897   4.088 -1.4398  1.3169  0.8715
   87SOPE  H15Y 8235   6.491   0.849   3.986 -0.5858  0.5182  0.5637
   87SOPE  C316 8236   6.567   1.041   3.950  0.4547  0.8397  0.0203
   87SOPE  H16X 8237   6.525   1.053   3.848  0.5445 -2.2293 -0.4821
   87SOPE  H16Y 8238   6.666   1.090   3.961  0.1996  1.2872  0.3524
   87SOPE  C317 8239   6.476   1.114   4.047 -0.6245 -0.0297  0.1416
   87SOPE  H17X 8240   6.498   1.222   4.032 -0.2088 -0.0688  0.4603
   87SOPE  H17Y 8241   6.498   1.091   4.153  2.8480 -0.7577 -0.6088
   87SOPE  C318 8242   6.329   1.107   4.027 -0.2983 -0.5650  0.3141
   87SOPE  H18X 8243   6.293   1.005   4.052 -2.2618 -0.4978 -1.8250
   87SOPE  H18Y 8244   6.297   1.134   3.924 -1.5509  0.9386  1.0586
   87SOPE  H18Z 8245   6.289   1.192   4.086  1.8512 -1.4189  3.1805
   88SOPE     N 8246   0.023   1.033   1.523 -0.3620  0.4615 -0.4461
   88SOPE   HN1 8247   0.012   1.078   1.616  1.5457  0.2743 -0.0862
   88SOPE   HN2 8248  -0.012   0.935   1.523  0.0057  0.3312 -0.0875
   88SOPE   HN3 8249   0.122   1.033   1.492 -0.4507 -2.2151 -0.9990
   88SOPE   C12 8250  -0.055   1.131   1.438 -0.4697 -0.0115  0.3808
   88SOPE  H12A 8251  -0.162   1.119   1.466 -0.3864 -0.0721  0.6818
   88SOPE  H12B 8252  -0.044   1.104   1.331  1.6096 -1.9402  1.0048
   88SOPE   C11 8253  -0.009   1.279   1.455  0.6596  0.4702 -0.2104
   88SOPE  H11A 8254  -0.085   1.344   1.405 -0.9241  0.5203  2.1227
   88SOPE  H11B 8255   0.087   1.284   1.399  1.0628 -1.4614  0.2656
   88SOPE     P 8256  -0.111   1.390   1.679 -0.3044  0.1009 -0.1029
   88SOPE   O13 8257  -0.192   1.288   1.753 -0.4322 -0.3140 -0.3293
   88SOPE   O14 8258  -0.186   1.483   1.595 -0.0709  0.3152  0.5300
   88SOPE   O12 8259   0.003   1.322   1.594  0.4494  0.2298  0.1354
   88SOPE   O11 8260  -0.035   1.474   1.788 -0.0194 -0.5198  0.7676
   88SOPE    C1 8261   0.092   1.433   1.844  0.2439  0.0339  0.1524
   88SOPE    HA 8262   0.175   1.500   1.813  0.4724 -0.1141  0.4390
   88SOPE    HB 8263   0.113   1.331   1.805 -1.1936 -0.3336  0.2982
   88SOPE    C2 8264   0.084   1.426   2.000 -0.7966  0.0811  0.4460
   88SOPE    HS 8265   0.180   1.391   2.044 -0.8149  0.2296  0.6051
   88SOPE   O21 8266  -0.018   1.344   2.052  0.0835  0.3589 -0.1178
   88SOPE   C21 8267   0.016   1.212   2.041 -0.2877 -0.6594  0.0932
   88SOPE   O22 8268   0.115   1.168   1.987  0.0990  0.1145  0.0956
   88SOPE   C22 8269  -0.093   1.129   2.102 -0.3364  0.2566  0.0793
   88SOPE   H2R 8270  -0.112   1.040   2.039 -0.6357  0.2859  0.1273
   88SOPE   H2S 8271  -0.183   1.192   2.118  0.6350  1.6475  0.3022
   88SOPE    C3 8272   0.063   1.570   2.050  0.1512 -0.6307 -0.3312
   88SOPE    HX 8273  -0.039   1.597   2.016  0.7954  0.2069 -1.7021
   88SOPE    HY 8274   0.132   1.639   1.997  3.0440 -2.3839  0.9184
   88SOPE   O31 8275   0.054   1.569   2.192  0.7406 -0.4465 -0.0640
   88SOPE   C31 8276   0.167   1.618   2.251  0.2996  0.3210 -0.2222
   88SOPE   O32 8277   0.263   1.657   2.188 -0.9212  0.4091  0.5676
   88SOPE   C32 8278   0.145   1.616   2.406 -0.5297  0.5436 -0.6395
   88SOPE   H2X 8279   0.157   1.511   2.440  0.3654  0.5309 -0.9667
   88SOPE   H2Y 8280   0.039   1.645   2.423 -0.2131  0.9066  0.8342
   88SOPE   C23 8281  -0.054   1.080   2.244  0.4290  0.3811  1.0625
   88SOPE   H3R 8282   0.030   1.008   2.234 -2.1131 -2.5747 -0.6309
   88SOPE   H3S 8283  -0.134   1.007   2.263  0.0251  0.5006 -0.0973
   88SOPE   C24 8284  -0.050   1.198   2.346 -0.1070  0.5075  0.3205
   88SOPE   H4R 8285  -0.069   1.293   2.291 -0.2080 -0.4704 -1.3944
   88SOPE   H4S 8286  -0.129   1.185   2.424 -0.1639  1.4183  0.4297
   88SOPE   C25 8287   0.080   1.205   2.425 -0.0810 -0.3092 -0.1289
   88SOPE   H5R 8288   0.133   1.107   2.420  1.4355  0.5146 -0.7018
   88SOPE   H5S 8289   0.157   1.272   2.381  1.4223  0.3981  3.2555
   88SOPE   C26 8290   0.069   1.271   2.568  0.3555  0.0710  0.5793
   88SOPE   H6R 8291   0.152   1.343   2.582 -1.1932  2.1075 -0.0636
   88SOPE   H6S 8292  -0.019   1.339   2.556  0.1705 -0.1069  0.9101
   88SOPE   C27 8293   0.049   1.167   2.678 -0.0713 -0.0714  0.1018
   88SOPE   H7R 8294  -0.027   1.095   2.640 -0.5998  0.3079  0.4417
   88SOPE   H7S 8295   0.142   1.107   2.694  1.6292  1.9496 -1.6221
   88SOPE   C28 8296  -0.005   1.230   2.810 -0.0487  0.0668  0.8981
   88SOPE   H8R 8297  -0.090   1.294   2.776  0.4134 -0.4979 -1.5599
   88SOPE   H8S 8298  -0.045   1.140   2.862 -1.2210  0.1946  0.2617
   88SOPE   C29 8299   0.089   1.308   2.896 -0.4770 -0.3388 -0.2728
   88SOPE   H91 8300   0.168   1.357   2.837 -0.9241  0.7073 -0.0242
   88SOPE  C210 8301   0.083   1.325   3.031 -0.1083  0.6395  0.1550
   88SOPE  H101 8302   0.163   1.378   3.085  0.8672 -1.7046  1.1595
   88SOPE  C211 8303  -0.025   1.255   3.113  0.1915 -0.0915 -0.6891
   88SOPE  H11R 8304  -0.110   1.225   3.048  1.2450 -0.9648 -1.7064
   88SOPE  H11S 8305  -0.057   1.322   3.195  3.2541  1.4145 -0.5717
   88SOPE  C212 8306   0.049   1.148   3.192  0.1642 -0.3300 -0.0080
   88SOPE  H12R 8307   0.110   1.086   3.123 -0.6884  1.0308 -2.0866
   88SOPE  H12S 8308  -0.027   1.080   3.238  0.1446  0.4822  1.1908
   88SOPE  C213 8309   0.137   1.199   3.316  0.6532  0.1532  0.4946
   88SOPE  H13R 8310   0.102   1.305   3.326 -2.0117 -0.7027  1.1774
   88SOPE  H13S 8311   0.242   1.203   3.282  0.4816 -0.3973 -0.0974
   88SOPE  C214 8312   0.119   1.108   3.440  0.6379 -0.2806  0.8223
   88SOPE  H14R 8313   0.136   1.002   3.411  0.3901  0.2928 -1.6751
   88SOPE  H14S 8314   0.014   1.128   3.469  0.1382  0.6946 -1.4318
   88SOPE  C215 8315   0.215   1.131   3.558 -0.2626  0.4316  0.1329
   88SOPE  H15R 8316   0.322   1.120   3.532  0.4459  1.3732  2.4289
   88SOPE  H15S 8317   0.189   1.066   3.645  1.1231  0.8877  0.9086
   88SOPE  C216 8318   0.210   1.275   3.608  0.4409  0.7537 -0.0770
   88SOPE  H16R 8319   0.108   1.288   3.648 -0.4892  1.0859 -2.3708
   88SOPE  H16S 8320   0.233   1.354   3.534 -1.1072  1.9284  0.6527
   88SOPE  C217 8321   0.315   1.299   3.715 -0.4033  0.4202  0.4107
   88SOPE  H17R 8322   0.404   1.262   3.660 -1.9787 -0.2528 -1.8616
   88SOPE  H17S 8323   0.305   1.242   3.810 -1.4635  1.4001  0.9155
   88SOPE  C218 8324   0.320   1.444   3.768 -0.2123 -0.3375 -0.1956
   88SOPE  H18R 8325   0.267   1.461   3.864 -0.0984  1.2558 -0.3903
   88SOPE  H18S 8326   0.268   1.513   3.698  0.0952  1.1520  0.9972
   88SOPE  H18T 8327   0.422   1.484   3.785 -1.0403  2.2656 -0.9280
   88SOPE   C33 8328   0.238   1.724   2.469  0.5603 -0.2469 -0.1934
   88SOPE   H3X 8329   0.209   1.820   2.422  0.4100 -0.3232 -0.2591
   88SOPE   H3Y 8330   0.347   1.711   2.452  0.2246 -0.5586 -2.4189
   88SOPE   C34 8331   0.203   1.738   2.617 -0.3710 -0.1276 -0.2291
   88SOPE   H4X 8332   0.095   1.735   2.641 -0.3087  0.6475  0.1785
   88SOPE   H4Y 8333   0.228   1.838   2.659  1.4881 -1.3260  1.6649
   88SOPE   C35 8334   0.273   1.646   2.716  0.7202  0.0674  0.3043
   88SOPE   H5X 8335   0.367   1.606   2.672  0.3923  1.2420 -1.5947
   88SOPE   H5Y 8336   0.200   1.566   2.742 -2.0362  2.9518  2.1185
   88SOPE   C36 8337   0.299   1.721   2.850 -0.2298 -0.1405  0.6722
   88SOPE   H6X 8338   0.210   1.776   2.886  0.0497 -0.0390  1.2192
   88SOPE   H6Y 8339   0.372   1.803   2.834 -0.9159  0.1587 -1.2073
   88SOPE   C37 8340   0.343   1.620   2.959  0.1939  0.4761  0.5401
   88SOPE   H7X 8341   0.449   1.591   2.944 -0.6078 -2.5694  0.0980
   88SOPE   H7Y 8342   0.278   1.532   2.943  0.1569  0.9248 -2.2175
   88SOPE   C38 8343   0.334   1.676   3.106  0.2139  0.2795  0.6844
   88SOPE   H8X 8344   0.236   1.725   3.119 -0.4844 -0.5460 -1.1576
   88SOPE   H8Y 8345   0.421   1.746   3.100 -0.2994  0.8922  0.2090
   88SOPE   C39 8346   0.349   1.567   3.210 -0.5915  0.1182  0.6483
   88SOPE   H9X 8347   0.448   1.520   3.186 -2.0095 -2.7982 -0.0082
   88SOPE   H9Y 8348   0.273   1.487   3.199  0.1399 -0.5491  0.2981
   88SOPE  C310 8349   0.362   1.622   3.349 -0.5896  0.3926 -0.0146
   88SOPE  H10X 8350   0.338   1.539   3.419  0.6323  0.9899  1.1525
   88SOPE  H10Y 8351   0.283   1.698   3.367 -1.5387 -1.0396  2.3255
   88SOPE  C311 8352   0.495   1.689   3.386 -0.0462 -0.1109 -0.3043
   88SOPE  H11X 8353   0.526   1.761   3.308 -0.2138  2.3420  1.7594
   88SOPE  H11Y 8354   0.570   1.608   3.397 -2.6525 -2.6602 -0.1094
   88SOPE  C312 8355   0.478   1.757   3.522  0.9573 -0.4069  0.3308
   88SOPE  H12X 8356   0.414   1.693   3.586 -0.7124 -0.4768 -1.3095
   88SOPE  H12Y 8357   0.419   1.848   3.501 -1.2247 -1.2075  2.5387
   88SOPE  C313 8358   0.611   1.793   3.588  0.0750 -0.0151  0.3478
   88SOPE  H13X 8359   0.588   1.878   3.656  1.4291 -0.5163  1.4748
   88SOPE  H13Y 8360   0.665   1.838   3.502 -0.8129  1.7680  0.6628
   88SOPE  C314 8361   0.685   1.678   3.652  0.3418  0.7652 -0.3798
   88SOPE  H14X 8362   0.740   1.626   3.571 -0.4084  3.3604 -2.7106
   88SOPE  H14Y 8363   0.608   1.606   3.686  2.1286  0.2616  3.0721
   88SOPE  C315 8364   0.779   1.730   3.758 -0.4973 -0.0713 -0.9989
   88SOPE  H15X 8365   0.830   1.823   3.726 -0.2878  0.0837 -0.2280
   88SOPE  H15Y 8366   0.858   1.653   3.777 -0.1647  0.6688  0.8287
   88SOPE  C316 8367   0.703   1.755   3.888  0.3521  0.7394  1.2538
   88SOPE  H16X 8368   0.644   1.848   3.872  2.5406  2.2921  1.6569
   88SOPE  H16Y 8369   0.773   1.774   3.972 -0.3407 -0.4065  2.1310
   88SOPE  C317 8370   0.610   1.648   3.955 -0.2433  0.6205 -0.1651
   88SOPE  H17X 8371   0.524   1.640   3.886 -0.9272 -1.2076  0.8362
   88SOPE  H17Y 8372   0.568   1.682   4.052 -1.4501  0.9902 -0.8079
   88SOPE  C318 8373   0.683   1.521   3.998  0.0941  0.0734  0.2085
   88SOPE  H18X 8374   0.601   1.447   4.006 -1.2353  1.5701  1.1365
   88SOPE  H18Y 8375   0.715   1.545   4.102 -0.2586 -0.7483  0.5125
   88SOPE  H18Z 8376   0.769   1.490   3.934  0.9471 -2.2168  2.2880
   89SAPC     N 8377   3.765   3.775   5.833  0.0858 -0.1694 -0.0586
   89SAPC   C12 8378   3.833   3.910   5.816  0.1032  0.2166  0.3652
   89SAPC  H12A 8379   3.789   3.964   5.898  0.4879  0.0644  0.6738
   89SAPC  H12B 8380   3.808   3.962   5.725 -1.1895  0.0477  0.6057
   89SAPC   C13 8381   3.622   3.784   5.862  0.3858 -0.2989  0.0752
   89SAPC  H13A 8382   3.597   3.834   5.955  1.1323  0.1923  0.0221
   89SAPC  H13B 8383   3.565   3.831   5.783  0.1001 -0.2252  0.3222
   89SAPC  H13C 8384   3.584   3.684   5.872  1.3973 -0.8421 -1.3056
   89SAPC   C14 8385   3.781   3.704   5.706 -0.6023  0.2431  0.5125
   89SAPC  H14A 8386   3.733   3.758   5.625  2.4191  2.7927  0.2099
   89SAPC  H14B 8387   3.888   3.705   5.686 -0.4307 -0.1364  1.3530
   89SAPC  H14C 8388   3.749   3.602   5.719  1.2048 -0.3431  0.7108
   89SAPC   C15 8389   3.823   3.688   5.935  0.6232  0.0782 -0.4770
   89SAPC  H15A 8390   3.778   3.590   5.941  0.4212  0.1975  0.0118
   89SAPC  H15B 8391   3.930   3.676   5.926  0.4504 -2.4691  0.1777
   89SAPC  H15C 8392   3.790   3.725   6.031  1.4255  0.8888 -0.4957
   89SAPC   C11 8393   3.989   3.905   5.834 -0.0468 -0.3174 -0.8293
   89SAPC  H11A 8394   4.011   3.865   5.935  0.2997  3.5638  0.8080
   89SAPC  H11B 8395   4.020   4.011   5.843 -0.5835 -0.2647  0.6514
   89SAPC     P 8396   4.183   3.751   5.749 -0.4230 -0.5044  0.0665
   89SAPC   O13 8397   4.291   3.828   5.820 -0.5567 -0.3419  0.0149
   89SAPC   O14 8398   4.124   3.631   5.804  0.1299  0.5748  0.3839
   89SAPC   O12 8399   4.058   3.840   5.731  0.6263  0.5484 -0.1938
   89SAPC   O11 8400   4.223   3.727   5.596 -0.5317 -0.2758 -0.0989
   89SAPC    C1 8401   4.280   3.824   5.505  0.0070  0.0666 -0.1493
   89SAPC    HA 8402   4.216   3.839   5.416  0.0871  0.2500 -0.1773
   89SAPC    HB 8403   4.284   3.918   5.564  0.9033  0.8418 -1.4229
   89SAPC    C2 8404   4.425   3.788   5.476  0.2153 -0.1360  0.3602
   89SAPC    HS 8405   4.493   3.798   5.564  0.4271 -2.0259  0.4613
   89SAPC   O21 8406   4.465   3.874   5.363  0.5542  0.4073 -0.1677
   89SAPC   C21 8407   4.573   3.942   5.364 -0.2112  0.2494  0.4456
   89SAPC   O22 8408   4.651   3.950   5.462  0.1364  0.1010 -0.0194
   89SAPC   C22 8409   4.594   4.009   5.228  0.0729  0.0024 -0.5526
   89SAPC   H2R 8410   4.704   3.996   5.215 -0.0386 -3.4940  0.8584
   89SAPC   H2S 8411   4.544   3.951   5.149 -2.1676  2.0644 -0.7578
   89SAPC    C3 8412   4.424   3.634   5.442 -0.5840 -0.3784  0.5145
   89SAPC    HX 8413   4.361   3.614   5.353 -0.9674  0.3935  0.6035
   89SAPC    HY 8414   4.391   3.565   5.522  0.6019 -1.2736  0.2656
   89SAPC   O31 8415   4.557   3.597   5.397 -0.2985  0.1480  0.2388
   89SAPC   C31 8416   4.646   3.581   5.499  0.6068  0.0869  0.0627
   89SAPC   O32 8417   4.618   3.580   5.617  0.2200 -0.5947 -0.2620
   89SAPC   C32 8418   4.777   3.545   5.444 -0.6068  0.2416  0.1090
   89SAPC   H2X 8419   4.798   3.443   5.482 -0.5642  0.6803  1.3045
   89SAPC   H2Y 8420   4.860   3.607   5.485 -0.5301  0.1982  0.0208
   89SAPC   C23 8421   4.554   4.155   5.240  1.1346 -0.0113  0.1581
   89SAPC   H3R 8422   4.623   4.224   5.187  1.9200 -0.4856  0.5593
   89SAPC   H3S 8423   4.565   4.194   5.343  0.1402  1.7446 -0.3578
   89SAPC   C24 8424   4.407   4.188   5.186  0.0830 -1.0502 -1.1160
   89SAPC   H4R 8425   4.419   4.156   5.081  4.5343 -0.7979 -0.8784
   89SAPC   H4S 8426   4.398   4.299   5.187  2.0830 -0.8584 -0.4709
   89SAPC   C25 8427   4.280   4.121   5.247  0.2089  0.0546  0.7962
   89SAPC   H5R 8428   4.228   4.170   5.330 -0.5865 -0.7221  0.7717
   89SAPC   C26 8429   4.209   4.028   5.188 -0.3977 -0.4957 -0.2459
   89SAPC   H6R 8430   4.137   3.977   5.254 -1.2596 -0.2601 -0.9914
   89SAPC   C27 8431   4.216   3.970   5.052  0.6367  0.0325  0.1098
   89SAPC   H7R 8432   4.286   4.030   4.989 -0.1815 -0.9592 -1.8478
   89SAPC   H7S 8433   4.113   3.955   5.013  0.5473  1.7793 -0.3944
   89SAPC   C28 8434   4.271   3.832   5.065  0.3797  0.0034  0.0644
   89SAPC   H8R 8435   4.254   3.783   5.162 -0.1342  2.0471  1.0709
   89SAPC   C29 8436   4.326   3.774   4.957 -0.1596  0.0130  0.6660
   89SAPC   H9R 8437   4.345   3.665   4.953 -2.4807 -0.4059 -1.2264
   89SAPC  C210 8438   4.354   3.824   4.820  0.0638 -0.3371 -0.3819
   89SAPC  H10R 8439   4.464   3.818   4.804  0.0264 -1.7463 -0.2579
   89SAPC  H10S 8440   4.331   3.932   4.810  3.2791  0.5059  0.2349
   89SAPC  C211 8441   4.297   3.753   4.701  0.4916 -0.0912  0.1024
   89SAPC  H11R 8442   4.282   3.645   4.716  3.8064 -0.5054  1.1124
   89SAPC  C212 8443   4.272   3.809   4.580  0.3641 -0.3717 -1.0871
   89SAPC  H12R 8444   4.226   3.746   4.502 -0.1935 -0.0460 -1.0203
   89SAPC  C213 8445   4.318   3.945   4.536  0.2315 -0.1079 -0.5431
   89SAPC  H13R 8446   4.425   3.931   4.508  0.8557 -0.9427  2.0248
   89SAPC  H13S 8447   4.321   4.027   4.611 -1.3316  0.8459 -1.4607
   89SAPC  C214 8448   4.251   4.006   4.414  0.1700 -0.0036  0.4628
   89SAPC  H14R 8449   4.156   4.056   4.436 -0.2602 -0.2124 -0.8185
   89SAPC  C215 8450   4.315   4.033   4.298  0.4096 -0.6823  0.3556
   89SAPC  H15R 8451   4.258   4.083   4.218  0.0862  1.1596  1.6738
   89SAPC  C216 8452   4.459   3.998   4.265  0.3356  0.3010 -0.0189
   89SAPC  H16R 8453   4.523   4.017   4.354  0.6725 -0.7597 -0.0155
   89SAPC  H16S 8454   4.480   4.071   4.184 -1.1998 -1.9133 -2.6078
   89SAPC  C217 8455   4.503   3.857   4.222 -0.4131 -0.0107  0.5704
   89SAPC  H17R 8456   4.443   3.843   4.129 -2.6355 -2.1411  2.2144
   89SAPC  H17S 8457   4.470   3.780   4.295 -2.6744 -0.6912 -1.0456
   89SAPC  C218 8458   4.650   3.841   4.179  0.0957  0.0907 -0.6101
   89SAPC  H18R 8459   4.726   3.885   4.246  0.8578 -0.4309 -1.1128
   89SAPC  H18S 8460   4.660   3.908   4.091  1.6572  0.4115 -0.2084
   89SAPC  C219 8461   4.693   3.698   4.129  0.7711  0.4002  0.5103
   89SAPC  H19R 8462   4.623   3.673   4.047  1.1858  2.4527 -0.5430
   89SAPC  H19S 8463   4.679   3.628   4.214 -1.2578 -0.3728 -0.3840
   89SAPC  C220 8464   4.842   3.695   4.074 -0.3376 -0.0880  0.1693
   89SAPC  H20R 8465   4.851   3.776   3.998 -3.7386 -0.6088 -0.9839
   89SAPC  H20S 8466   4.852   3.601   4.017 -1.2192  1.2610 -2.3862
   89SAPC  H20T 8467   4.918   3.703   4.154 -1.3744 -0.0318  1.1856
   89SAPC   C33 8468   4.797   3.535   5.289  0.4394 -0.8294  0.2522
   89SAPC   H3X 8469   4.721   3.475   5.234 -0.0449  0.1892 -0.2018
   89SAPC   H3Y 8470   4.893   3.482   5.271  0.8128 -0.4636  1.1170
   89SAPC   C34 8471   4.798   3.677   5.224  0.0561 -0.0364 -0.3084
   89SAPC   H4X 8472   4.869   3.742   5.280 -0.6864  0.2168  0.3469
   89SAPC   H4Y 8473   4.696   3.718   5.236  0.2574  0.0020  1.4778
   89SAPC   C35 8474   4.827   3.668   5.076 -1.0485  0.7036 -0.4064
   89SAPC   H5X 8475   4.746   3.605   5.035  1.1461 -1.4767 -1.7071
   89SAPC   H5Y 8476   4.916   3.601   5.069 -1.5317  0.1553 -1.4610
   89SAPC   C36 8477   4.846   3.805   5.015 -0.2276 -0.3893 -0.2212
   89SAPC   H6X 8478   4.937   3.799   4.953 -0.1547 -1.7798 -0.0149
   89SAPC   H6Y 8479   4.867   3.876   5.097  0.1795 -1.0857  0.2869
   89SAPC   C37 8480   4.732   3.850   4.927 -0.4106 -0.0995  0.2070
   89SAPC   H7X 8481   4.636   3.857   4.982 -1.9891 -0.4555 -2.3336
   89SAPC   H7Y 8482   4.712   3.782   4.842 -0.8955  1.2858 -0.8255
   89SAPC   C38 8483   4.768   3.986   4.868 -0.0392 -0.0379  0.4157
   89SAPC   H8X 8484   4.855   3.963   4.803  0.9899 -0.6296  1.9626
   89SAPC   H8Y 8485   4.808   4.058   4.942  0.1446  0.2742  0.0182
   89SAPC   C39 8486   4.665   4.040   4.769  0.6360  0.4828 -0.9719
   89SAPC   H9X 8487   4.581   4.078   4.831  1.5673  2.3847 -0.8247
   89SAPC   H9Y 8488   4.631   3.952   4.709  0.8692  2.0701 -3.6029
   89SAPC  C310 8489   4.708   4.150   4.674  0.0566 -0.0134  0.2604
   89SAPC  H10X 8490   4.780   4.107   4.602 -1.7883 -1.3234 -0.9040
   89SAPC  H10Y 8491   4.759   4.226   4.737  0.2070 -1.5660  2.0926
   89SAPC  C311 8492   4.593   4.207   4.585 -0.5790  0.7352 -0.6363
   89SAPC  H11X 8493   4.534   4.267   4.659  0.5981  0.8888  0.2085
   89SAPC  H11Y 8494   4.531   4.131   4.534 -0.2088  0.9775 -1.4610
   89SAPC  C312 8495   4.639   4.313   4.476  0.1071  0.3358 -0.3293
   89SAPC  H12X 8496   4.676   4.403   4.528  0.7029 -0.8074  1.3103
   89SAPC  H12Y 8497   4.546   4.341   4.420  0.4003  1.3867 -0.3074
   89SAPC  C313 8498   4.736   4.251   4.370  0.4454  0.2909 -0.3988
   89SAPC  H13X 8499   4.680   4.173   4.313  0.0447 -0.1451  0.5654
   89SAPC  H13Y 8500   4.822   4.205   4.423 -1.0386 -0.4216  1.5462
   89SAPC  C314 8501   4.802   4.358   4.283  0.2374 -0.5962 -0.1131
   89SAPC  H14X 8502   4.846   4.428   4.357 -0.1996 -0.0997 -0.3123
   89SAPC  H14Y 8503   4.727   4.415   4.224  0.4351  1.0566  1.1672
   89SAPC  C315 8504   4.918   4.326   4.187  0.2140  0.1716 -0.2566
   89SAPC  H15X 8505   4.882   4.235   4.135  0.1397  0.2288 -0.3057
   89SAPC  H15Y 8506   5.009   4.293   4.242 -0.3000  0.1185  0.5931
   89SAPC  C316 8507   4.954   4.444   4.093  0.4967  0.4684 -0.6305
   89SAPC  H16X 8508   4.990   4.532   4.150  3.7742 -0.2943 -1.3387
   89SAPC  H16Y 8509   4.856   4.470   4.046  0.8831  0.3699 -1.5127
   89SAPC  C317 8510   5.053   4.405   3.989  0.2241 -0.3902 -0.1518
   89SAPC  H17X 8511   5.020   4.312   3.937 -0.2320  0.8189 -2.1174
   89SAPC  H17Y 8512   5.146   4.384   4.046 -0.2474  0.1285  0.8208
   89SAPC  C318 8513   5.075   4.517   3.886  0.4665  0.1595  0.3800
   89SAPC  H18X 8514   5.107   4.610   3.937 -0.4563 -0.7997  2.8282
   89SAPC  H18Y 8515   4.981   4.531   3.830 -0.2184  0.2326  1.5241
   89SAPC  H18Z 8516   5.151   4.490   3.809  0.1684  0.0074  0.1368
   90SAPC     N 8517   0.736   0.997   6.054 -0.5061 -0.0184  0.7896
   90SAPC   C12 8518   0.715   0.970   5.904  0.0565  1.0632 -0.0297
   90SAPC  H12A 8519   0.619   0.924   5.891 -1.0189  2.6099  1.9122
   90SAPC  H12B 8520   0.799   0.906   5.878 -0.8991 -0.2545  0.0377
   90SAPC   C13 8521   0.888   1.012   6.076  0.4331 -0.6613  0.2569
   90SAPC  H13A 8522   0.897   1.039   6.180 -0.4467  2.1444 -0.3119
   90SAPC  H13B 8523   0.938   0.920   6.048 -0.8891 -1.1163 -0.6959
   90SAPC  H13C 8524   0.925   1.100   6.027  0.7077 -1.2433 -0.6061
   90SAPC   C14 8525   0.664   1.118   6.108 -0.4045  1.2771 -0.5112
   90SAPC  H14A 8526   0.673   1.116   6.216  0.3817 -2.6691 -0.4847
   90SAPC  H14B 8527   0.701   1.207   6.059 -0.3387  0.6290 -1.6777
   90SAPC  H14C 8528   0.557   1.106   6.096 -0.5607 -0.7303  1.9085
   90SAPC   C15 8529   0.690   0.868   6.122  0.4360  0.1380  0.2011
   90SAPC  H15A 8530   0.588   0.844   6.095  0.0211  0.9513  1.0265
   90SAPC  H15B 8531   0.743   0.777   6.095 -0.8132 -0.1034 -1.5726
   90SAPC  H15C 8532   0.686   0.875   6.229 -3.2119 -0.1397  0.1969
   90SAPC   C11 8533   0.707   1.100   5.812 -0.5445 -0.1289  0.0480
   90SAPC  H11A 8534   0.623   1.165   5.845  0.5206  0.2067  2.3092
   90SAPC  H11B 8535   0.693   1.078   5.704  2.0433 -1.4663 -0.0803
   90SAPC     P 8536   0.957   1.116   5.732 -0.7443  0.3293  0.1609
   90SAPC   O13 8537   1.081   1.184   5.787 -0.1342 -0.3016 -0.4395
   90SAPC   O14 8538   0.964   0.968   5.716 -0.2227  0.3251  0.2065
   90SAPC   O12 8539   0.834   1.170   5.815 -0.1300  0.0079 -1.4809
   90SAPC   O11 8540   0.923   1.181   5.597  1.0646  0.1796  0.1238
   90SAPC    C1 8541   0.939   1.323   5.583 -0.0778  0.1304 -0.2433
   90SAPC    HA 8542   0.842   1.363   5.546  0.4164  1.2835 -0.3156
   90SAPC    HB 8543   0.953   1.385   5.674  1.4301 -0.3759 -0.1057
   90SAPC    C2 8544   1.049   1.377   5.482 -0.4811 -0.3232  0.0219
   90SAPC    HS 8545   1.143   1.356   5.537 -0.6010 -0.6918  0.0892
   90SAPC   O21 8546   1.039   1.517   5.477 -0.1158 -0.2035 -0.3281
   90SAPC   C21 8547   1.148   1.574   5.421  0.6874 -0.0970  0.0359
   90SAPC   O22 8548   1.246   1.514   5.382  0.1202 -0.3679 -0.1879
   90SAPC   C22 8549   1.115   1.721   5.385 -0.5721  0.3089 -0.5310
   90SAPC   H2R 8550   1.125   1.774   5.482  1.4912 -1.5625  0.3539
   90SAPC   H2S 8551   1.189   1.754   5.309 -0.8984 -1.6691 -1.7776
   90SAPC    C3 8552   1.043   1.318   5.338  0.1953  0.2308 -0.1949
   90SAPC    HX 8553   1.035   1.210   5.363 -2.2054  0.6119  1.0001
   90SAPC    HY 8554   1.135   1.333   5.277 -0.6549 -2.7686 -2.4805
   90SAPC   O31 8555   0.921   1.351   5.272 -0.5382  0.0681 -0.2156
   90SAPC   C31 8556   0.904   1.295   5.154 -0.0700  0.4711  0.3216
   90SAPC   O32 8557   0.991   1.249   5.084 -0.5028 -0.6440 -0.3100
   90SAPC   C32 8558   0.758   1.287   5.118  0.0678  0.1713  0.2956
   90SAPC   H2X 8559   0.696   1.281   5.210 -0.9127 -0.3553 -0.3755
   90SAPC   H2Y 8560   0.745   1.200   5.050 -0.3125  0.1659  0.3723
   90SAPC   C23 8561   0.970   1.738   5.324 -0.8188 -0.0805 -0.7041
   90SAPC   H3R 8562   0.948   1.845   5.344 -0.4228 -0.1574  0.1926
   90SAPC   H3S 8563   0.889   1.676   5.367  0.7540 -0.6680  1.6529
   90SAPC   C24 8564   0.961   1.703   5.181  0.2383  0.4513  0.0601
   90SAPC   H4R 8565   0.857   1.709   5.145 -0.1119 -2.3533  0.3749
   90SAPC   H4S 8566   0.979   1.593   5.180 -4.3771 -0.5314  1.4520
   90SAPC   C25 8567   1.045   1.789   5.092 -0.2222  0.5194  0.2124
   90SAPC   H5R 8568   0.999   1.888   5.077 -0.0774  0.3267 -1.6742
   90SAPC   C26 8569   1.164   1.769   5.034 -0.5448 -0.3421 -0.3456
   90SAPC   H6R 8570   1.207   1.856   4.981  0.0396 -0.2008  0.3533
   90SAPC   C27 8571   1.245   1.642   5.052  0.1241 -0.0193  0.2409
   90SAPC   H7R 8572   1.250   1.603   4.948 -0.8267  2.9099 -1.0379
   90SAPC   H7S 8573   1.199   1.567   5.119 -2.6245  0.5734 -0.8194
   90SAPC   C28 8574   1.385   1.672   5.093 -0.0404 -0.2126 -0.1608
   90SAPC   H8R 8575   1.398   1.681   5.202 -1.5565  0.0867  0.0203
   90SAPC   C29 8576   1.491   1.699   5.014 -0.4842  0.8147 -0.3547
   90SAPC   H9R 8577   1.586   1.724   5.062  0.1679 -0.8200 -0.7281
   90SAPC  C210 8578   1.487   1.704   4.862  0.3480 -0.9583  0.5355
   90SAPC  H10R 8579   1.382   1.710   4.827  0.6624  1.5819 -0.1710
   90SAPC  H10S 8580   1.540   1.613   4.826  0.8622 -0.3016 -0.4507
   90SAPC  C211 8581   1.574   1.820   4.799  0.2868  0.0253 -0.9412
   90SAPC  H11R 8582   1.511   1.909   4.785  0.0170 -0.2974 -1.8010
   90SAPC  C212 8583   1.703   1.822   4.773 -0.3798  0.2982 -0.0433
   90SAPC  H12R 8584   1.752   1.914   4.737  0.3132 -0.2925 -0.6537
   90SAPC  C213 8585   1.800   1.710   4.787 -0.0587  0.2516 -1.4807
   90SAPC  H13R 8586   1.783   1.648   4.878  0.3709  1.0144 -0.8642
   90SAPC  H13S 8587   1.900   1.755   4.805 -0.3168  0.9948 -1.8497
   90SAPC  C214 8588   1.782   1.625   4.659 -0.5115  0.6977 -1.0703
   90SAPC  H14R 8589   1.680   1.588   4.643 -0.7731  1.9582 -2.5335
   90SAPC  C215 8590   1.875   1.620   4.554  0.4946 -0.6543 -0.4147
   90SAPC  H15R 8591   1.852   1.546   4.476  0.7004 -1.0004 -0.1467
   90SAPC  C216 8592   2.004   1.696   4.546 -0.0617 -0.1854  0.0840
   90SAPC  H16R 8593   2.088   1.626   4.567 -2.1123 -2.2039  1.9925
   90SAPC  H16S 8594   2.003   1.776   4.622 -0.4520 -1.4893  1.5041
   90SAPC  C217 8595   2.041   1.766   4.409 -0.5552  0.2964 -0.6705
   90SAPC  H17R 8596   2.055   1.695   4.324  0.0976 -0.4414  0.0250
   90SAPC  H17S 8597   2.130   1.828   4.432  0.5578 -1.2709 -0.5950
   90SAPC  C218 8598   1.939   1.866   4.360  0.4020  0.3610 -0.2362
   90SAPC  H18R 8599   1.879   1.893   4.449  1.5031  0.1453  0.5978
   90SAPC  H18S 8600   1.869   1.810   4.294 -1.3463  1.2807  0.8005
   90SAPC  C219 8601   1.993   1.988   4.288  0.5038  0.4628  0.4589
   90SAPC  H19R 8602   2.058   2.055   4.350 -0.0747  2.4146 -0.9425
   90SAPC  H19S 8603   1.899   2.046   4.274 -0.8379 -1.5517  0.7740
   90SAPC  C220 8604   2.070   1.955   4.155 -0.5264 -0.2105  0.9298
   90SAPC  H20R 8605   1.996   1.924   4.079 -2.0171  1.1023  1.7574
   90SAPC  H20S 8606   2.149   1.879   4.172  0.0668 -0.5562 -2.6639
   90SAPC  H20T 8607   2.106   2.050   4.109 -4.3130  0.6348 -0.7229
   90SAPC   C33 8608   0.709   1.414   5.037  0.2682 -0.1558 -0.7776
   90SAPC   H3X 8609   0.717   1.513   5.087  1.5766  0.0205 -1.2677
   90SAPC   H3Y 8610   0.600   1.404   5.018  0.2521  2.0787 -2.3350
   90SAPC   C34 8611   0.784   1.426   4.903  0.5251 -1.1121  0.0216
   90SAPC   H4X 8612   0.759   1.344   4.833  0.5959 -1.7341  0.7107
   90SAPC   H4Y 8613   0.891   1.406   4.926  0.6720 -0.2135  0.1447
   90SAPC   C35 8614   0.779   1.570   4.848  0.0831  0.3594  0.1045
   90SAPC   H5X 8615   0.779   1.640   4.935  0.8156  1.1261 -0.4885
   90SAPC   H5Y 8616   0.684   1.579   4.792  1.2449 -0.9893 -2.2191
   90SAPC   C36 8617   0.916   1.611   4.777  0.5302  1.0246  0.1726
   90SAPC   H6X 8618   0.939   1.551   4.686  2.3690  1.4993  0.2717
   90SAPC   H6Y 8619   0.995   1.596   4.854 -0.9059  1.2455  1.7280
   90SAPC   C37 8620   0.925   1.755   4.724  0.2424  0.1749 -0.7869
   90SAPC   H7X 8621   0.911   1.815   4.817  0.5791 -0.7666 -0.1221
   90SAPC   H7Y 8622   0.841   1.793   4.661  0.6215 -0.4738 -1.6982
   90SAPC   C38 8623   1.055   1.802   4.656 -0.4121 -0.4529 -0.6352
   90SAPC   H8X 8624   1.094   1.718   4.596 -1.3428 -0.5481 -1.1195
   90SAPC   H8Y 8625   1.126   1.820   4.739 -2.2935 -3.3747  1.7845
   90SAPC   C39 8626   1.046   1.920   4.558  1.1303  0.3065  0.1277
   90SAPC   H9X 8627   1.025   2.010   4.620 -3.8408 -1.6537  1.7422
   90SAPC   H9Y 8628   0.951   1.911   4.501 -0.9642 -0.7725  3.4503
   90SAPC  C310 8629   1.168   1.946   4.466  0.1187 -0.3773  0.5436
   90SAPC  H10X 8630   1.172   1.867   4.388  0.1926  0.5515 -0.4230
   90SAPC  H10Y 8631   1.253   1.918   4.532 -1.0749  0.0089  2.3170
   90SAPC  C311 8632   1.171   2.086   4.397  0.4046  0.4418 -0.2993
   90SAPC  H11X 8633   1.268   2.092   4.343  0.6811  0.0217  0.1486
   90SAPC  H11Y 8634   1.166   2.159   4.480  1.0824 -1.3516  1.4070
   90SAPC  C312 8635   1.060   2.120   4.295 -0.6413  0.5377 -0.2450
   90SAPC  H12X 8636   0.968   2.120   4.359 -0.3407 -0.7200  0.2275
   90SAPC  H12Y 8637   1.059   2.040   4.218  0.5078 -2.1964  2.3575
   90SAPC  C313 8638   1.095   2.256   4.220 -0.6672  0.2257  0.6563
   90SAPC  H13X 8639   1.204   2.253   4.195 -0.5202  1.2210  1.1347
   90SAPC  H13Y 8640   1.072   2.330   4.299 -0.6640 -0.5893  1.4385
   90SAPC  C314 8641   1.013   2.293   4.094 -0.3847 -0.0393  0.4706
   90SAPC  H14X 8642   1.053   2.387   4.051 -2.1651  0.2565 -0.6221
   90SAPC  H14Y 8643   0.909   2.303   4.131 -0.1038 -0.4099  1.3985
   90SAPC  C315 8644   1.034   2.194   3.972 -0.3411  0.3362 -0.9433
   90SAPC  H15X 8645   0.988   2.093   3.982 -0.0258  0.0910 -1.8591
   90SAPC  H15Y 8646   1.144   2.182   3.971 -0.6246 -3.6522  0.0108
   90SAPC  C316 8647   0.983   2.249   3.843 -0.2681 -0.1056 -0.0070
   90SAPC  H16X 8648   1.014   2.185   3.757  0.4048  0.1355  0.0498
   90SAPC  H16Y 8649   1.027   2.349   3.821  0.6743 -0.1538  1.4875
   90SAPC  C317 8650   0.828   2.260   3.832  0.6399 -0.2380  0.3488
   90SAPC  H17X 8651   0.804   2.332   3.752 -3.1990 -1.3679  0.2604
   90SAPC  H17Y 8652   0.785   2.301   3.927  3.2683  0.7402  1.1907
   90SAPC  C318 8653   0.775   2.124   3.799  0.0537  0.6589  0.4495
   90SAPC  H18X 8654   0.809   2.100   3.696  2.6805 -0.1981  1.4287
   90SAPC  H18Y 8655   0.664   2.122   3.808  0.1247 -0.8297  1.3117
   90SAPC  H18Z 8656   0.823   2.047   3.864 -1.0795 -1.9167 -1.5537
   91SAPC     N 8657   4.860   6.480   5.957  0.4435  0.3228  0.3807
   91SAPC   C12 8658   4.907   6.469   5.815 -0.5696 -0.2149 -0.2862
   91SAPC  H12A 8659   4.898   6.568   5.771 -0.0853  0.4030  0.9462
   91SAPC  H12B 8660   4.856   6.394   5.756 -1.8419  0.6495 -0.3304
   91SAPC   C13 8661   4.710   6.491   5.966  0.2168 -0.1623  0.0212
   91SAPC  H13A 8662   4.685   6.567   5.894 -1.2664 -1.4427 -0.8742
   91SAPC  H13B 8663   4.661   6.398   5.941 -1.0246  0.4053  0.3263
   91SAPC  H13C 8664   4.678   6.524   6.063  1.4987 -1.7252  1.0322
   91SAPC   C14 8665   4.895   6.347   6.029 -0.0939 -0.1044  0.3173
   91SAPC  H14A 8666   5.001   6.325   6.027 -0.0800 -0.2726  1.8581
   91SAPC  H14B 8667   4.856   6.337   6.129 -1.5269 -1.5090 -0.3141
   91SAPC  H14C 8668   4.844   6.267   5.977 -0.0164 -0.5710  0.9528
   91SAPC   C15 8669   4.907   6.595   6.025  0.0292 -0.5717 -0.1536
   91SAPC  H15A 8670   4.900   6.588   6.132 -0.4539 -1.7540 -0.2432
   91SAPC  H15B 8671   5.013   6.609   6.014 -0.1455  0.8559 -0.2135
   91SAPC  H15C 8672   4.870   6.691   5.993  1.6245 -0.5374 -2.0720
   91SAPC   C11 8673   5.055   6.441   5.808  0.6646 -0.2987 -0.0294
   91SAPC  H11A 8674   5.070   6.414   5.701 -0.4835 -0.3174 -0.1917
   91SAPC  H11B 8675   5.085   6.351   5.866  0.0431 -0.8013 -0.4694
   91SAPC     P 8676   5.165   6.691   5.772 -0.1249  0.1886 -0.0189
   91SAPC   O13 8677   5.032   6.744   5.736 -0.0787 -0.1788  0.2373
   91SAPC   O14 8678   5.252   6.786   5.849 -0.5911  0.0410  0.6718
   91SAPC   O12 8679   5.138   6.558   5.850 -0.1885 -0.2085 -0.0358
   91SAPC   O11 8680   5.239   6.636   5.646 -0.1353 -0.0642 -0.2382
   91SAPC    C1 8681   5.326   6.525   5.629 -0.8334  0.2577  0.0554
   91SAPC    HA 8682   5.307   6.454   5.712  0.6038 -1.4099 -0.9607
   91SAPC    HB 8683   5.305   6.473   5.534 -0.9124  2.3715 -1.1348
   91SAPC    C2 8684   5.477   6.563   5.631 -0.4015  0.6690  0.1774
   91SAPC    HS 8685   5.500   6.629   5.717  3.4177  0.3066 -0.4188
   91SAPC   O21 8686   5.515   6.636   5.506 -0.4468 -0.0002 -0.2392
   91SAPC   C21 8687   5.508   6.773   5.513 -0.8279  1.0419 -0.2710
   91SAPC   O22 8688   5.490   6.839   5.612  0.4424  0.0165 -0.1583
   91SAPC   C22 8689   5.539   6.825   5.378 -0.3907  0.8542  1.1584
   91SAPC   H2R 8690   5.500   6.758   5.299  1.5555 -0.2698  1.0909
   91SAPC   H2S 8691   5.488   6.920   5.351  0.0497  0.7246 -0.1885
   91SAPC    C3 8692   5.575   6.448   5.640  0.1040  0.0130  0.5084
   91SAPC    HX 8693   5.558   6.393   5.735  0.5935  0.6545  0.9697
   91SAPC    HY 8694   5.680   6.484   5.643  0.9137 -1.9862 -1.2912
   91SAPC   O31 8695   5.554   6.356   5.534 -0.2315  0.3091  0.3007
   91SAPC   C31 8696   5.626   6.368   5.421 -0.2691 -0.3058  0.0805
   91SAPC   O32 8697   5.730   6.427   5.405 -0.7803 -0.1416  0.3714
   91SAPC   C32 8698   5.556   6.286   5.313  0.4873 -0.1918 -0.2164
   91SAPC   H2X 8699   5.536   6.183   5.352 -1.6718 -0.3531 -1.5813
   91SAPC   H2Y 8700   5.610   6.267   5.217  1.8142  0.7058  0.3250
   91SAPC   C23 8701   5.690   6.835   5.356  0.3982  0.0767  0.0957
   91SAPC   H3R 8702   5.740   6.736   5.355  0.8409  0.2844 -1.8365
   91SAPC   H3S 8703   5.732   6.894   5.440  2.0915 -0.6037 -0.2356
   91SAPC   C24 8704   5.728   6.901   5.225 -0.1784  0.0523 -0.4030
   91SAPC   H4R 8705   5.836   6.926   5.227 -0.7899  3.0747  0.3266
   91SAPC   H4S 8706   5.678   7.000   5.226  0.4563  0.3813 -0.7434
   91SAPC   C25 8707   5.713   6.839   5.094  0.4268 -0.0106  0.5179
   91SAPC   H5R 8708   5.727   6.730   5.102 -2.3416 -0.4172  0.8142
   91SAPC   C26 8709   5.669   6.893   4.975 -0.0103  0.2558  0.5149
   91SAPC   H6R 8710   5.670   6.823   4.890  3.8363  0.6797  0.0564
   91SAPC   C27 8711   5.624   7.035   4.946 -0.2243  0.0990  0.1266
   91SAPC   H7R 8712   5.708   7.106   4.963  0.3819 -1.1184  2.7434
   91SAPC   H7S 8713   5.548   7.068   5.019  1.3813  0.1301  1.8431
   91SAPC   C28 8714   5.581   7.050   4.802 -0.3502  0.0589  0.1219
   91SAPC   H8R 8715   5.471   7.044   4.794 -0.7429  1.0578  3.3809
   91SAPC   C29 8716   5.665   7.054   4.692  0.3728 -0.4108 -0.1544
   91SAPC   H9R 8717   5.627   7.063   4.590 -0.1514 -2.2908 -0.1771
   91SAPC  C210 8718   5.819   7.053   4.688 -0.3468  0.1073 -0.2608
   91SAPC  H10R 8719   5.850   6.947   4.699 -1.7600 -0.2773  0.2238
   91SAPC  H10S 8720   5.850   7.102   4.783 -0.5112  1.8718 -1.0813
   91SAPC  C211 8721   5.891   7.105   4.568  0.6317  0.2743  0.2354
   91SAPC  H11R 8722   5.956   7.192   4.589 -0.6372  1.2342  0.3296
   91SAPC  C212 8723   5.897   7.053   4.447  0.1446  0.6262  0.1124
   91SAPC  H12R 8724   5.956   7.104   4.370 -1.1451  1.7863 -0.1357
   91SAPC  C213 8725   5.840   6.918   4.398  0.1232 -0.0255  0.0818
   91SAPC  H13R 8726   5.793   6.859   4.480  0.0379 -0.3873 -0.2229
   91SAPC  H13S 8727   5.925   6.854   4.367  0.3275 -0.0769  0.7262
   91SAPC  C214 8728   5.734   6.909   4.294 -0.3862 -0.1542  0.4862
   91SAPC  H14R 8729   5.645   6.972   4.307 -2.9272 -2.8958 -2.1571
   91SAPC  C215 8730   5.742   6.849   4.171  0.5153 -0.6897  0.3367
   91SAPC  H15R 8731   5.667   6.871   4.094  1.0554  1.1521  0.2698
   91SAPC  C216 8732   5.856   6.762   4.115 -0.4110 -0.7070 -0.0381
   91SAPC  H16R 8733   5.818   6.669   4.067 -0.5448 -0.8530  0.3537
   91SAPC  H16S 8734   5.926   6.733   4.195 -2.6860 -1.1855  1.8824
   91SAPC  C217 8735   5.938   6.839   4.012  0.2607  1.4507  0.5432
   91SAPC  H17R 8736   5.887   6.851   3.913  2.3327  2.7806 -0.4367
   91SAPC  H17S 8737   6.024   6.773   3.990 -0.2847  1.0470 -0.4785
   91SAPC  C218 8738   5.997   6.971   4.049  0.0400  0.4731 -0.1762
   91SAPC  H18R 8739   6.062   6.972   4.139  1.2607  0.3097 -1.0255
   91SAPC  H18S 8740   5.913   7.040   4.072 -0.6540 -0.4935  0.2444
   91SAPC  C219 8741   6.086   7.041   3.951 -0.6267 -0.4383  0.0662
   91SAPC  H19R 8742   6.035   7.054   3.853 -0.4954 -1.0482 -0.0871
   91SAPC  H19S 8743   6.177   6.980   3.934 -0.5289 -0.0940 -0.6793
   91SAPC  C220 8744   6.135   7.177   3.993  0.3105 -0.9371  0.4396
   91SAPC  H20R 8745   6.211   7.173   4.074  1.0486 -0.9364 -0.2366
   91SAPC  H20S 8746   6.054   7.242   4.032  0.1752 -0.2673 -0.8847
   91SAPC  H20T 8747   6.184   7.229   3.907 -1.8893  1.4316  0.4999
   91SAPC   C33 8748   5.433   6.354   5.253  0.7740 -0.4613  0.7940
   91SAPC   H3X 8749   5.363   6.380   5.335  1.4254  0.2080  1.1497
   91SAPC   H3Y 8750   5.381   6.278   5.190  2.7437 -1.1131 -0.1380
   91SAPC   C34 8751   5.471   6.476   5.154 -0.0246 -0.4789  0.0177
   91SAPC   H4X 8752   5.555   6.447   5.087  1.4015  0.8608  1.1457
   91SAPC   H4Y 8753   5.527   6.544   5.222 -0.2393 -2.7125  2.6246
   91SAPC   C35 8754   5.342   6.540   5.102  0.5468 -0.0804 -0.3329
   91SAPC   H5X 8755   5.295   6.590   5.189  1.0755  0.7070 -0.4872
   91SAPC   H5Y 8756   5.280   6.455   5.065 -0.2925  0.6689 -0.6692
   91SAPC   C36 8757   5.373   6.656   5.010  0.6631 -0.2422 -0.8279
   91SAPC   H6X 8758   5.466   6.710   5.039  1.0494 -1.3170 -0.0131
   91SAPC   H6Y 8759   5.289   6.729   5.005  2.4230  2.1385  1.0884
   91SAPC   C37 8760   5.386   6.602   4.865  0.4305  0.2920 -0.3609
   91SAPC   H7X 8761   5.293   6.544   4.846 -0.1226  0.6535  1.0834
   91SAPC   H7Y 8762   5.459   6.519   4.860 -1.5316 -1.6391  0.8655
   91SAPC   C38 8763   5.413   6.713   4.765  0.2943  0.0458 -0.2368
   91SAPC   H8X 8764   5.522   6.735   4.767  0.5166 -0.9887 -0.6655
   91SAPC   H8Y 8765   5.369   6.810   4.797  1.3380  0.1473  0.9961
   91SAPC   C39 8766   5.367   6.672   4.631 -0.3196 -0.4310  0.1186
   91SAPC   H9X 8767   5.256   6.683   4.633 -0.1746  1.1024  0.8469
   91SAPC   H9Y 8768   5.402   6.568   4.617  0.7931 -0.4304  2.3623
   91SAPC  C310 8769   5.426   6.769   4.526 -0.5966 -0.2971 -0.5425
   91SAPC  H10X 8770   5.536   6.757   4.533 -0.5940 -0.3160 -0.6204
   91SAPC  H10Y 8771   5.422   6.878   4.547 -2.4442  0.4186 -3.8183
   91SAPC  C311 8772   5.394   6.760   4.371 -0.0416  0.2987 -0.0540
   91SAPC  H11X 8773   5.435   6.662   4.340  0.7318  0.4799  0.3665
   91SAPC  H11Y 8774   5.458   6.827   4.309  0.8095 -1.0467 -0.6647
   91SAPC  C312 8775   5.237   6.776   4.333 -0.3075 -0.3860  0.1964
   91SAPC  H12X 8776   5.202   6.872   4.375  0.5829 -0.0623  0.2174
   91SAPC  H12Y 8777   5.192   6.691   4.388  0.6193 -0.3814  0.9961
   91SAPC  C313 8778   5.214   6.743   4.177  0.3608  0.1774 -0.7508
   91SAPC  H13X 8779   5.115   6.695   4.162  0.3351  0.6353 -2.1838
   91SAPC  H13Y 8780   5.295   6.671   4.153  0.2995 -0.3307  0.4877
   91SAPC  C314 8781   5.219   6.875   4.100 -0.1286  0.4733  0.0077
   91SAPC  H14X 8782   5.321   6.918   4.106 -0.8625  2.0976  1.6073
   91SAPC  H14Y 8783   5.151   6.946   4.151  1.4699  0.8125  1.7607
   91SAPC  C315 8784   5.184   6.842   3.947  0.2292  0.1381  0.2290
   91SAPC  H15X 8785   5.080   6.803   3.947  0.4736 -0.7339 -2.2760
   91SAPC  H15Y 8786   5.229   6.746   3.916 -0.6997 -0.3242  0.2808
   91SAPC  C316 8787   5.188   6.958   3.838 -0.4344  0.2966 -0.1517
   91SAPC  H16X 8788   5.160   6.910   3.742  1.0856 -3.2349  0.9761
   91SAPC  H16Y 8789   5.291   6.998   3.830  0.3919 -1.6257  0.3178
   91SAPC  C317 8790   5.079   7.060   3.855 -0.7148  0.1570  0.3254
   91SAPC  H17X 8791   5.104   7.121   3.944  1.3253 -0.6776  0.3691
   91SAPC  H17Y 8792   4.979   7.015   3.872 -1.5092  1.8577  0.4216
   91SAPC  C318 8793   5.069   7.161   3.738 -0.0161 -0.1663 -0.1345
   91SAPC  H18X 8794   5.174   7.190   3.714 -0.0901 -0.6740 -1.1419
   91SAPC  H18Y 8795   5.012   7.253   3.764 -0.7137  0.1442 -2.5197
   91SAPC  H18Z 8796   5.041   7.120   3.639  1.5874  1.5816 -1.4044
   92SAPC     N 8797   6.412   5.747   6.181 -0.0823 -0.1815  0.4049
   92SAPC   C12 8798   6.569   5.761   6.178  0.1865 -0.2178  0.2723
   92SAPC  H12A 8799   6.607   5.672   6.226 -0.1547  0.2518  1.4573
   92SAPC  H12B 8800   6.597   5.853   6.229  0.3231  1.1868 -2.1874
   92SAPC   C13 8801   6.372   5.643   6.086 -0.6208  0.2379 -0.8895
   92SAPC  H13A 8802   6.401   5.549   6.131 -2.8687 -0.1521 -0.1267
   92SAPC  H13B 8803   6.265   5.650   6.074 -0.9130  1.6033  1.7755
   92SAPC  H13C 8804   6.410   5.652   5.985 -0.2265  2.9264 -0.5717
   92SAPC   C14 8805   6.364   5.728   6.320  0.4432 -0.7445  0.5608
   92SAPC  H14A 8806   6.368   5.822   6.372  0.2648  0.6734 -1.8376
   92SAPC  H14B 8807   6.265   5.684   6.327  0.7463 -1.4102  0.7385
   92SAPC  H14C 8808   6.416   5.642   6.359  2.2166  0.3457  0.7021
   92SAPC   C15 8809   6.353   5.880   6.131  0.2766 -0.4608  0.3470
   92SAPC  H15A 8810   6.379   5.955   6.204 -2.6880  1.1636 -0.0906
   92SAPC  H15B 8811   6.399   5.912   6.038  1.0143 -0.3940  0.7201
   92SAPC  H15C 8812   6.247   5.881   6.114  0.3791  1.9953 -0.6335
   92SAPC   C11 8813   6.633   5.772   6.037 -1.1074  0.6004  0.0870
   92SAPC  H11A 8814   6.617   5.684   5.972 -0.3449  0.4087  0.1444
   92SAPC  H11B 8815   6.740   5.769   6.066 -1.1225 -0.8962  0.0358
   92SAPC     P 8816   6.693   6.006   5.925  0.6076 -0.1573 -0.0883
   92SAPC   O13 8817   6.615   6.122   5.894  0.4393 -0.2657  0.2707
   92SAPC   O14 8818   6.812   6.024   6.013 -0.4306 -0.0217  0.0636
   92SAPC   O12 8819   6.603   5.892   5.977 -0.3220  0.0778  0.2003
   92SAPC   O11 8820   6.742   5.947   5.791  0.0166  0.0941  0.7685
   92SAPC    C1 8821   6.842   5.855   5.771  0.8945 -0.2400 -0.5596
   92SAPC    HA 8822   6.874   5.799   5.862 -2.4031  1.5272  1.8930
   92SAPC    HB 8823   6.814   5.769   5.706  1.6417 -0.6239 -0.3925
   92SAPC    C2 8824   6.958   5.922   5.702  0.2646  0.1176 -0.2138
   92SAPC    HS 8825   6.973   6.016   5.758 -1.3187 -0.7616  1.8215
   92SAPC   O21 8826   6.922   5.950   5.568  0.2282 -0.1816 -0.4345
   92SAPC   C21 8827   6.991   6.040   5.509 -0.6762  0.3742  0.1263
   92SAPC   O22 8828   7.074   6.114   5.558 -0.3531  0.1699 -0.4810
   92SAPC   C22 8829   6.951   6.053   5.357 -0.2184  0.6036 -0.0316
   92SAPC   H2R 8830   6.840   6.052   5.346 -0.3775  0.6460  1.3735
   92SAPC   H2S 8831   6.999   6.146   5.320  0.4633 -0.1157 -0.9771
   92SAPC    C3 8832   7.080   5.829   5.712  0.1622  0.6634 -0.1161
   92SAPC    HX 8833   7.095   5.824   5.821 -0.2667  2.1144  0.0312
   92SAPC    HY 8834   7.164   5.877   5.657  0.8561  0.5575  0.8361
   92SAPC   O31 8835   7.041   5.703   5.654 -0.6063  0.4618  0.4342
   92SAPC   C31 8836   7.140   5.612   5.659 -0.3415  0.4446 -0.7036
   92SAPC   O32 8837   7.247   5.623   5.718  0.4821 -0.4135 -0.1634
   92SAPC   C32 8838   7.104   5.494   5.574  0.3099 -0.0665 -0.4646
   92SAPC   H2X 8839   7.000   5.516   5.543  0.1740  0.3626  0.2638
   92SAPC   H2Y 8840   7.121   5.402   5.635  0.1526 -0.1983 -0.6166
   92SAPC   C23 8841   7.025   5.936   5.288  0.5305  0.1667 -0.1600
   92SAPC   H3R 8842   6.973   5.847   5.328  2.1048 -0.4903  0.5286
   92SAPC   H3S 8843   7.129   5.933   5.328 -0.1969 -0.3739  1.8309
   92SAPC   C24 8844   7.024   5.942   5.133 -0.2817 -0.3248 -0.1138
   92SAPC   H4R 8845   7.095   5.870   5.088  1.4052  1.5623 -0.5731
   92SAPC   H4S 8846   7.062   6.044   5.110 -0.1389  0.3355  2.6531
   92SAPC   C25 8847   6.887   5.923   5.085 -0.2087 -0.9428 -0.3789
   92SAPC   H5R 8848   6.822   5.863   5.150  0.1488 -0.7121  0.1945
   92SAPC   C26 8849   6.837   5.980   4.970 -0.7232  0.5723  0.5254
   92SAPC   H6R 8850   6.732   5.969   4.939 -0.8113 -0.1342  1.0575
   92SAPC   C27 8851   6.918   6.071   4.877 -0.8488 -0.2497  0.3962
   92SAPC   H7R 8852   7.007   6.114   4.927 -1.0851 -0.0828  0.6726
   92SAPC   H7S 8853   6.858   6.164   4.867  0.8112  0.7554 -0.8859
   92SAPC   C28 8854   6.963   6.004   4.746 -0.0333 -0.1097  0.1256
   92SAPC   H8R 8855   7.014   5.906   4.752 -1.2866 -0.7990 -0.1692
   92SAPC   C29 8856   6.943   6.054   4.622 -0.8341  0.0241 -0.0151
   92SAPC   H9R 8857   7.001   6.004   4.542  1.7215  0.7441  1.2773
   92SAPC  C210 8858   6.867   6.176   4.581 -0.8699 -0.7180  0.1865
   92SAPC  H10R 8859   6.926   6.250   4.523 -0.0870 -1.4593  0.0019
   92SAPC  H10S 8860   6.849   6.230   4.676  0.5204 -2.9018  1.8073
   92SAPC  C211 8861   6.734   6.138   4.510 -0.4462  0.1892 -0.0353
   92SAPC  H11R 8862   6.682   6.059   4.566  2.1125 -1.8489 -0.2944
   92SAPC  C212 8863   6.680   6.200   4.407 -0.1157  0.0080  0.7341
   92SAPC  H12R 8864   6.581   6.165   4.376 -0.2791  1.7039 -0.8058
   92SAPC  C213 8865   6.736   6.313   4.327  0.3328 -0.3198 -0.5663
   92SAPC  H13R 8866   6.800   6.272   4.245  0.8764  1.8994 -1.3056
   92SAPC  H13S 8867   6.809   6.366   4.391  1.7844 -2.1400 -0.6096
   92SAPC  C214 8868   6.630   6.401   4.274 -0.7656 -0.5901 -0.0123
   92SAPC  H14R 8869   6.571   6.461   4.344  1.9596  2.9826 -0.4722
   92SAPC  C215 8870   6.589   6.404   4.148 -0.5199  0.2768 -0.1230
   92SAPC  H15R 8871   6.518   6.481   4.116 -0.8914  0.7006  1.6385
   92SAPC  C216 8872   6.640   6.327   4.031  1.0693  0.2351  0.0335
   92SAPC  H16R 8873   6.566   6.246   4.012  0.2436  1.1140 -0.5588
   92SAPC  H16S 8874   6.731   6.274   4.068  0.0745 -0.3136  1.8044
   92SAPC  C217 8875   6.667   6.414   3.906 -0.2830  0.4170 -0.4045
   92SAPC  H17R 8876   6.745   6.491   3.926  1.9621 -1.4300 -1.5385
   92SAPC  H17S 8877   6.570   6.463   3.880 -1.9462 -2.3920  0.1330
   92SAPC  C218 8878   6.709   6.326   3.791  0.0178 -0.1717 -0.4089
   92SAPC  H18R 8879   6.682   6.370   3.693 -0.4091 -1.8816 -1.1100
   92SAPC  H18S 8880   6.658   6.227   3.788 -0.7582  0.2410 -2.4573
   92SAPC  C219 8881   6.862   6.301   3.789  0.5960 -0.2178  0.4685
   92SAPC  H19R 8882   6.897   6.234   3.870 -1.5227  0.0528  1.6747
   92SAPC  H19S 8883   6.910   6.401   3.795 -0.0016  0.1037 -0.0051
   92SAPC  C220 8884   6.899   6.239   3.658  0.2649  0.5617  0.3936
   92SAPC  H20R 8885   7.008   6.223   3.643  0.1461  2.0603 -3.0372
   92SAPC  H20S 8886   6.866   6.306   3.576 -0.0086  0.9747  0.8349
   92SAPC  H20T 8887   6.840   6.146   3.642  1.5355 -0.1593 -0.2534
   92SAPC   C33 8888   7.198   5.471   5.450  0.8721  0.2505 -0.3417
   92SAPC   H3X 8889   7.166   5.373   5.407 -2.9548  1.7291 -1.3121
   92SAPC   H3Y 8890   7.306   5.458   5.471  1.2741  1.1994 -1.7167
   92SAPC   C34 8891   7.177   5.574   5.335  0.5194  0.7637  0.3867
   92SAPC   H4X 8892   7.225   5.667   5.373 -0.6917  1.3589  0.4893
   92SAPC   H4Y 8893   7.068   5.594   5.323  0.0091 -1.6802  0.5769
   92SAPC   C35 8894   7.239   5.525   5.203  0.5362 -0.2194  0.1388
   92SAPC   H5X 8895   7.214   5.419   5.181  2.5384 -0.5178 -0.9400
   92SAPC   H5Y 8896   7.350   5.519   5.204  0.5309 -0.4135 -0.2204
   92SAPC   C36 8897   7.182   5.602   5.083  0.0422  0.6337  0.6780
   92SAPC   H6X 8898   7.223   5.705   5.092  1.8907  0.1005 -1.0017
   92SAPC   H6Y 8899   7.071   5.592   5.088  0.1034 -0.9032 -0.4140
   92SAPC   C37 8900   7.233   5.546   4.947  0.2938  0.0939  0.2430
   92SAPC   H7X 8901   7.205   5.438   4.943 -0.8436  0.4025 -0.6102
   92SAPC   H7Y 8902   7.343   5.557   4.939  0.0326  1.3865 -2.9521
   92SAPC   C38 8903   7.172   5.626   4.833  0.1281  0.2208  0.0277
   92SAPC   H8X 8904   7.175   5.735   4.854  2.1235  0.0077  1.1574
   92SAPC   H8Y 8905   7.067   5.593   4.821  0.6118 -0.7166 -2.2173
   92SAPC   C39 8906   7.241   5.604   4.702 -0.6443 -0.9736  1.3299
   92SAPC   H9X 8907   7.253   5.494   4.691 -1.3826 -1.0981  1.7239
   92SAPC   H9Y 8908   7.346   5.642   4.706 -0.8117 -0.4969  1.2111
   92SAPC  C310 8909   7.169   5.684   4.595  0.2026  0.1386  0.3447
   92SAPC  H10X 8910   7.200   5.791   4.597 -1.3468  0.6387 -0.8048
   92SAPC  H10Y 8911   7.059   5.680   4.605  0.0337  1.8720 -0.4047
   92SAPC  C311 8912   7.201   5.643   4.456  0.0703  0.3548  0.7385
   92SAPC  H11X 8913   7.310   5.622   4.459 -0.0884 -0.6439  0.0625
   92SAPC  H11Y 8914   7.182   5.724   4.383  0.2161  0.1254  0.4434
   92SAPC  C312 8915   7.126   5.514   4.421 -0.2504  0.3666  0.0370
   92SAPC  H12X 8916   7.018   5.539   4.418 -0.0417  1.2281 -0.6406
   92SAPC  H12Y 8917   7.152   5.426   4.484  1.2784  0.4176 -0.4829
   92SAPC  C313 8918   7.168   5.466   4.284 -0.8167  1.0328 -0.1903
   92SAPC  H13X 8919   7.211   5.365   4.296  0.4743  1.5367 -0.4235
   92SAPC  H13Y 8920   7.251   5.531   4.249  1.3983 -0.5837  1.6990
   92SAPC  C314 8921   7.062   5.482   4.183 -0.0994  0.3496 -0.3122
   92SAPC  H14X 8922   7.105   5.475   4.080  0.3905  0.9231 -0.1542
   92SAPC  H14Y 8923   7.031   5.589   4.181 -0.1961  0.3724  1.4420
   92SAPC  C315 8924   6.943   5.393   4.197 -0.2731 -0.2192  0.6262
   92SAPC  H15X 8925   6.884   5.423   4.286 -3.1544 -3.0863 -0.1271
   92SAPC  H15Y 8926   6.974   5.290   4.224 -0.9677 -0.2891  1.1721
   92SAPC  C316 8927   6.854   5.389   4.074 -0.2978  0.0539  0.5546
   92SAPC  H16X 8928   6.912   5.317   4.012  1.3547  1.0025  0.9491
   92SAPC  H16Y 8929   6.859   5.484   4.018 -0.2390 -0.1467  0.2148
   92SAPC  C317 8930   6.713   5.334   4.101  0.0596  0.2365 -0.1106
   92SAPC  H17X 8931   6.648   5.398   4.164  0.8229  1.0296 -0.1083
   92SAPC  H17Y 8932   6.717   5.235   4.150 -0.5203  0.1516 -0.2310
   92SAPC  C318 8933   6.649   5.306   3.965  0.3324  0.8758  0.0639
   92SAPC  H18X 8934   6.555   5.248   3.973  0.5016  0.5116 -0.4952
   92SAPC  H18Y 8935   6.723   5.253   3.901 -0.4975 -0.3769  0.1225
   92SAPC  H18Z 8936   6.612   5.405   3.932 -1.8972  0.3424  0.8040
   93SAPC     N 8937   6.552   0.405   6.290  0.1646  0.4587 -0.1838
   93SAPC   C12 8938   6.425   0.318   6.260  0.3288 -0.5985  0.5643
   93SAPC  H12A 8939   6.396   0.341   6.158 -1.9037 -1.9003  0.8207
   93SAPC  H12B 8940   6.338   0.353   6.315  1.0025  0.9898  0.6609
   93SAPC   C13 8941   6.666   0.394   6.200  0.1729 -0.7179  0.4379
   93SAPC  H13A 8942   6.709   0.296   6.195  2.2576  0.0889  1.4220
   93SAPC  H13B 8943   6.626   0.426   6.105 -0.8746  1.8483  1.6276
   93SAPC  H13C 8944   6.746   0.462   6.224 -0.7197  0.1625  1.0059
   93SAPC   C14 8945   6.507   0.545   6.283  0.4117 -0.4823  0.5516
   93SAPC  H14A 8946   6.591   0.610   6.303 -1.3639  2.7356 -1.4878
   93SAPC  H14B 8947   6.467   0.576   6.188 -1.3090  0.3965  1.5024
   93SAPC  H14C 8948   6.436   0.569   6.361  0.2955 -2.3800  1.0793
   93SAPC   C15 8949   6.602   0.370   6.427 -0.2757  0.1462 -0.0627
   93SAPC  H15A 8950   6.520   0.378   6.496  0.5117 -0.4729  0.9754
   93SAPC  H15B 8951   6.647   0.272   6.430 -0.4043  0.1038  1.5797
   93SAPC  H15C 8952   6.684   0.436   6.455 -0.4606  0.5081 -0.3621
   93SAPC   C11 8953   6.445   0.165   6.267  0.1252 -0.3769  0.6532
   93SAPC  H11A 8954   6.344   0.123   6.253  0.2219 -0.0822 -1.1850
   93SAPC  H11B 8955   6.477   0.143   6.371  0.6588 -0.5900  0.4474
   93SAPC     P 8956   6.504   0.076   6.027  0.3951 -0.1171 -0.5808
   93SAPC   O13 8957   6.576  -0.043   5.978  0.8984  0.6320  0.7517
   93SAPC   O14 8958   6.357   0.069   6.021  0.1998  0.6351  0.2002
   93SAPC   O12 8959   6.543   0.120   6.173  0.0763 -0.4182 -0.4287
   93SAPC   O11 8960   6.548   0.200   5.931 -0.3284  0.3551 -1.3977
   93SAPC    C1 8961   6.690   0.217   5.901  0.6154  0.5017 -0.1186
   93SAPC    HA 8962   6.715   0.324   5.889 -0.1853  1.0686  2.7139
   93SAPC    HB 8963   6.752   0.179   5.984 -0.9813 -0.0031  0.8921
   93SAPC    C2 8964   6.716   0.141   5.759 -0.5088  0.0452  0.1062
   93SAPC    HS 8965   6.729   0.034   5.786 -0.5865  0.1226  0.4545
   93SAPC   O21 8966   6.838   0.187   5.694 -0.2913  0.2419  0.1211
   93SAPC   C21 8967   6.946   0.191   5.767 -0.7079  0.5567 -0.4412
   93SAPC   O22 8968   6.974   0.117   5.863 -0.0960 -0.2513  0.0409
   93SAPC   C22 8969   7.051   0.296   5.716  0.6192 -0.2312 -0.3653
   93SAPC   H2R 8970   7.042   0.304   5.605 -0.3035 -1.3316 -0.3829
   93SAPC   H2S 8971   7.019   0.384   5.776 -1.6768 -1.9328  1.0356
   93SAPC    C3 8972   6.592   0.144   5.668 -0.6732  0.6242  0.3991
   93SAPC    HX 8973   6.557   0.244   5.703 -1.7651  0.5839 -0.5239
   93SAPC    HY 8974   6.523   0.068   5.709 -1.2486  1.4858  1.0814
   93SAPC   O31 8975   6.620   0.130   5.524  0.3508  0.2883  0.1294
   93SAPC   C31 8976   6.652   0.007   5.492  0.5167  0.5439  0.1901
   93SAPC   O32 8977   6.650  -0.093   5.563 -0.7293  0.9707  0.1190
   93SAPC   C32 8978   6.693  -0.005   5.343  0.2340  0.4317  0.0632
   93SAPC   H2X 8979   6.647  -0.102   5.314  1.1423 -0.1081  0.3807
   93SAPC   H2Y 8980   6.802  -0.022   5.334  0.6927  2.0121  1.9138
   93SAPC   C23 8981   7.204   0.254   5.738  0.8279 -0.9405  0.1407
   93SAPC   H3R 8982   7.225   0.232   5.845 -2.5380 -0.4556  1.0350
   93SAPC   H3S 8983   7.274   0.333   5.705 -1.2151  0.1180 -1.9260
   93SAPC   C24 8984   7.231   0.129   5.659  0.0948  0.4158 -0.0862
   93SAPC   H4R 8985   7.160   0.051   5.693 -3.0294  3.0572 -0.1122
   93SAPC   H4S 8986   7.333   0.086   5.674  0.6236  1.7080  0.0886
   93SAPC   C25 8987   7.233   0.144   5.512  0.1995  0.2638  0.4202
   93SAPC   H5R 8988   7.279   0.237   5.473 -0.2891  0.0271 -0.7675
   93SAPC   C26 8989   7.186   0.052   5.424 -0.0541 -0.1163 -0.4529
   93SAPC   H6R 8990   7.186   0.087   5.319 -2.2971  1.0873 -0.1230
   93SAPC   C27 8991   7.121  -0.085   5.444  1.2971 -0.8834 -0.0935
   93SAPC   H7R 8992   7.016  -0.076   5.409  0.9721 -3.0658  0.1534
   93SAPC   H7S 8993   7.104  -0.117   5.549  1.2568  1.5085  0.6817
   93SAPC   C28 8994   7.195  -0.196   5.374  0.4492 -0.3205  0.5951
   93SAPC   H8R 8995   7.267  -0.252   5.436  0.6224 -1.0945 -0.2766
   93SAPC   C29 8996   7.160  -0.241   5.251  0.4655  0.1129 -0.0268
   93SAPC   H9R 8997   7.213  -0.333   5.220 -0.5387 -0.0531 -1.3274
   93SAPC  C210 8998   7.051  -0.207   5.154  0.3292  0.9761  0.7170
   93SAPC  H10R 8999   6.990  -0.121   5.188 -2.5240 -0.1156 -1.2682
   93SAPC  H10S 9000   6.988  -0.297   5.138  1.0051  0.6186 -0.0117
   93SAPC  C211 9001   7.114  -0.167   5.022 -0.3412  0.4361  0.3287
   93SAPC  H11R 9002   7.208  -0.111   5.017 -0.1751  0.1123 -0.2111
   93SAPC  C212 9003   7.069  -0.201   4.897  0.2883  0.5279 -0.4250
   93SAPC  H12R 9004   7.112  -0.143   4.814  2.2956  2.1806  1.6599
   93SAPC  C213 9005   6.957  -0.285   4.855 -0.4358 -0.2284  1.0266
   93SAPC  H13R 9006   6.965  -0.379   4.914  0.7846  0.4755  2.0333
   93SAPC  H13S 9007   6.965  -0.322   4.750  1.5419 -0.1840  1.1221
   93SAPC  C214 9008   6.814  -0.229   4.859  0.0960 -0.2738 -0.6814
   93SAPC  H14R 9009   6.796  -0.145   4.789 -1.8119 -0.3225 -0.2978
   93SAPC  C215 9010   6.710  -0.274   4.928  0.3597 -0.6382 -0.4924
   93SAPC  H15R 9011   6.617  -0.215   4.930  0.5547 -0.0399 -3.9989
   93SAPC  C216 9012   6.707  -0.397   5.005 -0.5803  0.0395  0.4041
   93SAPC  H16R 9013   6.798  -0.461   5.006 -1.7699 -1.8381  3.7781
   93SAPC  H16S 9014   6.627  -0.461   4.963  0.2020 -1.4951  1.1702
   93SAPC  C217 9015   6.682  -0.378   5.157  0.4395  0.0992  0.1717
   93SAPC  H17R 9016   6.592  -0.319   5.186  0.6764  0.4550  0.1815
   93SAPC  H17S 9017   6.768  -0.320   5.195  0.4646  0.2948 -0.1824
   93SAPC  C218 9018   6.681  -0.515   5.231  0.4971  0.0475 -0.5714
   93SAPC  H18R 9019   6.766  -0.575   5.194 -0.3019 -1.5724  0.0966
   93SAPC  H18S 9020   6.585  -0.563   5.202 -0.3690  2.3844 -1.7710
   93SAPC  C219 9021   6.696  -0.516   5.380 -0.2774 -0.3299  0.1669
   93SAPC  H19R 9022   6.792  -0.462   5.396 -0.3339  0.5286 -2.0777
   93SAPC  H19S 9023   6.703  -0.615   5.431 -1.8855  0.7542  2.7208
   93SAPC  C220 9024   6.590  -0.444   5.456 -0.5068  0.1406 -0.1043
   93SAPC  H20R 9025   6.494  -0.499   5.448 -0.2007 -0.5815  1.0390
   93SAPC  H20S 9026   6.579  -0.341   5.414 -0.5771  1.0955  2.1286
   93SAPC  H20T 9027   6.627  -0.441   5.561  0.6673 -3.3767 -0.2882
   93SAPC   C33 9028   6.646   0.103   5.243  0.5270 -0.1855 -0.1780
   93SAPC   H3X 9029   6.680   0.202   5.278 -1.9415  1.3694 -1.8623
   93SAPC   H3Y 9030   6.535   0.106   5.243  0.4319 -1.8394  1.1604
   93SAPC   C34 9031   6.698   0.068   5.105 -0.1686  0.8992  0.0633
   93SAPC   H4X 9032   6.676  -0.039   5.084  2.4719  0.7842 -2.9640
   93SAPC   H4Y 9033   6.809   0.073   5.104 -0.1491  0.7506  0.8736
   93SAPC   C35 9034   6.641   0.157   4.994 -0.1114 -0.2902  1.0048
   93SAPC   H5X 9035   6.685   0.259   4.992  1.1974 -0.8384 -0.3614
   93SAPC   H5Y 9036   6.530   0.160   4.987 -0.0322  0.3768 -0.4224
   93SAPC   C36 9037   6.680   0.097   4.856 -0.6428  0.2642 -0.4885
   93SAPC   H6X 9038   6.623   0.003   4.837  1.4815 -1.1943 -0.0397
   93SAPC   H6Y 9039   6.788   0.073   4.858 -0.4143  1.0260  2.7970
   93SAPC   C37 9040   6.638   0.201   4.750  0.5822  0.3344  0.0879
   93SAPC   H7X 9041   6.698   0.294   4.758 -1.6649  1.8063  0.7484
   93SAPC   H7Y 9042   6.532   0.220   4.778  0.4004 -1.5258  0.8044
   93SAPC   C38 9043   6.630   0.136   4.610 -0.6461 -0.1100 -0.2959
   93SAPC   H8X 9044   6.569   0.044   4.618 -0.0820 -0.3295  2.3079
   93SAPC   H8Y 9045   6.731   0.109   4.572 -0.7753 -1.5531  0.3426
   93SAPC   C39 9046   6.564   0.225   4.503 -0.0096  0.1479  0.8681
   93SAPC   H9X 9047   6.611   0.326   4.509  2.3891 -0.7393 -1.2886
   93SAPC   H9Y 9048   6.454   0.229   4.516 -0.6967 -2.7262 -2.4750
   93SAPC  C310 9049   6.575   0.161   4.361 -0.5195  0.6390  0.0538
   93SAPC  H10X 9050   6.497   0.199   4.291 -0.5826  3.2453  1.4429
   93SAPC  H10Y 9051   6.579   0.050   4.372 -0.9297  0.4806 -1.1646
   93SAPC  C311 9052   6.703   0.213   4.288 -0.4813  0.5820 -0.2063
   93SAPC  H11X 9053   6.792   0.175   4.343 -0.9011  0.7900  0.6323
   93SAPC  H11Y 9054   6.701   0.323   4.277 -0.6823  0.8409  2.0512
   93SAPC  C312 9055   6.711   0.155   4.150 -0.1155  1.0265  0.0205
   93SAPC  H12X 9056   6.630   0.199   4.088 -1.6738 -1.0043  0.5008
   93SAPC  H12Y 9057   6.703   0.045   4.157  1.1154  0.9063 -0.2025
   93SAPC  C313 9058   6.845   0.194   4.082  0.2208 -0.4206 -0.0246
   93SAPC  H13X 9059   6.932   0.183   4.150 -0.4157  1.5532  1.1629
   93SAPC  H13Y 9060   6.836   0.304   4.070 -2.6651 -0.5666  0.1191
   93SAPC  C314 9061   6.865   0.126   3.943  0.3011  0.1106  0.5016
   93SAPC  H14X 9062   6.768   0.083   3.911 -0.5018  2.1028  0.1525
   93SAPC  H14Y 9063   6.946   0.049   3.946  0.4100  0.2179  0.2872
   93SAPC  C315 9064   6.909   0.233   3.838  0.2043  0.1180 -0.3167
   93SAPC  H15X 9065   6.996   0.287   3.881 -0.6946  0.3732  1.2613
   93SAPC  H15Y 9066   6.826   0.306   3.826 -0.0424 -0.2828 -1.0958
   93SAPC  C316 9067   6.950   0.163   3.701  0.1647 -0.4615 -0.1103
   93SAPC  H16X 9068   6.863   0.102   3.670 -0.6414  0.2340  0.7085
   93SAPC  H16Y 9069   7.045   0.108   3.719  1.5709  1.6793 -0.5644
   93SAPC  C317 9070   6.986   0.267   3.586  0.4755  0.1071  0.6144
   93SAPC  H17X 9071   7.026   0.205   3.502 -0.4071 -1.7125  1.4803
   93SAPC  H17Y 9072   7.059   0.341   3.623  0.9691 -0.8188  1.5385
   93SAPC  C318 9073   6.867   0.339   3.522 -0.1826 -0.4090 -0.1478
   93SAPC  H18X 9074   6.819   0.400   3.601  0.1007 -2.6430  1.8568
   93SAPC  H18Y 9075   6.802   0.261   3.477 -1.1810  0.1801  0.2482
   93SAPC  H18Z 9076   6.912   0.392   3.435  1.6719 -2.1486 -0.3035
   94SAPC     N 9077   6.775   6.820   6.095  0.7152  0.2137 -0.6730
   94SAPC   C12 9078   6.823   6.784   5.958  0.4353 -0.2906 -0.2184
   94SAPC  H12A 9079   6.756   6.832   5.887 -3.5481 -1.8741  2.1033
   94SAPC  H12B 9080   6.807   6.678   5.945  1.4261 -0.4862  0.0910
   94SAPC   C13 9081   6.632   6.764   6.110 -0.3487 -0.6814  0.3392
   94SAPC  H13A 9082   6.600   6.772   6.213  0.3773  0.4669  0.4960
   94SAPC  H13B 9083   6.562   6.826   6.056 -0.7744 -0.3048  1.3116
   94SAPC  H13C 9084   6.619   6.664   6.072 -2.9549  0.3245 -1.7757
   94SAPC   C14 9085   6.856   6.754   6.202  0.1013  0.3721  0.6461
   94SAPC  H14A 9086   6.957   6.794   6.202 -0.4286  1.9586 -1.8764
   94SAPC  H14B 9087   6.810   6.762   6.299 -1.8198 -0.8835 -0.1188
   94SAPC  H14C 9088   6.853   6.649   6.177 -0.1330  0.3863  0.6158
   94SAPC   C15 9089   6.777   6.963   6.126  0.3671  0.5192  0.5166
   94SAPC  H15A 9090   6.877   7.001   6.137  0.3991  1.2760 -1.7572
   94SAPC  H15B 9091   6.710   7.011   6.055 -0.3136 -0.8286  0.2228
   94SAPC  H15C 9092   6.723   6.981   6.218 -0.1117  0.5077  0.2450
   94SAPC   C11 9093   6.963   6.829   5.916  0.0423 -0.9170 -0.0691
   94SAPC  H11A 9094   6.963   6.940   5.906  0.3281 -0.9429 -0.3536
   94SAPC  H11B 9095   6.970   6.795   5.811 -1.2813 -1.3055 -0.0531
   94SAPC     P 9096   7.200   6.883   6.023  0.0358  0.1071 -0.2130
   94SAPC   O13 9097   7.174   6.997   6.106  0.4982 -0.8404  0.5532
   94SAPC   O14 9098   7.305   6.796   6.076 -0.1924  0.5560 -0.0311
   94SAPC   O12 9099   7.069   6.796   5.998  0.2480  0.6914 -0.3137
   94SAPC   O11 9100   7.235   6.925   5.885  0.4723  0.2932 -0.1280
   94SAPC    C1 9101   7.233   6.840   5.766 -0.3049 -0.1774  0.0756
   94SAPC    HA 9102   7.189   6.741   5.793  1.7176 -1.0114  0.4675
   94SAPC    HB 9103   7.171   6.888   5.688 -0.7793  0.4893  0.8497
   94SAPC    C2 9104   7.376   6.811   5.712  0.6166  0.3176  0.3136
   94SAPC    HS 9105   7.444   6.780   5.794 -0.4636 -1.2061  0.6806
   94SAPC   O21 9106   7.422   6.930   5.643  0.2478  0.2290  0.5962
   94SAPC   C21 9107   7.548   6.932   5.601  0.0562 -0.2655  0.4979
   94SAPC   O22 9108   7.633   6.853   5.635  0.3619 -0.0479  0.3867
   94SAPC   C22 9109   7.575   7.064   5.520  0.0995 -0.2612  0.0091
   94SAPC   H2R 9110   7.479   7.114   5.493 -0.7627  0.1039  3.2819
   94SAPC   H2S 9111   7.625   7.139   5.585  0.9057 -1.0352  0.2859
   94SAPC    C3 9112   7.363   6.680   5.618  0.0659 -0.0702 -0.7643
   94SAPC    HX 9113   7.362   6.598   5.693  1.5736 -0.8591 -1.5555
   94SAPC    HY 9114   7.458   6.668   5.561  1.2372 -2.5154  1.4783
   94SAPC   O31 9115   7.237   6.678   5.540 -0.2608  0.4431  0.2662
   94SAPC   C31 9116   7.223   6.565   5.484  1.2946  0.9104 -0.2470
   94SAPC   O32 9117   7.307   6.480   5.472 -0.0971  0.6497 -0.0347
   94SAPC   C32 9118   7.084   6.548   5.420  1.0084  0.0499  0.6574
   94SAPC   H2X 9119   7.054   6.638   5.363  1.1943  1.4146  2.6378
   94SAPC   H2Y 9120   7.011   6.541   5.503  0.8271 -2.7955  0.3670
   94SAPC   C23 9121   7.659   7.030   5.393  0.1293  0.6150  0.2898
   94SAPC   H3R 9122   7.595   6.977   5.319 -0.7953  0.0391  1.4689
   94SAPC   H3S 9123   7.733   6.952   5.422  0.5181  1.2029  0.8952
   94SAPC   C24 9124   7.741   7.153   5.329 -0.2835  0.2384  0.3274
   94SAPC   H4R 9125   7.821   7.184   5.401  1.8186 -1.0893 -1.3312
   94SAPC   H4S 9126   7.663   7.231   5.315 -2.4846 -2.0160 -0.7656
   94SAPC   C25 9127   7.806   7.133   5.194 -0.3247 -0.5698 -0.9163
   94SAPC   H5R 9128   7.915   7.118   5.194 -0.3694 -0.9925 -0.0393
   94SAPC   C26 9129   7.736   7.123   5.079 -0.0005  0.5117  0.2592
   94SAPC   H6R 9130   7.783   7.106   4.982  0.2488  0.9421  0.3015
   94SAPC   C27 9131   7.575   7.131   5.077  0.4946  0.4861  0.1010
   94SAPC   H7R 9132   7.526   7.139   5.177 -0.3869 -0.1192 -0.2660
   94SAPC   H7S 9133   7.532   7.041   5.027 -3.6825  2.1394  0.2489
   94SAPC   C28 9134   7.519   7.255   4.999 -0.0658  0.2014 -0.7868
   94SAPC   H8R 9135   7.501   7.341   5.065  0.7993 -2.8250  3.8733
   94SAPC   C29 9136   7.481   7.257   4.871 -0.4602 -0.3529  0.4042
   94SAPC   H9R 9137   7.449   7.356   4.838  4.2036  1.9234  1.8349
   94SAPC  C210 9138   7.477   7.142   4.773 -0.7816  0.3863 -0.3406
   94SAPC  H10R 9139   7.379   7.089   4.766 -0.4162 -0.2772 -0.5324
   94SAPC  H10S 9140   7.550   7.067   4.810 -0.4601  1.5086  1.4087
   94SAPC  C211 9141   7.529   7.179   4.639  0.1730  0.1867  0.3842
   94SAPC  H11R 9142   7.626   7.230   4.644 -0.5350  2.0113 -2.2780
   94SAPC  C212 9143   7.468   7.159   4.522  0.2289 -0.6435 -0.3841
   94SAPC  H12R 9144   7.521   7.193   4.432 -1.2660 -0.4769 -1.2306
   94SAPC  C213 9145   7.332   7.093   4.491 -0.0249 -0.7653 -0.0631
   94SAPC  H13R 9146   7.277   7.119   4.584 -0.7525 -0.3716 -0.5965
   94SAPC  H13S 9147   7.343   6.983   4.490 -0.1950 -0.7930  0.4889
   94SAPC  C214 9148   7.262   7.134   4.365 -0.5228 -0.5018  0.4647
   94SAPC  H14R 9149   7.331   7.171   4.287 -2.6117  1.8076 -0.4236
   94SAPC  C215 9150   7.129   7.130   4.349 -0.0425 -0.1330  0.4341
   94SAPC  H15R 9151   7.098   7.159   4.248 -0.3647  2.0931  1.1112
   94SAPC  C216 9152   7.018   7.077   4.431 -0.3180  0.1575 -0.3571
   94SAPC  H16R 9153   6.977   7.147   4.507 -0.4879  0.2554 -0.5382
   94SAPC  H16S 9154   7.057   6.981   4.471  2.0504  1.1640 -0.0443
   94SAPC  C217 9155   6.899   7.035   4.340  0.0109 -0.1713 -0.3304
   94SAPC  H17R 9156   6.927   6.960   4.264 -0.0810 -0.3494 -0.1895
   94SAPC  H17S 9157   6.868   7.126   4.285  1.5672  1.7121  1.7102
   94SAPC  C218 9158   6.781   6.975   4.420 -0.2770  0.0334 -0.1628
   94SAPC  H18R 9159   6.702   6.961   4.343 -1.1315  1.1455  0.4788
   94SAPC  H18S 9160   6.761   7.036   4.511  1.8071 -1.0832  1.1293
   94SAPC  C219 9161   6.829   6.842   4.484  0.7543  0.7298 -0.2683
   94SAPC  H19R 9162   6.907   6.861   4.561  0.4816 -1.7665  0.7222
   94SAPC  H19S 9163   6.862   6.772   4.403  1.6432  2.3883 -1.3862
   94SAPC  C220 9164   6.704   6.778   4.550 -0.1221  0.1286 -0.3883
   94SAPC  H20R 9165   6.730   6.673   4.576  0.1512  0.0220 -1.0625
   94SAPC  H20S 9166   6.611   6.779   4.490  1.4695  1.6289 -3.0409
   94SAPC  H20T 9167   6.679   6.836   4.641 -1.7417  1.0814 -1.3840
   94SAPC   C33 9168   7.073   6.428   5.322  0.4575  0.9874  0.5584
   94SAPC   H3X 9169   6.971   6.385   5.310  1.4029 -0.6036 -3.3294
   94SAPC   H3Y 9170   7.130   6.336   5.348 -1.9727 -0.6936  0.2147
   94SAPC   C34 9171   7.117   6.458   5.175 -0.2018  0.1864 -0.6508
   94SAPC   H4X 9172   7.222   6.492   5.171 -0.0032  0.0923  2.0001
   94SAPC   H4Y 9173   7.064   6.554   5.159 -1.7105  0.4472  4.2132
   94SAPC   C35 9174   7.070   6.359   5.078 -0.0747  0.2250 -0.3592
   94SAPC   H5X 9175   6.960   6.349   5.083  0.0064 -0.1006  2.5354
   94SAPC   H5Y 9176   7.108   6.264   5.121 -0.2022  0.7096  0.8430
   94SAPC   C36 9177   7.103   6.396   4.935  0.0994 -0.7187  0.6320
   94SAPC   H6X 9178   7.073   6.310   4.870 -1.1360  0.8536 -0.9786
   94SAPC   H6Y 9179   7.211   6.422   4.928 -0.1620  0.2722  0.0789
   94SAPC   C37 9180   7.022   6.515   4.882  0.1878 -0.3368 -0.1126
   94SAPC   H7X 9181   7.066   6.605   4.931  2.2990 -1.5635  0.3676
   94SAPC   H7Y 9182   6.919   6.518   4.922 -0.3858  1.0981 -1.5598
   94SAPC   C38 9183   7.023   6.533   4.728 -0.0113  0.8152 -0.0484
   94SAPC   H8X 9184   6.949   6.613   4.708 -0.6090  0.2635 -0.0941
   94SAPC   H8Y 9185   6.974   6.444   4.683  1.1378  1.9221 -3.7981
   94SAPC   C39 9186   7.156   6.567   4.669  0.0271  0.2073  0.0907
   94SAPC   H9X 9187   7.224   6.481   4.689  1.5742  1.9132  2.8632
   94SAPC   H9Y 9188   7.209   6.646   4.727  0.7336 -0.7073  0.7195
   94SAPC  C310 9189   7.147   6.599   4.518 -0.4373 -0.0783 -0.0121
   94SAPC  H10X 9190   7.228   6.667   4.483 -0.2595 -1.3325 -2.1847
   94SAPC  H10Y 9191   7.047   6.646   4.501  0.4462  2.4041  1.1789
   94SAPC  C311 9192   7.154   6.480   4.433 -0.0197 -0.2928  0.6051
   94SAPC  H11X 9193   7.084   6.401   4.470  0.6299 -0.4230  1.6134
   94SAPC  H11Y 9194   7.257   6.438   4.439 -0.3667 -1.2958 -0.1349
   94SAPC  C312 9195   7.123   6.500   4.290  0.2521 -0.4535  1.2551
   94SAPC  H12X 9196   7.014   6.521   4.275  0.1593 -0.6498  1.6569
   94SAPC  H12Y 9197   7.137   6.408   4.230 -1.1993  0.1686 -0.1480
   94SAPC  C313 9198   7.187   6.625   4.225  0.4679  0.4050  0.3487
   94SAPC  H13X 9199   7.296   6.602   4.219 -0.1093 -2.5360 -0.3688
   94SAPC  H13Y 9200   7.151   6.715   4.279 -2.1472 -0.3288 -0.0367
   94SAPC  C314 9201   7.139   6.641   4.080  0.4229 -0.2099  0.3486
   94SAPC  H14X 9202   7.030   6.660   4.070  0.5616  0.5966  0.2696
   94SAPC  H14Y 9203   7.161   6.552   4.017 -2.1419 -0.6596 -0.0040
   94SAPC  C315 9204   7.205   6.772   4.019 -0.7033  0.3402  0.0355
   94SAPC  H15X 9205   7.315   6.764   4.008 -0.4820  2.0296  0.6474
   94SAPC  H15Y 9206   7.195   6.847   4.100  1.6048 -0.3652  1.0550
   94SAPC  C316 9207   7.137   6.822   3.892 -0.3765 -0.3155  0.5555
   94SAPC  H16X 9208   7.124   6.726   3.837  0.0576  0.4020 -0.8598
   94SAPC  H16Y 9209   7.210   6.878   3.830  2.2573 -2.7563  1.2329
   94SAPC  C317 9210   6.997   6.880   3.909  0.0943  0.1170  0.1643
   94SAPC  H17X 9211   6.986   6.962   3.983 -1.1029  1.0199 -0.9703
   94SAPC  H17Y 9212   6.932   6.798   3.946 -0.4630 -0.2612 -1.5832
   94SAPC  C318 9213   6.943   6.953   3.788 -0.3345 -0.3748 -0.4543
   94SAPC  H18X 9214   6.835   6.975   3.793 -0.1886  0.5365 -1.1281
   94SAPC  H18Y 9215   6.963   6.906   3.690 -0.5724  2.2997 -1.8632
   94SAPC  H18Z 9216   7.000   7.048   3.774  2.5720 -1.8959  0.0834
   95SAPC     N 9217   4.815   3.058   1.682 -0.0769  0.2347 -0.8611
   95SAPC   C12 9218   4.936   2.986   1.752 -0.2419 -0.1143  0.2395
   95SAPC  H12A 9219   5.029   3.029   1.719 -0.2551  0.0108  0.3604
   95SAPC  H12B 9220   4.941   2.885   1.714  1.6683  0.3284 -0.7629
   95SAPC   C13 9221   4.686   3.004   1.743 -0.2474  0.0055  0.2795
   95SAPC  H13A 9222   4.686   2.897   1.726  2.8460 -0.2713  1.3333
   95SAPC  H13B 9223   4.675   3.026   1.848 -0.4462 -0.6866  0.4059
   95SAPC  H13C 9224   4.602   3.046   1.690  0.0281 -1.0706 -1.0783
   95SAPC   C14 9225   4.810   3.202   1.709  0.1977 -0.6396  0.6732
   95SAPC  H14A 9226   4.876   3.241   1.784 -1.9022  2.1615  1.2250
   95SAPC  H14B 9227   4.856   3.255   1.627 -2.4553  1.8137  0.5984
   95SAPC  H14C 9228   4.711   3.237   1.731  0.2723 -1.0857  1.7573
   95SAPC   C15 9229   4.814   3.028   1.540  0.1508  0.3273 -0.3387
   95SAPC  H15A 9230   4.740   3.089   1.491  0.9314 -0.0478 -2.0528
   95SAPC  H15B 9231   4.904   3.051   1.485 -0.8474  0.7274 -1.8441
   95SAPC  H15C 9232   4.779   2.928   1.518  0.3131  0.3859 -0.8868
   95SAPC   C11 9233   4.940   2.988   1.905 -0.7104 -0.4447 -0.5114
   95SAPC  H11A 9234   4.939   3.096   1.932 -0.3208  0.1254 -2.5759
   95SAPC  H11B 9235   5.034   2.949   1.948  0.5539  2.7856 -0.0971
   95SAPC     P 9236   4.822   2.788   2.010  0.4285 -0.1430  0.3378
   95SAPC   O13 9237   4.692   2.759   2.075  0.4214  0.2217 -0.3233
   95SAPC   O14 9238   4.857   2.706   1.891 -0.2833 -1.0029  0.3216
   95SAPC   O12 9239   4.823   2.938   1.968  0.4729  0.6434  0.0389
   95SAPC   O11 9240   4.937   2.792   2.117  0.2280 -0.2502  0.4956
   95SAPC    C1 9241   4.930   2.876   2.230 -0.3242  0.3330  0.3608
   95SAPC    HA 9242   4.927   2.984   2.204  0.7424  1.0156  2.7467
   95SAPC    HB 9243   4.844   2.845   2.293 -0.0791 -0.6444  0.2353
   95SAPC    C2 9244   5.057   2.865   2.317 -0.1591 -0.4761  1.0223
   95SAPC    HS 9245   5.147   2.873   2.251  0.2465  2.8210  1.8128
   95SAPC   O21 9246   5.041   2.747   2.397 -0.0155  0.6307 -0.1545
   95SAPC   C21 9247   5.159   2.682   2.415 -0.2620  0.2084 -0.3423
   95SAPC   O22 9248   5.256   2.699   2.351 -0.3893  0.4387  0.1911
   95SAPC   C22 9249   5.150   2.618   2.558 -0.3651  0.6332  0.0608
   95SAPC   H2R 9250   5.258   2.594   2.575 -0.5149 -0.8167 -0.9028
   95SAPC   H2S 9251   5.117   2.704   2.619 -4.3613  0.7837 -1.9999
   95SAPC    C3 9252   5.063   2.982   2.416  0.6689  0.2301  0.4747
   95SAPC    HX 9253   4.975   2.967   2.482 -0.8023 -3.1681 -1.9748
   95SAPC    HY 9254   5.050   3.080   2.365 -0.5042  0.8370  1.8500
   95SAPC   O31 9255   5.178   2.973   2.503 -0.3623  0.2687 -0.1690
   95SAPC   C31 9256   5.287   3.036   2.464 -0.8711 -0.2468 -0.0855
   95SAPC   O32 9257   5.304   3.100   2.360 -0.0456  0.5768 -0.6640
   95SAPC   C32 9258   5.401   3.000   2.560 -1.2404  0.2582  0.1002
   95SAPC   H2X 9259   5.494   3.059   2.543 -0.7132 -0.3903  0.6675
   95SAPC   H2Y 9260   5.430   2.893   2.554  0.0730  0.5898  0.2320
   95SAPC   C23 9261   5.066   2.487   2.581  0.1707  0.1995  0.1633
   95SAPC   H3R 9262   5.107   2.419   2.658 -3.1934 -2.3512 -0.0643
   95SAPC   H3S 9263   5.068   2.420   2.492 -0.4812 -0.0374  0.3189
   95SAPC   C24 9264   4.916   2.522   2.605  0.2840 -0.0767  0.0390
   95SAPC   H4R 9265   4.880   2.592   2.525  0.4953  0.1372  0.1292
   95SAPC   H4S 9266   4.916   2.580   2.700 -1.5821 -3.2347  2.1583
   95SAPC   C25 9267   4.817   2.406   2.603 -0.1766 -1.1433  0.0224
   95SAPC   H5R 9268   4.813   2.352   2.507 -0.3073 -0.9618 -0.0750
   95SAPC   C26 9269   4.732   2.376   2.701  0.4613 -0.1510 -0.2363
   95SAPC   H6R 9270   4.681   2.279   2.703  1.4317 -0.6746 -0.1081
   95SAPC   C27 9271   4.714   2.456   2.830  0.6265  0.3822 -0.3419
   95SAPC   H7R 9272   4.612   2.455   2.875  1.1890 -3.3649  1.1739
   95SAPC   H7S 9273   4.741   2.560   2.801 -0.1291  1.0215  1.1482
   95SAPC   C28 9274   4.811   2.419   2.939  0.8631  0.6367  0.1106
   95SAPC   H8R 9275   4.812   2.310   2.958 -1.8210  0.3513 -0.9711
   95SAPC   C29 9276   4.893   2.498   3.003 -0.7220 -0.7641 -0.1781
   95SAPC   H9R 9277   4.956   2.457   3.083 -0.4974 -1.1487 -0.5531
   95SAPC  C210 9278   4.908   2.650   2.991 -0.4499 -0.5033  0.6481
   95SAPC  H10R 9279   4.874   2.709   3.079  0.6911  1.0354  0.1003
   95SAPC  H10S 9280   4.854   2.684   2.901 -0.6125 -0.9533  0.5737
   95SAPC  C211 9281   5.049   2.690   2.961 -0.5055 -0.0181 -0.3458
   95SAPC  H11R 9282   5.100   2.628   2.886 -2.6773 -3.5672  0.9136
   95SAPC  C212 9283   5.118   2.789   3.023  0.3831  0.3801  0.5544
   95SAPC  H12R 9284   5.218   2.805   2.982 -0.2247  1.2554 -0.6530
   95SAPC  C213 9285   5.065   2.890   3.122 -0.0551  0.0687 -0.2794
   95SAPC  H13R 9286   4.968   2.937   3.093  0.8383  3.0306  1.1411
   95SAPC  H13S 9287   5.141   2.970   3.134  0.3345 -0.6461  2.9147
   95SAPC  C214 9288   5.041   2.830   3.257 -1.0786 -0.2855 -0.1393
   95SAPC  H14R 9289   5.048   2.722   3.272 -1.2736 -0.1349  1.1417
   95SAPC  C215 9290   5.059   2.896   3.374  0.5140  0.0241 -0.3675
   95SAPC  H15R 9291   5.041   2.844   3.469 -3.0567  1.3737 -0.1626
   95SAPC  C216 9292   5.094   3.043   3.390  0.1408  0.2425 -0.4717
   95SAPC  H16R 9293   5.145   3.087   3.301  0.7225 -1.7988 -1.1969
   95SAPC  H16S 9294   5.171   3.052   3.469  0.8722  2.6064 -1.3560
   95SAPC  C217 9295   4.979   3.138   3.428  1.0592 -0.3076  0.3563
   95SAPC  H17R 9296   4.910   3.149   3.341 -1.7680  0.9919  2.6010
   95SAPC  H17S 9297   5.039   3.230   3.438  1.5982 -0.5802 -0.2628
   95SAPC  C218 9298   4.918   3.103   3.565  0.4233  0.3920 -0.3373
   95SAPC  H18R 9299   4.995   3.059   3.632  0.4785  0.9813 -0.0039
   95SAPC  H18S 9300   4.849   3.019   3.547  2.0602 -0.9524 -0.5861
   95SAPC  C219 9301   4.835   3.220   3.621  0.6582 -0.1219  0.4289
   95SAPC  H19R 9302   4.899   3.309   3.636  0.9225 -0.2442  0.0439
   95SAPC  H19S 9303   4.802   3.178   3.719  0.9546 -2.5820 -0.4424
   95SAPC  C220 9304   4.706   3.256   3.541 -0.5476  0.9679 -0.0495
   95SAPC  H20R 9305   4.740   3.286   3.439  0.8909 -1.7622 -0.4553
   95SAPC  H20S 9306   4.645   3.336   3.588 -0.0068  2.4566 -1.7267
   95SAPC  H20T 9307   4.640   3.167   3.538 -1.6463  1.7715 -0.5444
   95SAPC   C33 9308   5.347   3.025   2.706 -0.2149  0.2235 -0.1620
   95SAPC   H3X 9309   5.266   2.952   2.727 -1.5937  0.9811 -2.4448
   95SAPC   H3Y 9310   5.310   3.129   2.721  0.6273  0.4683  0.2405
   95SAPC   C34 9311   5.461   2.997   2.809 -0.0416 -0.3195 -0.4049
   95SAPC   H4X 9312   5.544   3.067   2.785 -1.7858  2.2188  0.5895
   95SAPC   H4Y 9313   5.492   2.890   2.806 -0.9702 -0.5862 -2.0739
   95SAPC   C35 9314   5.419   3.028   2.954 -0.5749  0.2849 -0.3034
   95SAPC   H5X 9315   5.339   2.961   2.991 -1.0942  1.3137  0.5197
   95SAPC   H5Y 9316   5.382   3.133   2.955 -0.3876  0.3622  1.2737
   95SAPC   C36 9317   5.531   3.003   3.051  0.8692  0.1825 -0.5446
   95SAPC   H6X 9318   5.622   3.056   3.014  0.1358  2.4363  0.6717
   95SAPC   H6Y 9319   5.561   2.899   3.074  0.4659 -0.0035 -0.8678
   95SAPC   C37 9320   5.491   3.058   3.191 -0.0492  0.0990 -0.8522
   95SAPC   H7X 9321   5.409   2.995   3.231 -0.0006  0.3583 -0.3455
   95SAPC   H7Y 9322   5.446   3.159   3.177 -0.4637  0.1272  0.6091
   95SAPC   C38 9323   5.614   3.069   3.288  0.2441  0.4841 -0.0848
   95SAPC   H8X 9324   5.573   3.119   3.378 -0.0870 -0.5867  0.3751
   95SAPC   H8Y 9325   5.689   3.145   3.257  0.5630  0.3009  0.2355
   95SAPC   C39 9326   5.691   2.946   3.337  0.2186 -0.0586 -0.7564
   95SAPC   H9X 9327   5.767   2.994   3.402  0.6453 -0.3795 -1.0183
   95SAPC   H9Y 9328   5.750   2.889   3.263  0.0758 -0.4822 -0.5482
   95SAPC  C310 9329   5.623   2.847   3.433 -0.3355 -0.3886 -0.4796
   95SAPC  H10X 9330   5.696   2.790   3.494  1.3534 -0.3238 -2.3380
   95SAPC  H10Y 9331   5.560   2.784   3.367  0.0476  0.8275 -2.0680
   95SAPC  C311 9332   5.523   2.919   3.526  0.6753  0.0977  0.2330
   95SAPC  H11X 9333   5.434   2.949   3.466 -1.0603 -2.3639  1.4048
   95SAPC  H11Y 9334   5.575   3.003   3.577  0.0405 -0.0239  1.1062
   95SAPC  C312 9335   5.463   2.827   3.637 -0.4031  0.0641 -0.3750
   95SAPC  H12X 9336   5.431   2.725   3.605 -1.0749  0.2096 -0.1873
   95SAPC  H12Y 9337   5.374   2.864   3.692 -0.6181 -1.1544  0.1253
   95SAPC  C313 9338   5.577   2.806   3.740 -0.3201 -0.4070 -0.1421
   95SAPC  H13X 9339   5.609   2.902   3.787 -1.1764 -0.4243  0.4962
   95SAPC  H13Y 9340   5.658   2.762   3.677 -0.4228 -0.7836 -0.0166
   95SAPC  C314 9341   5.530   2.711   3.851  0.1843  0.2868  0.2354
   95SAPC  H14X 9342   5.487   2.615   3.814  2.0230 -0.5294  0.1020
   95SAPC  H14Y 9343   5.448   2.763   3.906 -1.2884 -0.1436 -1.4507
   95SAPC  C315 9344   5.645   2.674   3.952  0.0721  0.0072 -0.0795
   95SAPC  H15X 9345   5.730   2.747   3.949  0.2898 -0.2732 -0.8934
   95SAPC  H15Y 9346   5.687   2.572   3.940 -1.4541 -1.0570  2.6581
   95SAPC  C316 9347   5.595   2.677   4.102  0.5296  0.1452  0.3364
   95SAPC  H16X 9348   5.537   2.584   4.119 -0.7430  1.2162  2.2216
   95SAPC  H16Y 9349   5.526   2.761   4.123 -0.0621 -0.1152 -0.5061
   95SAPC  C317 9350   5.712   2.678   4.204  0.1481  0.1139 -1.1859
   95SAPC  H17X 9351   5.774   2.586   4.191 -0.7274 -0.5892 -0.5289
   95SAPC  H17Y 9352   5.665   2.674   4.304 -0.4561  0.3560 -1.4613
   95SAPC  C318 9353   5.800   2.808   4.197  0.0829 -0.2650 -0.3720
   95SAPC  H18X 9354   5.850   2.823   4.295  1.7822  0.2363 -1.2668
   95SAPC  H18Y 9355   5.745   2.898   4.163  0.1131  1.0642  2.7789
   95SAPC  H18Z 9356   5.878   2.785   4.121 -0.4661  1.5432 -1.5573
   96SAPC     N 9357   4.238   2.263   1.459 -0.1477 -0.1130 -0.0425
   96SAPC   C12 9358   4.177   2.395   1.516  0.2039  0.4003 -0.7061
   96SAPC  H12A 9359   4.076   2.400   1.478 -0.2786  0.5744  0.5653
   96SAPC  H12B 9360   4.220   2.488   1.482  0.4221  1.2512  1.7388
   96SAPC   C13 9361   4.370   2.235   1.517 -0.4474  0.0330  0.2056
   96SAPC  H13A 9362   4.373   2.234   1.625 -1.2059  2.6449  0.3145
   96SAPC  H13B 9363   4.429   2.157   1.472 -0.7820 -0.3622  0.4489
   96SAPC  H13C 9364   4.427   2.325   1.496  0.7304 -0.5548  0.7772
   96SAPC   C14 9365   4.148   2.154   1.493  0.8106 -0.7487 -0.4615
   96SAPC  H14A 9366   4.123   2.167   1.598  0.6274  1.7653 -0.7438
   96SAPC  H14B 9367   4.055   2.157   1.438 -0.2887 -0.9203  1.2808
   96SAPC  H14C 9368   4.194   2.058   1.475 -0.4064 -1.3311 -0.5676
   96SAPC   C15 9369   4.247   2.271   1.309  0.1963  0.0207 -0.4810
   96SAPC  H15A 9370   4.282   2.362   1.262 -1.5656  0.0748 -1.8056
   96SAPC  H15B 9371   4.315   2.200   1.265 -0.4642  0.0572 -1.5973
   96SAPC  H15C 9372   4.152   2.253   1.260 -0.2361 -0.8074  0.6132
   96SAPC   C11 9373   4.162   2.406   1.671  0.1855  0.6171  0.1739
   96SAPC  H11A 9374   4.106   2.317   1.705 -0.2894  1.0652  0.5723
   96SAPC  H11B 9375   4.093   2.489   1.696 -0.7367  0.1851 -0.8610
   96SAPC     P 9376   4.373   2.527   1.755  0.0725 -0.2670  0.1606
   96SAPC   O13 9377   4.511   2.490   1.790 -0.4304  0.3481 -0.0456
   96SAPC   O14 9378   4.360   2.606   1.635  0.7256  0.4554  0.5724
   96SAPC   O12 9379   4.284   2.400   1.735 -0.6263  0.3935 -0.1353
   96SAPC   O11 9380   4.308   2.607   1.873  0.0192  0.2659 -0.0137
   96SAPC    C1 9381   4.310   2.578   2.009  0.2948 -0.5224 -0.0417
   96SAPC    HA 9382   4.359   2.485   2.043  0.8788 -0.3332 -0.3494
   96SAPC    HB 9383   4.379   2.652   2.055 -0.0107 -1.7073  2.4428
   96SAPC    C2 9384   4.171   2.604   2.072  0.8439  0.7078 -0.1186
   96SAPC    HS 9385   4.132   2.704   2.044 -0.0780  1.3739  3.0926
   96SAPC   O21 9386   4.182   2.597   2.212  0.4707  0.2943  0.1219
   96SAPC   C21 9387   4.248   2.696   2.268  0.0360 -0.6075  0.1531
   96SAPC   O22 9388   4.279   2.795   2.210  0.0997 -0.0154 -0.2517
   96SAPC   C22 9389   4.270   2.660   2.416  0.1158  0.4772 -0.0903
   96SAPC   H2R 9390   4.244   2.742   2.487 -1.0619 -1.5999  2.0238
   96SAPC   H2S 9391   4.205   2.578   2.453  1.1090 -0.1414  0.3343
   96SAPC    C3 9392   4.059   2.501   2.027 -0.6876 -0.1541 -0.3614
   96SAPC    HX 9393   4.062   2.511   1.916  1.8726  1.8695 -0.2138
   96SAPC    HY 9394   3.967   2.547   2.067 -0.0952 -0.1336  1.0255
   96SAPC   O31 9395   4.094   2.364   2.077  0.6340 -0.3356  0.1844
   96SAPC   C31 9396   3.993   2.313   2.146 -0.6811 -0.4300 -0.3174
   96SAPC   O32 9397   3.878   2.352   2.154  0.1931  0.1704  0.6685
   96SAPC   C32 9398   4.053   2.215   2.251  0.0259  0.0140  0.6804
   96SAPC   H2X 9399   4.121   2.147   2.195 -1.5217 -1.5625  0.5828
   96SAPC   H2Y 9400   3.972   2.153   2.296  1.7584 -0.9654  2.6027
   96SAPC   C23 9401   4.418   2.625   2.448 -0.3019  0.0382 -0.0885
   96SAPC   H3R 9402   4.446   2.534   2.391 -2.7105 -0.7150 -0.1628
   96SAPC   H3S 9403   4.417   2.603   2.557  1.3023  0.7618  0.1079
   96SAPC   C24 9404   4.521   2.746   2.418  0.1368  0.3565  0.4121
   96SAPC   H4R 9405   4.511   2.771   2.311 -2.6975  2.6873  1.0902
   96SAPC   H4S 9406   4.626   2.712   2.429 -0.1671 -1.6489 -1.9514
   96SAPC   C25 9407   4.491   2.881   2.484  0.1499  0.1061 -0.2116
   96SAPC   H5R 9408   4.441   2.956   2.421  2.3988  1.2767 -0.6969
   96SAPC   C26 9409   4.545   2.917   2.607  0.2826  0.4960  0.7084
   96SAPC   H6R 9410   4.521   3.014   2.652  1.6736  1.2862 -0.1636
   96SAPC   C27 9411   4.640   2.826   2.691 -0.4378  0.3101  1.0407
   96SAPC   H7R 9412   4.655   2.723   2.651  0.7478  0.8992 -0.1252
   96SAPC   H7S 9413   4.602   2.822   2.795 -2.2564  4.0797  0.6868
   96SAPC   C28 9414   4.771   2.898   2.717 -0.7723  0.0671 -0.4152
   96SAPC   H8R 9415   4.857   2.850   2.669 -0.9875 -0.9973  0.2408
   96SAPC   C29 9416   4.787   3.000   2.803  0.0683 -0.2643 -0.2359
   96SAPC   H9R 9417   4.891   3.036   2.813  0.9918 -1.9289 -2.7761
   96SAPC  C210 9418   4.677   3.065   2.890  0.3534 -0.3413 -0.0659
   96SAPC  H10R 9419   4.576   3.020   2.881 -0.6861  1.6296  1.0806
   96SAPC  H10S 9420   4.671   3.168   2.847 -0.7136  1.0681  3.1777
   96SAPC  C211 9421   4.713   3.081   3.037  0.2177  0.7047  0.1091
   96SAPC  H11R 9422   4.791   3.157   3.054  0.2207  0.8372 -0.4664
   96SAPC  C212 9423   4.657   3.021   3.148 -0.1124  0.9091  1.0087
   96SAPC  H12R 9424   4.687   3.058   3.247  1.5312  1.7833  0.2172
   96SAPC  C213 9425   4.543   2.919   3.147 -0.5810  0.7631 -0.4875
   96SAPC  H13R 9426   4.510   2.892   3.044 -1.9579  1.1911 -0.1794
   96SAPC  H13S 9427   4.456   2.953   3.207 -0.3054 -0.5976  0.7277
   96SAPC  C214 9428   4.611   2.800   3.210  0.2586  0.2872 -0.0910
   96SAPC  H14R 9429   4.691   2.754   3.150 -0.4340 -0.6262 -0.3424
   96SAPC  C215 9430   4.573   2.727   3.315  0.2868 -0.7450 -0.2442
   96SAPC  H15R 9431   4.618   2.629   3.336  0.4580 -0.1351  2.7575
   96SAPC  C216 9432   4.453   2.755   3.404  0.2821 -0.2432  0.2915
   96SAPC  H16R 9433   4.384   2.670   3.385 -0.4412  0.4650 -0.3271
   96SAPC  H16S 9434   4.397   2.847   3.377 -0.6729 -1.1301 -0.8914
   96SAPC  C217 9435   4.486   2.763   3.554 -0.1363  0.3405  0.2086
   96SAPC  H17R 9436   4.391   2.756   3.611  0.3686 -0.2409  0.9959
   96SAPC  H17S 9437   4.536   2.858   3.584  1.9932 -0.5359 -0.3677
   96SAPC  C218 9438   4.571   2.652   3.610 -0.1856  0.1478  0.7431
   96SAPC  H18R 9439   4.671   2.657   3.562 -0.9838 -0.2779 -1.0226
   96SAPC  H18S 9440   4.518   2.559   3.582  1.9434 -1.2167  1.0785
   96SAPC  C219 9441   4.602   2.679   3.763 -0.3433  0.2653 -0.5290
   96SAPC  H19R 9442   4.517   2.653   3.830 -0.9204 -0.3230 -1.4680
   96SAPC  H19S 9443   4.619   2.789   3.762 -4.4372  1.0741  0.1426
   96SAPC  C220 9444   4.736   2.612   3.800  0.2072  0.2747  0.2106
   96SAPC  H20R 9445   4.764   2.666   3.893 -1.6969  0.8545  0.4945
   96SAPC  H20S 9446   4.817   2.630   3.726  0.7558 -0.8043  0.5211
   96SAPC  H20T 9447   4.726   2.503   3.821 -0.8517  0.1371 -0.9083
   96SAPC   C33 9448   4.140   2.287   2.361 -0.0988  0.3512 -0.1532
   96SAPC   H3X 9449   4.089   2.376   2.403 -1.5489 -0.0276 -1.0423
   96SAPC   H3Y 9450   4.236   2.332   2.326 -0.2378  2.2316  1.7237
   96SAPC   C34 9451   4.172   2.185   2.472 -0.2867  0.4851 -0.3825
   96SAPC   H4X 9452   4.218   2.097   2.421 -0.0561  0.4435 -0.1053
   96SAPC   H4Y 9453   4.082   2.147   2.524 -0.4121  0.2879 -0.7441
   96SAPC   C35 9454   4.273   2.240   2.581 -0.3382  0.4296  0.7150
   96SAPC   H5X 9455   4.360   2.273   2.521 -1.5848  1.5711 -0.5293
   96SAPC   H5Y 9456   4.288   2.145   2.638  3.0522 -0.1169 -0.9028
   96SAPC   C36 9457   4.219   2.344   2.675  0.1710 -0.7763 -0.1645
   96SAPC   H6X 9458   4.125   2.318   2.727 -0.3140  2.2251  0.6229
   96SAPC   H6Y 9459   4.208   2.443   2.625  1.5398  0.0326  1.0821
   96SAPC   C37 9460   4.319   2.386   2.786  0.7215 -0.0821  0.1988
   96SAPC   H7X 9461   4.415   2.417   2.738  1.0223 -3.2075 -1.4165
   96SAPC   H7Y 9462   4.347   2.299   2.848 -1.3936  0.7867  2.5353
   96SAPC   C38 9463   4.255   2.479   2.888  0.4210 -0.2114  0.3410
   96SAPC   H8X 9464   4.163   2.454   2.945  0.7228  1.3785  1.6154
   96SAPC   H8Y 9465   4.234   2.574   2.834  0.4195  0.4028  1.3954
   96SAPC   C39 9466   4.361   2.524   2.997  0.1481 -0.3959  0.4519
   96SAPC   H9X 9467   4.307   2.592   3.066 -2.6241 -2.4223  0.4495
   96SAPC   H9Y 9468   4.437   2.587   2.947 -0.8735  1.6240  1.3151
   96SAPC  C310 9469   4.434   2.410   3.072  0.1346 -0.3862  0.6472
   96SAPC  H10X 9470   4.529   2.434   3.125  0.2888  1.1385 -0.2629
   96SAPC  H10Y 9471   4.456   2.322   3.007  0.0718  1.5568 -2.1857
   96SAPC  C311 9472   4.347   2.364   3.189  0.1165 -0.1158  0.3598
   96SAPC  H11X 9473   4.251   2.341   3.139 -1.1524 -0.2782  2.7199
   96SAPC  H11Y 9474   4.324   2.450   3.256  1.1571  0.0836  0.4887
   96SAPC  C312 9475   4.385   2.231   3.265  0.4389 -0.0042  0.5487
   96SAPC  H12X 9476   4.407   2.163   3.180 -0.7796 -0.7099  0.7649
   96SAPC  H12Y 9477   4.293   2.204   3.322  0.4615  0.6693  0.9089
   96SAPC  C313 9478   4.513   2.245   3.352  0.0111 -0.0268 -0.7307
   96SAPC  H13X 9479   4.562   2.339   3.322 -0.6526  0.3682 -0.6053
   96SAPC  H13Y 9480   4.583   2.159   3.342 -1.0833 -1.0275 -0.1881
   96SAPC  C314 9481   4.486   2.264   3.500 -0.5250  0.0668 -0.3001
   96SAPC  H14X 9482   4.409   2.343   3.507 -0.4377  0.2197 -1.0503
   96SAPC  H14Y 9483   4.577   2.300   3.554 -2.4325  1.4804  2.1823
   96SAPC  C315 9484   4.428   2.136   3.575  0.4301 -0.0035  0.3885
   96SAPC  H15X 9485   4.486   2.050   3.536 -0.3297 -0.7153  0.7925
   96SAPC  H15Y 9486   4.320   2.121   3.556  0.9290 -2.8660 -0.6266
   96SAPC  C316 9487   4.441   2.154   3.726 -0.2273 -0.6798 -0.4315
   96SAPC  H16X 9488   4.396   2.252   3.754  0.7298  0.7602 -3.4819
   96SAPC  H16Y 9489   4.550   2.161   3.743 -0.6059  1.1788  1.8371
   96SAPC  C317 9490   4.383   2.044   3.814 -0.4302 -0.0097  0.3572
   96SAPC  H17X 9491   4.440   2.035   3.910  2.0686 -0.3485 -1.0567
   96SAPC  H17Y 9492   4.389   1.942   3.772 -2.4595 -0.0091 -0.0090
   96SAPC  C318 9493   4.238   2.070   3.846  0.5205 -0.9819  0.3854
   96SAPC  H18X 9494   4.174   2.059   3.756 -1.6101  1.1628  1.4960
   96SAPC  H18Y 9495   4.235   2.175   3.882  0.7744 -1.0219  0.5190
   96SAPC  H18Z 9496   4.204   2.001   3.926  3.1241 -2.7918  0.0366
   97SAPC     N 9497   2.258   2.076   2.065 -0.5179  0.0989 -0.2170
   97SAPC   C12 9498   2.219   1.935   2.092  0.1879  0.3800 -0.0807
   97SAPC  H12A 9499   2.164   1.898   2.006 -0.4307  0.7985  0.1221
   97SAPC  H12B 9500   2.149   1.923   2.173  1.1791 -0.1754  0.7085
   97SAPC   C13 9501   2.138   2.152   2.024  0.0276 -0.1775 -0.1828
   97SAPC  H13A 9502   2.091   2.116   1.934 -0.9687  1.9671 -0.5855
   97SAPC  H13B 9503   2.067   2.153   2.106  1.3360  1.7543  1.0061
   97SAPC  H13C 9504   2.164   2.256   2.010  2.8506 -0.9489 -1.3464
   97SAPC   C14 9505   2.313   2.142   2.179 -0.0724 -0.5426  0.2216
   97SAPC  H14A 9506   2.235   2.155   2.252 -1.1195  1.0395 -1.1009
   97SAPC  H14B 9507   2.391   2.087   2.231 -0.3921 -1.7856 -0.5784
   97SAPC  H14C 9508   2.345   2.241   2.150 -1.9883 -0.5602 -2.2751
   97SAPC   C15 9509   2.364   2.073   1.948 -0.6904  0.2681 -1.1444
   97SAPC  H15A 9510   2.448   2.009   1.970  0.7648  1.4593 -2.9498
   97SAPC  H15B 9511   2.310   2.044   1.859 -3.7751 -0.4075  0.7914
   97SAPC  H15C 9512   2.392   2.177   1.933 -1.7196  0.6009 -0.8283
   97SAPC   C11 9513   2.342   1.842   2.118  0.4046 -0.1921 -0.1616
   97SAPC  H11A 9514   2.309   1.748   2.167 -1.3030  1.4730  2.1168
   97SAPC  H11B 9515   2.417   1.883   2.189 -1.7871 -1.6239  3.2478
   97SAPC     P 9516   2.329   1.727   1.877 -0.2151  0.1953 -0.1361
   97SAPC   O13 9517   2.188   1.722   1.921 -0.4357  0.4419  0.4288
   97SAPC   O14 9518   2.361   1.785   1.743 -0.1390 -0.1293  0.1275
   97SAPC   O12 9519   2.408   1.807   1.993  0.0868 -0.2981 -0.1668
   97SAPC   O11 9520   2.391   1.585   1.880  0.0982 -0.0458 -0.3794
   97SAPC    C1 9521   2.373   1.485   1.985  0.2525 -0.2148  0.3674
   97SAPC    HA 9522   2.451   1.407   1.968  1.6729  1.3136 -0.4855
   97SAPC    HB 9523   2.364   1.532   2.085 -0.9094 -1.5246  0.9144
   97SAPC    C2 9524   2.229   1.417   1.971 -0.2549 -0.1576 -0.6638
   97SAPC    HS 9525   2.196   1.426   1.865 -1.6054 -1.4412 -0.3805
   97SAPC   O21 9526   2.138   1.484   2.063 -0.0014  0.6633 -0.1405
   97SAPC   C21 9527   2.008   1.477   2.023  0.1040 -0.9172  0.6646
   97SAPC   O22 9528   1.962   1.428   1.924  0.7003  0.1354 -0.2941
   97SAPC   C22 9529   1.929   1.559   2.125  0.0929  0.0078 -0.5066
   97SAPC   H2R 9530   1.932   1.668   2.103 -0.1422 -0.2540 -2.0048
   97SAPC   H2S 9531   1.825   1.522   2.113 -0.3169  1.4564 -1.7869
   97SAPC    C3 9532   2.242   1.262   2.006  0.2340 -0.0188 -0.0477
   97SAPC    HX 9533   2.307   1.212   1.932 -0.6140  0.6803 -1.2965
   97SAPC    HY 9534   2.147   1.205   1.994 -0.0874  0.2742  0.9430
   97SAPC   O31 9535   2.295   1.244   2.141  0.1890  0.3201  0.3151
   97SAPC   C31 9536   2.205   1.202   2.230  0.7062 -0.5857 -0.2637
   97SAPC   O32 9537   2.095   1.154   2.199 -0.2346 -0.0693  0.6897
   97SAPC   C32 9538   2.238   1.245   2.376  0.3773 -0.4904 -1.0811
   97SAPC   H2X 9539   2.182   1.178   2.445 -2.0961  1.6202 -0.8655
   97SAPC   H2Y 9540   2.207   1.351   2.393 -0.9453 -1.2560  2.1287
   97SAPC   C23 9541   1.968   1.535   2.274 -0.3408  0.0880 -0.0565
   97SAPC   H3R 9542   2.047   1.612   2.282 -1.4921  1.4749 -1.4269
   97SAPC   H3S 9543   2.018   1.436   2.289  2.1718  1.0603 -1.4226
   97SAPC   C24 9544   1.864   1.550   2.381  0.3137  0.3842  0.1490
   97SAPC   H4R 9545   1.912   1.544   2.481 -2.9547 -0.4472  1.8002
   97SAPC   H4S 9546   1.802   1.459   2.388  0.6672  0.0817 -0.5963
   97SAPC   C25 9547   1.776   1.678   2.368 -0.2361 -0.4084 -0.4402
   97SAPC   H5R 9548   1.701   1.688   2.289  0.3631 -0.2898 -1.0089
   97SAPC   C26 9549   1.779   1.769   2.464  0.1780  0.0686  0.2852
   97SAPC   H6R 9550   1.727   1.865   2.446  0.7165  0.1982 -0.6453
   97SAPC   C27 9551   1.864   1.773   2.587  0.1477  0.1577 -0.2640
   97SAPC   H7R 9552   1.971   1.762   2.561  0.7752  2.7377  0.8955
   97SAPC   H7S 9553   1.839   1.687   2.653  0.1397 -0.0940 -0.5931
   97SAPC   C28 9554   1.838   1.905   2.648  0.9782 -1.1284  0.0606
   97SAPC   H8R 9555   1.853   1.997   2.590 -1.6102 -0.8438 -0.2545
   97SAPC   C29 9556   1.785   1.920   2.773  0.1015  0.2724  0.3097
   97SAPC   H9R 9557   1.777   2.024   2.808 -1.9394  0.1496  0.3456
   97SAPC  C210 9558   1.760   1.816   2.874  0.0653  0.0788 -0.7709
   97SAPC  H10R 9559   1.696   1.745   2.817 -0.9040  1.5931 -1.6471
   97SAPC  H10S 9560   1.690   1.863   2.947  1.4330 -1.5835  1.7697
   97SAPC  C211 9561   1.874   1.741   2.949 -0.8911  0.1180 -0.6658
   97SAPC  H11R 9562   1.865   1.634   2.969  4.0896 -0.3034  0.8607
   97SAPC  C212 9563   1.992   1.793   3.002 -0.1499 -0.1492 -0.1621
   97SAPC  H12R 9564   2.067   1.724   3.044 -1.2688 -1.0610  0.3798
   97SAPC  C213 9565   2.026   1.939   3.001 -0.3947  0.2716  0.2251
   97SAPC  H13R 9566   2.051   1.974   3.103  1.0523  1.2404 -0.4255
   97SAPC  H13S 9567   1.931   1.995   2.990 -0.6438 -0.0554  0.6745
   97SAPC  C214 9568   2.123   1.986   2.890  0.2718 -0.0309  0.4587
   97SAPC  H14R 9569   2.071   2.018   2.798  1.1925  2.0133  0.6054
   97SAPC  C215 9570   2.258   1.963   2.899 -0.2646 -0.0870 -0.4283
   97SAPC  H15R 9571   2.312   2.006   2.814  0.6897  0.1359  0.2783
   97SAPC  C216 9572   2.329   1.906   3.017  0.3738  0.1814 -0.4699
   97SAPC  H16R 9573   2.421   1.855   2.983  0.3801 -0.0144 -0.1601
   97SAPC  H16S 9574   2.261   1.828   3.057 -1.2195 -0.8204 -4.5920
   97SAPC  C217 9575   2.366   2.004   3.132  0.6186  0.2346  0.0270
   97SAPC  H17R 9576   2.278   2.052   3.180 -0.1457 -1.7545  0.7263
   97SAPC  H17S 9577   2.420   2.090   3.088  1.7588 -1.9363 -3.1488
   97SAPC  C218 9578   2.469   1.945   3.239 -0.1374 -0.1134  0.3840
   97SAPC  H18R 9579   2.568   1.936   3.190  0.3047  1.0994  1.0256
   97SAPC  H18S 9580   2.433   1.847   3.279 -0.9214 -0.1582 -0.4028
   97SAPC  C219 9581   2.483   2.027   3.365 -0.0625  0.6860 -0.4709
   97SAPC  H19R 9582   2.528   1.973   3.450 -1.7506  0.6225  0.4343
   97SAPC  H19S 9583   2.378   2.052   3.393 -1.6053 -1.6293 -3.5006
   97SAPC  C220 9584   2.558   2.155   3.341  0.1798  0.3591  0.0283
   97SAPC  H20R 9585   2.514   2.224   3.267 -0.7942  0.0595  0.3086
   97SAPC  H20S 9586   2.660   2.134   3.302  0.1138  1.5464 -0.8022
   97SAPC  H20T 9587   2.567   2.214   3.435  0.5198  0.8134 -0.2848
   97SAPC   C33 9588   2.389   1.236   2.410  0.3765  0.7322 -0.0704
   97SAPC   H3X 9589   2.422   1.296   2.498  2.6252  2.0961 -1.7329
   97SAPC   H3Y 9590   2.443   1.289   2.328 -0.4952  0.8041 -0.6095
   97SAPC   C34 9591   2.443   1.090   2.410  0.2178  0.0366  0.1671
   97SAPC   H4X 9592   2.551   1.097   2.434  0.3143  2.9207 -0.7054
   97SAPC   H4Y 9593   2.418   1.061   2.306 -2.2247  2.0502  0.0907
   97SAPC   C35 9594   2.378   1.005   2.515  0.2301 -0.6528 -0.2638
   97SAPC   H5X 9595   2.428   0.906   2.508  2.2122  0.2535  0.2405
   97SAPC   H5Y 9596   2.269   0.989   2.499 -0.2283 -0.0520  1.8390
   97SAPC   C36 9597   2.403   1.059   2.657  0.3840  0.3248  0.2640
   97SAPC   H6X 9598   2.336   1.146   2.673  1.5901  0.7073  4.4961
   97SAPC   H6Y 9599   2.504   1.104   2.665 -0.2923  2.0817 -0.5075
   97SAPC   C37 9600   2.387   0.954   2.766  0.1185  0.2137 -0.6533
   97SAPC   H7X 9601   2.475   0.887   2.778 -0.0707 -0.0531 -0.7644
   97SAPC   H7Y 9602   2.306   0.886   2.734  0.7559 -1.2538  0.7460
   97SAPC   C38 9603   2.344   1.035   2.889 -0.3669 -0.1565 -0.2700
   97SAPC   H8X 9604   2.303   0.963   2.963 -2.8656  3.0025  1.6908
   97SAPC   H8Y 9605   2.265   1.111   2.873  1.4535  1.7806 -0.5811
   97SAPC   C39 9606   2.452   1.122   2.951 -0.7993  0.0983  0.7427
   97SAPC   H9X 9607   2.416   1.166   3.047  1.2264  1.8179  0.7853
   97SAPC   H9Y 9608   2.480   1.208   2.887 -0.8595 -0.2491  0.2461
   97SAPC  C310 9609   2.579   1.041   2.979 -0.0974 -0.5584 -0.3095
   97SAPC  H10X 9610   2.618   0.993   2.887 -2.2082 -1.7651 -0.6441
   97SAPC  H10Y 9611   2.550   0.974   3.062  0.6716  0.4654  0.8106
   97SAPC  C311 9612   2.694   1.128   3.037 -0.4152  0.4101 -0.3222
   97SAPC  H11X 9613   2.773   1.057   3.070 -2.1484 -1.1496  0.6351
   97SAPC  H11Y 9614   2.649   1.176   3.127  2.3537 -0.6038  1.7454
   97SAPC  C312 9615   2.749   1.237   2.943 -0.2860 -0.0106  0.3254
   97SAPC  H12X 9616   2.671   1.310   2.912 -0.2389  0.4571  1.2444
   97SAPC  H12Y 9617   2.786   1.191   2.849  1.8425 -1.2807  1.6986
   97SAPC  C313 9618   2.865   1.327   2.996 -0.2845 -0.1298  0.4874
   97SAPC  H13X 9619   2.886   1.402   2.916 -0.2767 -0.1743  0.4475
   97SAPC  H13Y 9620   2.952   1.259   3.008 -0.7236 -0.4798  1.7674
   97SAPC  C314 9621   2.836   1.398   3.128 -0.8492  0.0952  0.0169
   97SAPC  H14X 9622   2.915   1.469   3.160 -2.8133  2.2518  0.3813
   97SAPC  H14Y 9623   2.809   1.333   3.214  1.2873  2.7927  2.9611
   97SAPC  C315 9624   2.719   1.504   3.136  0.9341  0.2864  0.3372
   97SAPC  H15X 9625   2.725   1.544   3.240 -0.8071 -0.6809  0.8479
   97SAPC  H15Y 9626   2.623   1.448   3.133  1.8757 -1.3466 -0.2843
   97SAPC  C316 9627   2.699   1.613   3.023 -0.2147  0.0200 -0.0586
   97SAPC  H16X 9628   2.595   1.650   3.011  0.2377  1.9946  1.5925
   97SAPC  H16Y 9629   2.734   1.561   2.931  2.5486 -0.5929  1.2252
   97SAPC  C317 9630   2.795   1.729   3.054 -0.3880 -0.2333  0.2159
   97SAPC  H17X 9631   2.875   1.676   3.111 -0.3116 -0.5445 -0.1725
   97SAPC  H17Y 9632   2.740   1.788   3.130  0.0233  0.7986 -0.2657
   97SAPC  C318 9633   2.842   1.823   2.938  0.1202 -0.0015 -0.1242
   97SAPC  H18X 9634   2.927   1.773   2.887  1.3560  0.5355  1.3197
   97SAPC  H18Y 9635   2.888   1.918   2.973 -0.3197  0.3139 -0.3904
   97SAPC  H18Z 9636   2.763   1.856   2.868 -0.2960  1.9116  1.1510
   98SAPC     N 9637   0.344   2.413   1.660  0.1390 -0.7967 -0.2249
   98SAPC   C12 9638   0.279   2.386   1.792 -0.7726  0.1492 -0.1232
   98SAPC  H12A 9639   0.252   2.282   1.794  0.9112 -0.3543  2.8179
   98SAPC  H12B 9640   0.184   2.437   1.802 -0.1855  1.9549 -2.7880
   98SAPC   C13 9641   0.463   2.317   1.643  0.3639  0.1770 -0.0027
   98SAPC  H13A 9642   0.541   2.319   1.718  1.1872  1.6614 -0.8386
   98SAPC  H13B 9643   0.425   2.216   1.638 -1.1427  0.7239  0.1027
   98SAPC  H13C 9644   0.511   2.339   1.549  0.2347 -1.5387 -0.5071
   98SAPC   C14 9645   0.241   2.383   1.551  0.3505 -0.2601 -0.3859
   98SAPC  H14A 9646   0.284   2.404   1.455 -0.4715  0.0106 -0.7065
   98SAPC  H14B 9647   0.208   2.280   1.557 -0.2187 -0.1864 -1.8074
   98SAPC  H14C 9648   0.150   2.440   1.567  0.9667  0.7333 -0.3292
   98SAPC   C15 9649   0.397   2.557   1.653  0.5922  0.5819  0.0724
   98SAPC  H15A 9650   0.317   2.628   1.669  0.7570  1.6155 -2.9670
   98SAPC  H15B 9651   0.489   2.561   1.710  1.5891 -3.9142 -0.8331
   98SAPC  H15C 9652   0.424   2.596   1.556 -1.6391  1.5762 -0.2074
   98SAPC   C11 9653   0.373   2.409   1.917  0.6805  0.0277  0.0192
   98SAPC  H11A 9654   0.463   2.345   1.911  0.0324 -1.0149  0.9549
   98SAPC  H11B 9655   0.319   2.371   2.007 -1.5496 -1.1281 -1.6856
   98SAPC     P 9656   0.290   2.651   1.979  0.0658 -0.4395  0.2162
   98SAPC   O13 9657   0.306   2.788   1.922  0.1409 -0.4131 -0.0153
   98SAPC   O14 9658   0.156   2.594   1.965  0.0685  0.4948  0.5232
   98SAPC   O12 9659   0.408   2.549   1.933  0.1565 -0.2774 -0.5171
   98SAPC   O11 9660   0.302   2.658   2.137 -0.2750  0.2389  0.1307
   98SAPC    C1 9661   0.419   2.631   2.213  0.0271  0.1518  0.8403
   98SAPC    HA 9662   0.509   2.616   2.149 -1.9644  0.1886 -2.1593
   98SAPC    HB 9663   0.423   2.720   2.278 -0.9656  1.1529 -0.4172
   98SAPC    C2 9664   0.426   2.497   2.292 -0.4227 -0.3850  0.2447
   98SAPC    HS 9665   0.368   2.416   2.243 -1.3290  0.0246  0.6171
   98SAPC   O21 9666   0.382   2.510   2.422  0.0581  0.0456 -0.3602
   98SAPC   C21 9667   0.251   2.542   2.440  0.1496  0.3446  0.2238
   98SAPC   O22 9668   0.165   2.519   2.356  0.3435 -0.3644 -0.5241
   98SAPC   C22 9669   0.229   2.606   2.578 -0.3869  0.1983 -0.5749
   98SAPC   H2R 9670   0.209   2.528   2.654 -2.0093  1.1789  0.0568
   98SAPC   H2S 9671   0.317   2.669   2.603 -0.0896 -0.8464  1.1786
   98SAPC    C3 9672   0.569   2.437   2.310 -0.5896 -0.2743  0.7926
   98SAPC    HX 9673   0.604   2.395   2.213 -0.0628  2.4818 -0.3121
   98SAPC    HY 9674   0.553   2.354   2.381  1.0079 -1.4593 -0.1465
   98SAPC   O31 9675   0.662   2.536   2.359 -0.2163 -0.4782 -0.4686
   98SAPC   C31 9676   0.791   2.511   2.344  0.0538  0.0862  0.3860
   98SAPC   O32 9677   0.848   2.404   2.314 -0.1431 -0.0258 -0.1046
   98SAPC   C32 9678   0.867   2.636   2.370 -0.6345  0.0013 -0.2531
   98SAPC   H2X 9679   0.801   2.708   2.423  0.7048  0.3835  0.9574
   98SAPC   H2Y 9680   0.891   2.682   2.271  1.1638  0.8972  0.5502
   98SAPC   C23 9681   0.104   2.692   2.574  0.0941 -0.5014 -0.5367
   98SAPC   H3R 9682   0.010   2.641   2.545 -0.3021  0.6122 -1.2569
   98SAPC   H3S 9683   0.114   2.765   2.491 -1.6118  0.1597 -0.1902
   98SAPC   C24 9684   0.079   2.766   2.711  0.0953 -0.0854 -0.3852
   98SAPC   H4R 9685   0.040   2.679   2.767  0.4596 -2.0397 -2.9520
   98SAPC   H4S 9686  -0.014   2.827   2.706 -1.1624 -1.9965 -1.7573
   98SAPC   C25 9687   0.189   2.848   2.773  0.1642 -0.2588  0.7677
   98SAPC   H5R 9688   0.219   2.937   2.716 -2.3560  0.1828 -0.0144
   98SAPC   C26 9689   0.256   2.813   2.888 -0.0322  0.0991  0.2949
   98SAPC   H6R 9690   0.332   2.887   2.916 -2.0917  1.7917  1.7864
   98SAPC   C27 9691   0.233   2.689   2.971 -0.0989 -0.1509 -0.4943
   98SAPC   H7R 9692   0.331   2.664   3.018  0.8067  1.0431 -1.6738
   98SAPC   H7S 9693   0.222   2.605   2.900 -0.9166 -0.1661 -0.3609
   98SAPC   C28 9694   0.119   2.686   3.073 -0.9513  0.6333  0.3576
   98SAPC   H8R 9695   0.036   2.758   3.075 -0.6824  1.0794 -1.6777
   98SAPC   C29 9696   0.117   2.603   3.176  0.1260 -0.0201 -0.1122
   98SAPC   H9R 9697   0.026   2.595   3.237  1.9877 -1.0976  2.7582
   98SAPC  C210 9698   0.219   2.496   3.213  0.6197 -0.4279  0.0714
   98SAPC  H10R 9699   0.267   2.520   3.311  0.4889  0.7988 -0.1570
   98SAPC  H10S 9700   0.308   2.502   3.147 -0.5787 -0.4926 -1.5890
   98SAPC  C211 9701   0.175   2.349   3.218 -0.1690 -0.5693  0.5642
   98SAPC  H11R 9702   0.080   2.343   3.272  0.9763 -1.6267  2.5906
   98SAPC  C212 9703   0.226   2.232   3.182  0.6859  0.3033  0.2195
   98SAPC  H12R 9704   0.154   2.149   3.178 -0.0618  0.7772  2.4965
   98SAPC  C213 9705   0.364   2.193   3.126  0.4047 -0.7178  0.1826
   98SAPC  H13R 9706   0.417   2.272   3.069 -0.8015  0.6089  0.8190
   98SAPC  H13S 9707   0.341   2.125   3.041  1.9625 -1.6135  0.4384
   98SAPC  C214 9708   0.444   2.113   3.228 -0.2361 -0.0239 -0.1843
   98SAPC  H14R 9709   0.392   2.052   3.304  0.3777  0.2203  0.4434
   98SAPC  C215 9710   0.582   2.105   3.230 -0.2207 -0.2032  0.3230
   98SAPC  H15R 9711   0.633   2.039   3.301 -2.7982 -2.2149  0.4715
   98SAPC  C216 9712   0.694   2.183   3.148 -0.1883 -0.8500 -0.4377
   98SAPC  H16R 9713   0.647   2.261   3.085 -1.0331 -1.0015 -0.0093
   98SAPC  H16S 9714   0.742   2.109   3.081 -1.1837  0.8576 -3.1864
   98SAPC  C217 9715   0.804   2.251   3.244 -0.1923 -0.2296  0.3033
   98SAPC  H17R 9716   0.757   2.325   3.313  3.6202  2.6113  0.1863
   98SAPC  H17S 9717   0.869   2.315   3.181  0.9904  0.4037  2.0734
   98SAPC  C218 9718   0.882   2.141   3.319 -0.6251  0.3564  0.3154
   98SAPC  H18R 9719   0.937   2.078   3.245 -1.6709 -0.2946  0.0777
   98SAPC  H18S 9720   0.807   2.081   3.374  1.7197 -1.8605  1.3415
   98SAPC  C219 9721   0.986   2.184   3.425  0.1609 -0.3558 -0.5420
   98SAPC  H19R 9722   1.026   2.090   3.469  1.1355  0.6269  0.7448
   98SAPC  H19S 9723   0.925   2.242   3.498  0.6453 -0.5814  0.0423
   98SAPC  C220 9724   1.098   2.264   3.367  0.3285  0.8346 -0.4650
   98SAPC  H20R 9725   1.173   2.288   3.445 -1.8000 -0.6232  2.2162
   98SAPC  H20S 9726   1.070   2.358   3.315  0.4323 -0.2082 -2.5002
   98SAPC  H20T 9727   1.141   2.193   3.293 -0.2072 -1.3706  1.2033
   98SAPC   C33 9728   1.006   2.615   2.444 -0.1672 -0.1745  0.2062
   98SAPC   H3X 9729   1.065   2.706   2.423 -0.3820 -0.4831 -2.0255
   98SAPC   H3Y 9730   1.066   2.536   2.394  0.6668  0.7234 -0.2462
   98SAPC   C34 9731   0.994   2.608   2.595 -0.3853  0.0097 -1.0268
   98SAPC   H4X 9732   0.915   2.534   2.622 -1.0375  1.6986  2.1894
   98SAPC   H4Y 9733   0.939   2.699   2.626  1.1502  0.6776 -0.1781
   98SAPC   C35 9734   1.127   2.598   2.671  0.4128  0.4408  0.2312
   98SAPC   H5X 9735   1.189   2.686   2.640  1.2072 -0.4638 -0.8394
   98SAPC   H5Y 9736   1.174   2.503   2.638 -1.2580 -0.7329  1.0783
   98SAPC   C36 9737   1.091   2.618   2.819 -0.2428  0.6965 -0.4155
   98SAPC   H6X 9738   1.013   2.546   2.851  0.1189  0.1190 -0.8098
   98SAPC   H6Y 9739   1.050   2.719   2.839  0.5056  0.7693  0.9228
   98SAPC   C37 9740   1.217   2.595   2.906 -0.2269  0.1441  0.5435
   98SAPC   H7X 9741   1.306   2.647   2.865 -0.5373 -0.0055 -0.3330
   98SAPC   H7Y 9742   1.255   2.491   2.910  3.2638  1.3005  1.8235
   98SAPC   C38 9743   1.199   2.650   3.050  0.1881 -0.4582 -0.2527
   98SAPC   H8X 9744   1.220   2.759   3.041 -2.7234  0.1026 -1.3242
   98SAPC   H8Y 9745   1.284   2.607   3.108  2.5163  2.0457 -1.5654
   98SAPC   C39 9746   1.062   2.630   3.124 -0.3886 -0.1607 -0.3263
   98SAPC   H9X 9747   1.027   2.526   3.106 -0.8500 -0.0856  0.1120
   98SAPC   H9Y 9748   0.989   2.701   3.079 -0.1179  0.9665  0.9388
   98SAPC  C310 9749   1.065   2.674   3.272 -0.2812 -0.6394  0.0658
   98SAPC  H10X 9750   1.086   2.782   3.282 -0.3223 -0.6879  0.6934
   98SAPC  H10Y 9751   1.158   2.623   3.305  0.7807 -1.5669 -3.8461
   98SAPC  C311 9752   0.939   2.636   3.349 -0.9682  0.7044  0.1866
   98SAPC  H11X 9753   0.970   2.616   3.453 -1.8719  1.8208  0.6900
   98SAPC  H11Y 9754   0.893   2.550   3.295 -2.3205  0.8122  1.1190
   98SAPC  C312 9755   0.833   2.745   3.363 -0.0809 -0.1654 -0.1917
   98SAPC  H12X 9756   0.795   2.755   3.260  0.2135  0.6949 -0.2332
   98SAPC  H12Y 9757   0.881   2.844   3.384  0.1348 -0.1778 -0.6263
   98SAPC  C313 9758   0.717   2.732   3.461  0.5472  0.9044 -0.1355
   98SAPC  H13X 9759   0.663   2.829   3.456 -0.6964  0.1862 -1.1414
   98SAPC  H13Y 9760   0.761   2.725   3.563  1.1885  1.3335 -0.3767
   98SAPC  C314 9761   0.620   2.615   3.431 -0.6148  0.0838 -0.0461
   98SAPC  H14X 9762   0.682   2.526   3.453  0.5604  0.8946  0.0435
   98SAPC  H14Y 9763   0.598   2.621   3.323 -0.4393 -2.5975 -0.2763
   98SAPC  C315 9764   0.504   2.612   3.528  0.2493 -0.1668 -0.5819
   98SAPC  H15X 9765   0.430   2.693   3.510  1.2452  1.5964  2.4450
   98SAPC  H15Y 9766   0.547   2.633   3.628 -0.5939 -1.4408  0.0816
   98SAPC  C316 9767   0.448   2.470   3.543  0.3498  0.2057 -0.5635
   98SAPC  H16X 9768   0.518   2.388   3.568  0.7183  0.3046 -1.2576
   98SAPC  H16Y 9769   0.395   2.425   3.456  0.4962 -0.7956 -0.1497
   98SAPC  C317 9770   0.348   2.463   3.658 -0.0462 -0.1917 -0.7366
   98SAPC  H17X 9771   0.288   2.556   3.646 -2.0843 -1.5334 -1.3920
   98SAPC  H17Y 9772   0.421   2.466   3.742 -1.1354 -1.7812  0.3232
   98SAPC  C318 9773   0.264   2.337   3.658 -0.0240  0.1354  0.1380
   98SAPC  H18X 9774   0.329   2.248   3.671 -0.8076 -0.2921  1.2522
   98SAPC  H18Y 9775   0.202   2.321   3.567 -1.4043 -3.4292  1.5382
   98SAPC  H18Z 9776   0.192   2.334   3.742  0.8573 -1.8317  0.8893
   99SAPC     N 9777   1.348   0.153   1.621  0.1093 -0.3447 -0.4254
   99SAPC   C12 9778   1.496   0.116   1.649 -0.0084  0.1965 -0.0997
   99SAPC  H12A 9779   1.556   0.203   1.627  1.1410 -0.4230  0.4752
   99SAPC  H12B 9780   1.528   0.046   1.572  2.1270 -0.4404  1.2627
   99SAPC   C13 9781   1.306   0.250   1.724  0.1265 -0.7375 -0.1945
   99SAPC  H13A 9782   1.323   0.353   1.698 -2.9146 -0.5076 -1.7746
   99SAPC  H13B 9783   1.198   0.263   1.719  0.0886 -1.4894 -1.7101
   99SAPC  H13C 9784   1.343   0.238   1.825  3.0736 -1.5547 -1.2902
   99SAPC   C14 9785   1.344   0.219   1.485 -1.1359 -0.3006 -0.3014
   99SAPC  H14A 9786   1.388   0.318   1.486 -1.5055 -0.0610 -2.2244
   99SAPC  H14B 9787   1.390   0.156   1.411 -0.0714  2.7781 -2.4611
   99SAPC  H14C 9788   1.240   0.236   1.457 -0.8909  0.5183 -0.7527
   99SAPC   C15 9789   1.254   0.043   1.626  0.1040  0.1188 -0.4278
   99SAPC  H15A 9790   1.232   0.007   1.726 -3.0389  1.1448 -0.6497
   99SAPC  H15B 9791   1.161   0.076   1.583  0.1358  0.2624 -0.3878
   99SAPC  H15C 9792   1.288  -0.044   1.572 -0.8053  0.3108 -1.3392
   99SAPC   C11 9793   1.531   0.062   1.793 -0.0012 -0.0878 -0.3733
   99SAPC  H11A 9794   1.538   0.156   1.850 -0.0743 -0.9747  1.1398
   99SAPC  H11B 9795   1.630   0.010   1.796  0.3886  0.6792  0.1636
   99SAPC     P 9796   1.447  -0.181   1.869  0.3100  0.3010  0.4021
   99SAPC   O13 9797   1.308  -0.229   1.900 -0.4559 -0.4702 -0.8798
   99SAPC   O14 9798   1.503  -0.238   1.745  0.2352  0.8701 -0.0874
   99SAPC   O12 9799   1.431  -0.024   1.860  0.1431 -0.2929 -0.7793
   99SAPC   O11 9800   1.540  -0.211   1.996 -0.4624 -0.5432 -0.3922
   99SAPC    C1 9801   1.536  -0.137   2.125  0.7012  0.2349  0.3299
   99SAPC    HA 9802   1.571  -0.032   2.116 -0.0045  0.4024 -0.6395
   99SAPC    HB 9803   1.435  -0.144   2.170  0.8888  1.3915  0.9640
   99SAPC    C2 9804   1.632  -0.205   2.235 -0.4541  0.1273  0.0845
   99SAPC    HS 9805   1.625  -0.144   2.328  0.7180 -1.8829  1.5765
   99SAPC   O21 9806   1.763  -0.203   2.179  0.1163 -0.0904  0.2033
   99SAPC   C21 9807   1.862  -0.169   2.262 -0.2648 -0.2403 -0.3138
   99SAPC   O22 9808   1.851  -0.131   2.375  0.0832  0.3429 -0.5053
   99SAPC   C22 9809   1.993  -0.187   2.186  0.9182  0.4900 -0.2680
   99SAPC   H2R 9810   1.976  -0.278   2.124 -2.6735 -0.5459  1.9511
   99SAPC   H2S 9811   2.014  -0.103   2.117  0.5872 -1.3008 -2.6964
   99SAPC    C3 9812   1.590  -0.353   2.261 -0.9660 -0.3151  0.2778
   99SAPC    HX 9813   1.625  -0.422   2.181 -2.3528 -0.5084 -0.1920
   99SAPC    HY 9814   1.480  -0.363   2.250 -0.7931 -1.6838 -0.4685
   99SAPC   O31 9815   1.613  -0.397   2.392  0.4858 -0.4026  0.3237
   99SAPC   C31 9816   1.685  -0.505   2.418 -0.4660  0.1583 -1.0179
   99SAPC   O32 9817   1.734  -0.579   2.331 -0.2109  0.2327  0.3760
   99SAPC   C32 9818   1.698  -0.527   2.568 -0.8073 -0.1684  0.3018
   99SAPC   H2X 9819   1.693  -0.636   2.588  1.9725 -0.7167 -1.4338
   99SAPC   H2Y 9820   1.619  -0.466   2.617 -1.0573  1.6213 -2.1461
   99SAPC   C23 9821   2.112  -0.223   2.276  0.3187  0.1809  0.4559
   99SAPC   H3R 9822   2.130  -0.134   2.339  0.0348 -0.2133  1.1085
   99SAPC   H3S 9823   2.195  -0.214   2.204 -0.4403 -0.3256 -0.5058
   99SAPC   C24 9824   2.109  -0.357   2.355  0.8174 -1.1882 -0.2283
   99SAPC   H4R 9825   2.121  -0.445   2.289  1.0100  1.1092 -3.5078
   99SAPC   H4S 9826   2.009  -0.352   2.403  0.1181 -0.4329 -1.6877
   99SAPC   C25 9827   2.212  -0.352   2.461  0.0155  0.1151 -0.1936
   99SAPC   H5R 9828   2.223  -0.258   2.517  0.0139 -0.8929  1.5482
   99SAPC   C26 9829   2.269  -0.460   2.518  0.0985 -0.1213  0.5627
   99SAPC   H6R 9830   2.335  -0.450   2.605  0.7127  1.9066 -0.0827
   99SAPC   C27 9831   2.252  -0.604   2.484  0.1384  0.5516 -0.0976
   99SAPC   H7R 9832   2.179  -0.620   2.402 -0.3904  1.5886  0.1595
   99SAPC   H7S 9833   2.227  -0.658   2.578  2.6467  0.3241  0.5255
   99SAPC   C28 9834   2.379  -0.670   2.441  0.2415  0.0580 -0.1998
   99SAPC   H8R 9835   2.410  -0.633   2.342  1.8946 -0.4841  0.0689
   99SAPC   C29 9836   2.460  -0.760   2.504 -0.1145  1.1089 -0.3033
   99SAPC   H9R 9837   2.546  -0.807   2.453 -1.5380 -0.3102 -1.5087
   99SAPC  C210 9838   2.437  -0.821   2.646  0.8227 -0.9863 -0.7602
   99SAPC  H10R 9839   2.346  -0.770   2.685 -0.5332 -2.3207 -2.0662
   99SAPC  H10S 9840   2.529  -0.802   2.705 -0.0416 -1.2410  0.7219
   99SAPC  C211 9841   2.406  -0.969   2.658  0.2070  0.3551  0.8402
   99SAPC  H11R 9842   2.433  -1.022   2.566  1.2882  2.2796 -0.0325
   99SAPC  C212 9843   2.348  -1.037   2.757  0.4105  0.1343  0.0876
   99SAPC  H12R 9844   2.335  -1.144   2.735  1.6064  0.1904 -0.9643
   99SAPC  C213 9845   2.303  -0.988   2.892 -0.4240  0.4094 -0.0761
   99SAPC  H13R 9846   2.366  -0.899   2.916 -0.4508  0.5703 -0.5953
   99SAPC  H13S 9847   2.337  -1.070   2.959  2.5482 -0.4816 -2.4372
   99SAPC  C214 9848   2.161  -0.955   2.912 -0.0572  0.1467 -0.4792
   99SAPC  H14R 9849   2.106  -0.941   2.818 -0.5867 -0.8116 -0.3230
   99SAPC  C215 9850   2.091  -0.952   3.026 -0.5204  1.1135 -0.2265
   99SAPC  H15R 9851   1.986  -0.923   3.037 -0.8499  0.1058 -0.5692
   99SAPC  C216 9852   2.168  -0.968   3.153 -0.2968 -0.0984 -0.1663
   99SAPC  H16R 9853   2.246  -0.890   3.161 -0.0103 -0.5758  3.1959
   99SAPC  H16S 9854   2.230  -1.059   3.163  0.2492  0.2354 -0.4945
   99SAPC  C217 9855   2.092  -0.949   3.293 -0.0691  0.1629 -0.0526
   99SAPC  H17R 9856   2.003  -1.015   3.304  1.3096 -1.7293  0.3214
   99SAPC  H17S 9857   2.058  -0.845   3.275 -1.5165 -0.4801 -1.2914
   99SAPC  C218 9858   2.189  -0.957   3.416 -0.5059 -0.0020  0.0176
   99SAPC  H18R 9859   2.249  -0.865   3.398 -1.1493  0.0718 -2.1738
   99SAPC  H18S 9860   2.246  -1.051   3.402 -3.1471 -1.5911 -0.9083
   99SAPC  C219 9861   2.124  -0.951   3.556 -0.3551  0.2085  0.1199
   99SAPC  H19R 9862   2.199  -0.937   3.637  1.5651 -1.5126 -1.2741
   99SAPC  H19S 9863   2.083  -1.051   3.580 -0.8189  0.3949  0.1211
   99SAPC  C220 9864   2.033  -0.828   3.574 -0.0035 -0.0650 -0.4293
   99SAPC  H20R 9865   1.937  -0.847   3.521 -1.7393  1.4218  1.9407
   99SAPC  H20S 9866   2.076  -0.732   3.539 -1.1882  0.2721 -1.0190
   99SAPC  H20T 9867   2.005  -0.816   3.681 -3.2030 -2.3707 -0.8614
   99SAPC   C33 9868   1.834  -0.466   2.613 -0.0046 -0.3504 -0.0625
   99SAPC   H3X 9869   1.862  -0.363   2.584  0.4340 -0.7720 -1.1686
   99SAPC   H3Y 9870   1.905  -0.530   2.556  0.9119 -0.4834  1.1864
   99SAPC   C34 9871   1.867  -0.482   2.766 -0.1508 -0.2656 -0.1516
   99SAPC   H4X 9872   1.829  -0.583   2.793  0.0581  0.4059  3.1108
   99SAPC   H4Y 9873   1.814  -0.409   2.830 -1.4437 -1.8620  0.6867
   99SAPC   C35 9874   2.019  -0.473   2.817  1.0214 -0.0644 -0.2515
   99SAPC   H5X 9875   2.041  -0.371   2.854 -1.7567  0.6771 -0.4677
   99SAPC   H5Y 9876   2.086  -0.475   2.729  0.5883  0.7043 -0.6091
   99SAPC   C36 9877   2.062  -0.586   2.913  0.6324 -0.4201 -1.1425
   99SAPC   H6X 9878   2.170  -0.584   2.939 -0.0822 -1.6932  2.5292
   99SAPC   H6Y 9879   2.043  -0.679   2.854 -0.1466 -1.1661  0.2242
   99SAPC   C37 9880   2.004  -0.590   3.050  0.0789 -0.0246  0.2566
   99SAPC   H7X 9881   2.051  -0.682   3.092 -1.1910 -0.4569  0.7951
   99SAPC   H7Y 9882   1.895  -0.608   3.047  0.4976 -2.9999 -0.0245
   99SAPC   C38 9883   2.037  -0.470   3.137 -0.3454  0.2180 -0.0240
   99SAPC   H8X 9884   2.000  -0.377   3.088  0.5397  0.6322  0.0746
   99SAPC   H8Y 9885   2.147  -0.452   3.142 -0.1691 -0.9810  4.2064
   99SAPC   C39 9886   1.991  -0.497   3.282  0.0567 -0.2219 -0.1053
   99SAPC   H9X 9887   1.999  -0.405   3.345 -0.2893 -0.3378  0.1130
   99SAPC   H9Y 9888   2.064  -0.566   3.330  0.4191  1.7734  2.4336
   99SAPC  C310 9889   1.844  -0.550   3.309 -0.2452 -0.6950 -0.1324
   99SAPC  H10X 9890   1.835  -0.554   3.420  1.4507  0.7616  0.1006
   99SAPC  H10Y 9891   1.836  -0.652   3.267 -0.0187  0.1478 -2.3490
   99SAPC  C311 9892   1.729  -0.474   3.247 -0.1047 -0.2663  0.2196
   99SAPC  H11X 9893   1.734  -0.454   3.138  0.1676 -0.2317  0.2381
   99SAPC  H11Y 9894   1.722  -0.369   3.283  1.0301 -1.0316  2.9031
   99SAPC  C312 9895   1.589  -0.530   3.268  0.3302 -0.1094  0.3955
   99SAPC  H12X 9896   1.588  -0.638   3.240  2.0529 -0.5770  1.9500
   99SAPC  H12Y 9897   1.519  -0.480   3.197  2.7003 -0.3088 -2.2606
   99SAPC  C313 9898   1.532  -0.514   3.415 -0.1571 -0.1841  0.0064
   99SAPC  H13X 9899   1.530  -0.408   3.449  1.6057  0.0505 -0.5128
   99SAPC  H13Y 9900   1.601  -0.571   3.481  0.9776  0.4982 -0.5539
   99SAPC  C314 9901   1.389  -0.574   3.421  0.0476 -0.9780 -0.4028
   99SAPC  H14X 9902   1.358  -0.617   3.519 -0.1860  0.2899  0.1057
   99SAPC  H14Y 9903   1.380  -0.660   3.352  1.9985 -1.3025 -0.3305
   99SAPC  C315 9904   1.282  -0.462   3.383  0.4526  0.2104 -0.6824
   99SAPC  H15X 9905   1.319  -0.405   3.295  2.0925  1.0005  0.4576
   99SAPC  H15Y 9906   1.270  -0.387   3.465 -0.1102  0.4116 -0.9387
   99SAPC  C316 9907   1.135  -0.510   3.359  0.3655  0.0199  0.7535
   99SAPC  H16X 9908   1.103  -0.545   3.459  3.9591 -2.9992  1.0918
   99SAPC  H16Y 9909   1.122  -0.582   3.276  0.3754  0.6286  0.2132
   99SAPC  C317 9910   1.038  -0.388   3.320 -0.0005  0.7842 -0.1337
   99SAPC  H17X 9911   1.087  -0.324   3.244 -2.0966  0.5366 -1.7983
   99SAPC  H17Y 9912   1.019  -0.318   3.404 -2.7249 -0.6792  0.6008
   99SAPC  C318 9913   0.908  -0.441   3.270 -0.1350  0.5404  0.2472
   99SAPC  H18X 9914   0.914  -0.513   3.186 -0.7168 -2.3342  2.5115
   99SAPC  H18Y 9915   0.845  -0.362   3.223  1.0027  0.3809 -1.6541
   99SAPC  H18Z 9916   0.851  -0.501   3.344  0.4072  0.5456  0.6731
  100SAPC     N 9917   0.239   0.177   1.459 -0.0883 -0.6215  0.2021
  100SAPC   C12 9918   0.271   0.073   1.560  0.7344  0.0768  0.0019
  100SAPC  H12A 9919   0.373   0.038   1.566  0.0613 -1.6858  2.8134
  100SAPC  H12B 9920   0.217  -0.016   1.531  0.4235 -0.3552  1.8375
  100SAPC   C13 9921   0.102   0.238   1.478 -0.7665  0.3830  0.4230
  100SAPC  H13A 9922   0.026   0.162   1.463 -0.7845  0.5504 -0.3567
  100SAPC  H13B 9923   0.095   0.283   1.576  0.6791  0.9822  0.2639
  100SAPC  H13C 9924   0.087   0.323   1.414  0.3588 -0.5920 -1.2128
  100SAPC   C14 9925   0.353   0.271   1.465 -0.0304  0.3714  0.1719
  100SAPC  H14A 9926   0.443   0.219   1.434 -1.0775 -1.2766 -0.2448
  100SAPC  H14B 9927   0.334   0.345   1.389  0.5539  0.0329 -0.3178
  100SAPC  H14C 9928   0.376   0.310   1.563  0.8849 -3.1164  1.5284
  100SAPC   C15 9929   0.243   0.117   1.323  0.1771  0.0788  0.5481
  100SAPC  H15A 9930   0.334   0.063   1.302  1.5260  1.9787  1.1930
  100SAPC  H15B 9931   0.154   0.058   1.304 -1.1141  1.7362  1.1111
  100SAPC  H15C 9932   0.242   0.189   1.242  2.7859  0.8539  1.1212
  100SAPC   C11 9933   0.242   0.105   1.710  0.0691 -0.1341  0.3758
  100SAPC  H11A 9934   0.270   0.022   1.778  0.2473 -2.0749 -1.8988
  100SAPC  H11B 9935   0.132   0.119   1.710  0.0866  0.0595 -0.4815
  100SAPC     P 9936   0.452   0.217   1.801  0.6040  0.0076  0.2571
  100SAPC   O13 9937   0.524   0.109   1.731  0.5320 -0.1687 -0.1318
  100SAPC   O14 9938   0.508   0.352   1.789  0.2618  0.2689 -0.0927
  100SAPC   O12 9939   0.305   0.229   1.748  0.5185 -0.0134 -0.3491
  100SAPC   O11 9940   0.451   0.178   1.958 -0.4288  0.0774  0.5294
  100SAPC    C1 9941   0.335   0.196   2.042  0.0068 -0.2533 -0.7537
  100SAPC    HA 9942   0.248   0.157   1.985 -1.2087 -0.3239  1.0455
  100SAPC    HB 9943   0.342   0.134   2.134  0.1154 -0.4110 -0.8684
  100SAPC    C2 9944   0.298   0.348   2.081  0.2163 -0.2882  0.5695
  100SAPC    HS 9945   0.283   0.404   1.986  0.7567 -0.0799  0.6061
  100SAPC   O21 9946   0.396   0.396   2.170  0.3174  0.4540 -0.2532
  100SAPC   C21 9947   0.411   0.532   2.166 -0.2527 -0.5549  0.2444
  100SAPC   O22 9948   0.370   0.593   2.066 -0.0245  0.0801 -0.0633
  100SAPC   C22 9949   0.500   0.581   2.277  0.0179 -0.4001 -0.0576
  100SAPC   H2R 9950   0.470   0.533   2.373  1.9986  1.0862  1.4082
  100SAPC   H2S 9951   0.602   0.552   2.247 -0.4120 -1.5585 -0.4549
  100SAPC    C3 9952   0.166   0.356   2.160  0.1455 -0.1526 -0.1016
  100SAPC    HX 9953   0.091   0.313   2.091  1.3887 -1.5490 -0.6406
  100SAPC    HY 9954   0.149   0.465   2.174  2.4848  0.4193 -1.1595
  100SAPC   O31 9955   0.182   0.272   2.279 -0.0706  0.2235 -0.2090
  100SAPC   C31 9956   0.206   0.330   2.398  0.0612 -0.2651 -0.4872
  100SAPC   O32 9957   0.220   0.449   2.416 -0.0129 -0.3347  0.1250
  100SAPC   C32 9958   0.210   0.218   2.510 -0.0290 -0.4645  0.1198
  100SAPC   H2X 9959   0.307   0.166   2.501  1.5184  2.3689 -0.9652
  100SAPC   H2Y 9960   0.120   0.160   2.482 -2.2235  1.1075  3.2861
  100SAPC   C23 9961   0.507   0.740   2.284 -0.4961  0.0113 -0.4991
  100SAPC   H3R 9962   0.530   0.798   2.192 -0.3450  1.4764  0.4231
  100SAPC   H3S 9963   0.593   0.770   2.348  0.8596 -0.0081 -2.2397
  100SAPC   C24 9964   0.388   0.810   2.354  0.5972 -0.0365 -0.2403
  100SAPC   H4R 9965   0.298   0.819   2.289 -0.0176  1.4580  0.7612
  100SAPC   H4S 9966   0.421   0.913   2.380  0.6270 -0.0840 -0.0892
  100SAPC   C25 9967   0.351   0.736   2.476  0.3586 -0.0008  0.1308
  100SAPC   H5R 9968   0.334   0.629   2.454 -2.3809  0.1247  1.1487
  100SAPC   C26 9969   0.356   0.764   2.608  0.4111 -0.4970 -0.0395
  100SAPC   H6R 9970   0.325   0.683   2.676  0.1989 -0.4466 -0.0781
  100SAPC   C27 9971   0.384   0.900   2.676  0.1971  0.4862 -0.9245
  100SAPC   H7R 9972   0.309   0.901   2.758 -1.2074 -0.2495 -2.1555
  100SAPC   H7S 9973   0.367   0.982   2.604 -2.1567  1.0925  0.2292
  100SAPC   C28 9974   0.516   0.915   2.745  0.5079  0.0446 -0.6199
  100SAPC   H8R 9975   0.595   0.967   2.688  4.0309 -2.2185  1.8069
  100SAPC   C29 9976   0.544   0.874   2.869  0.4489 -0.0037  0.4168
  100SAPC   H9R 9977   0.647   0.867   2.908  1.0325  0.2681 -1.0025
  100SAPC  C210 9978   0.458   0.798   2.967  0.3863 -0.5808  0.0642
  100SAPC  H10R 9979   0.529   0.737   3.027  1.9701  1.4985  0.4609
  100SAPC  H10S 9980   0.388   0.727   2.918 -0.3101 -0.1897  0.4750
  100SAPC  C211 9981   0.378   0.881   3.062  0.8600 -0.2413 -0.3874
  100SAPC  H11R 9982   0.269   0.881   3.049  0.8173 -0.9057 -0.1079
  100SAPC  C212 9983   0.426   0.935   3.172  0.6708  0.5262 -0.7451
  100SAPC  H12R 9984   0.349   0.981   3.237 -0.9203 -2.5993 -0.2168
  100SAPC  C213 9985   0.561   0.927   3.236  0.1092 -0.5808  0.5989
  100SAPC  H13R 9986   0.552   0.999   3.320 -1.8616  0.8060 -0.7032
  100SAPC  H13S 9987   0.633   0.974   3.166 -2.0507 -0.7623 -1.8790
  100SAPC  C214 9988   0.598   0.792   3.299 -0.7358  1.2163  0.8619
  100SAPC  H14R 9989   0.553   0.711   3.240 -0.1936  1.5417 -0.0213
  100SAPC  C215 9990   0.679   0.766   3.400  1.0858  0.1193 -0.2888
  100SAPC  H15R 9991   0.686   0.658   3.418  1.6242 -0.2024 -2.1476
  100SAPC  C216 9992   0.753   0.863   3.488 -0.4326  0.1279 -0.2133
  100SAPC  H16R 9993   0.720   0.965   3.459 -2.7682  0.4002  2.9122
  100SAPC  H16S 9994   0.861   0.850   3.468 -0.5852 -1.9349  0.0949
  100SAPC  C217 9995   0.732   0.855   3.643  0.1832  0.5200 -0.2892
  100SAPC  H17R 9996   0.623   0.868   3.657  0.3636 -0.6835  3.1038
  100SAPC  H17S 9997   0.791   0.941   3.684  0.2917  0.8492 -1.1210
  100SAPC  C218 9998   0.770   0.719   3.705 -0.6566 -0.6725 -0.1654
  100SAPC  H18R 9999   0.872   0.692   3.671 -0.0903  2.2031 -0.9642
  100SAPC  H18S10000   0.703   0.636   3.672 -1.8031  0.1074  0.1548
  100SAPC  C21910001   0.772   0.718   3.861 -0.5065  0.4587  0.1780
  100SAPC  H19R10002   0.822   0.807   3.905 -0.4225  0.5300 -0.0628
  100SAPC  H19S10003   0.842   0.639   3.894 -1.2638 -1.3319 -2.2413
  100SAPC  C22010004   0.631   0.705   3.932  0.4595  0.0272 -0.1282
  100SAPC  H20R10005   0.655   0.678   4.037  0.7088  1.5044  0.2241
  100SAPC  H20S10006   0.577   0.626   3.876  0.5965 -0.5641  0.5647
  100SAPC  H20T10007   0.584   0.805   3.925 -0.8502 -0.3668  2.1463
  100SAPC   C3310008   0.193   0.260   2.664 -0.0761  0.8277  0.1518
  100SAPC   H3X10009   0.096   0.227   2.707  0.9994 -2.1676  0.5350
  100SAPC   H3Y10010   0.211   0.369   2.661 -2.2591  1.3174  2.2638
  100SAPC   C3410011   0.297   0.191   2.753  0.6566 -0.1123  0.0099
  100SAPC   H4X10012   0.399   0.200   2.709  1.6404  1.6677  2.4455
  100SAPC   H4Y10013   0.266   0.084   2.761  1.1541 -0.1624  1.5579
  100SAPC   C3510014   0.328   0.256   2.883  0.6201  0.1595  0.1688
  100SAPC   H5X10015   0.232   0.260   2.938  0.9938  0.6453  0.7934
  100SAPC   H5Y10016   0.366   0.359   2.863 -1.7524  0.9366 -0.6588
  100SAPC   C3610017   0.426   0.170   2.964 -0.1933 -0.1567  0.6116
  100SAPC   H6X10018   0.533   0.200   2.957  0.1193 -0.8522  2.1039
  100SAPC   H6Y10019   0.417   0.064   2.933 -2.3403  0.6760 -1.9628
  100SAPC   C3710020   0.395   0.197   3.111  0.1972 -0.3607  0.0268
  100SAPC   H7X10021   0.451   0.128   3.177 -0.4379 -0.1592  0.7863
  100SAPC   H7Y10022   0.287   0.181   3.132 -0.1238  1.5258  0.0489
  100SAPC   C3810023   0.432   0.344   3.144  0.6015 -0.5829 -0.2642
  100SAPC   H8X10024   0.355   0.416   3.107  0.6830 -0.4987 -0.2700
  100SAPC   H8Y10025   0.521   0.380   3.089  1.1057 -0.8113  0.3838
  100SAPC   C3910026   0.443   0.369   3.293 -0.0113 -0.0161  0.3988
  100SAPC   H9X10027   0.441   0.478   3.311  2.0266  0.0439  0.5732
  100SAPC   H9Y10028   0.536   0.324   3.335 -0.2541 -0.4715  0.4551
  100SAPC  C31010029   0.315   0.320   3.371  0.0066  0.3431 -0.2196
  100SAPC  H10X10030   0.321   0.211   3.354  0.3715  0.7799 -3.6238
  100SAPC  H10Y10031   0.226   0.348   3.310 -0.5404 -1.2386 -0.1955
  100SAPC  C31110032   0.320   0.359   3.521 -0.0825 -0.2804  0.5704
  100SAPC  H11X10033   0.225   0.327   3.570  0.1798  1.2157  2.1677
  100SAPC  H11Y10034   0.322   0.470   3.515  2.4169 -0.3345 -0.8553
  100SAPC  C31210035   0.429   0.300   3.604 -0.3172  0.6377  0.3792
  100SAPC  H12X10036   0.533   0.321   3.573 -0.1717  0.4200  0.7108
  100SAPC  H12Y10037   0.426   0.189   3.604  1.8618  0.5436 -0.6327
  100SAPC  C31310038   0.416   0.353   3.750 -0.4892 -0.1873 -0.4261
  100SAPC  H13X10039   0.323   0.318   3.799 -0.8536  2.1331  0.7078
  100SAPC  H13Y10040   0.410   0.464   3.744 -0.3438 -0.2081 -1.0885
  100SAPC  C31410041   0.529   0.315   3.850  1.2148 -0.3519  0.3429
  100SAPC  H14X10042   0.618   0.376   3.820 -0.9677  3.2153  0.4990
  100SAPC  H14Y10043   0.542   0.205   3.845  0.0619 -0.5481  1.2685
  100SAPC  C31510044   0.504   0.349   3.998 -0.9099 -0.3051 -1.0543
  100SAPC  H15X10045   0.407   0.304   4.029  0.0887 -0.5212  2.1621
  100SAPC  H15Y10046   0.489   0.459   4.005 -0.2500 -0.1227 -2.2822
  100SAPC  C31610047   0.602   0.301   4.109  0.1409  0.5622  0.0825
  100SAPC  H16X10048   0.563   0.339   4.206 -1.7249  2.4315 -1.3171
  100SAPC  H16Y10049   0.702   0.347   4.091  0.7607 -1.4522 -2.1338
  100SAPC  C31710050   0.624   0.144   4.105  0.1197 -0.3867  0.5093
  100SAPC  H17X10051   0.690   0.117   4.019 -2.2582  1.0705 -1.9134
  100SAPC  H17Y10052   0.529   0.094   4.077 -0.2166  0.7738 -0.5278
  100SAPC  C31810053   0.672   0.092   4.233 -0.1769  0.1904 -0.3260
  100SAPC  H18X10054   0.697  -0.017   4.226  0.9041  0.4855 -1.3241
  100SAPC  H18Y10055   0.603   0.122   4.315 -0.4175 -0.4833 -0.2695
  100SAPC  H18Z10056   0.769   0.143   4.247 -0.2421  0.8762 -2.1731
  101OSM      N10057   3.693   2.970   5.958  0.4208 -0.1382  0.2461
  101OSM    C1510058   3.643   3.087   6.038  0.6023  0.3733  0.2283
  101OSM   H15A10059   3.568   3.044   6.103 -0.1041 -0.6565 -1.2019
  101OSM   H15B10060   3.611   3.161   5.966 -1.2403 -0.8851 -0.3202
  101OSM   H15C10061   3.713   3.138   6.102 -0.3456  1.6726  0.2759
  101OSM    C1410062   3.577   2.884   5.912  0.2069  0.3874 -0.5360
  101OSM   H14A10063   3.522   2.844   5.996 -0.7324  0.0026 -1.3096
  101OSM   H14B10064   3.627   2.805   5.859 -0.0615 -1.6779  2.0629
  101OSM   H14C10065   3.511   2.944   5.851 -0.4957 -0.2130 -0.3761
  101OSM    C1310066   3.767   3.018   5.840  0.4754  0.7673 -0.0091
  101OSM   H13A10067   3.827   2.937   5.799  0.4099  0.8386 -0.2476
  101OSM   H13B10068   3.838   3.093   5.871  0.4702  1.0623 -0.6823
  101OSM   H13C10069   3.709   3.064   5.762 -0.5223 -0.3072  0.0766
  101OSM    C1210070   3.789   2.884   6.032 -0.5867  0.0146  0.2785
  101OSM   H12A10071   3.727   2.861   6.118 -1.5181 -1.7532 -0.7972
  101OSM   H12B10072   3.874   2.947   6.054 -1.9013  1.2798  2.0230
  101OSM    C1110073   3.835   2.748   5.973 -0.2115 -0.2297  0.5936
  101OSM   H11A10074   3.915   2.711   6.040 -0.2517  0.1883  0.8728
  101OSM   H11B10075   3.882   2.755   5.873 -1.1076 -1.4008  0.0599
  101OSM      P10076   3.749   2.503   5.925  0.0467  0.2656 -0.0208
  101OSM    O1310077   3.886   2.454   5.958 -0.2601  0.2223 -0.2570
  101OSM    O1410078   3.630   2.434   5.976 -0.0339 -0.2205  0.2429
  101OSM    O1110079   3.738   2.511   5.773 -0.3360 -0.0906  0.4649
  101OSM    O1210080   3.727   2.655   5.966  0.0407 -0.3870  0.4017
  101OSM    C1S10081   3.690   2.611   5.684  0.5693  0.0182 -0.1447
  101OSM    H1S10082   3.767   2.689   5.662  0.2697  0.8027  1.4112
  101OSM    H1T10083   3.609   2.675   5.726 -0.1765 -0.3818 -0.9287
  101OSM     NF10084   3.609   2.636   5.448 -0.7180 -0.2818  0.2664
  101OSM    HNF10085   3.513   2.655   5.430 -0.0495  2.2576 -1.1270
  101OSM    C2S10086   3.645   2.545   5.548 -0.8814  0.2301  0.3233
  101OSM    H2S10087   3.733   2.485   5.515  0.1875  2.4648 -1.1395
  101OSM    C3S10088   3.531   2.440   5.570  0.7433  0.0495 -0.6810
  101OSM    H3S10089   3.448   2.493   5.622 -0.8852 -2.1844 -0.8306
  101OSM     O310090   3.566   2.315   5.635 -0.3516  0.3051  0.4205
  101OSM    HO310091   3.643   2.350   5.679 -0.1383 -0.2274  0.4752
  101OSM    C4S10092   3.478   2.401   5.429 -0.6978 -0.6694 -0.1576
  101OSM    H4S10093   3.566   2.383   5.366  0.6851  2.4767  0.6632
  101OSM    C5S10094   3.356   2.401   5.380  0.1770 -0.3386  0.0170
  101OSM    H5S10095   3.269   2.432   5.440  0.6639  0.0206  0.5427
  101OSM    C6S10096   3.319   2.355   5.240  0.3406  0.0314 -0.4490
  101OSM    H6S10097   3.245   2.422   5.192 -1.2519 -1.0070  0.4947
  101OSM    H6T10098   3.276   2.253   5.247 -0.5648  0.5133  1.6800
  101OSM    C7S10099   3.440   2.348   5.151  0.6325 -0.3969  0.0916
  101OSM    H7S10100   3.505   2.266   5.191 -0.4301 -0.8087  1.0514
  101OSM    H7T10101   3.493   2.445   5.144 -1.1718  0.6404  0.3170
  101OSM    C8S10102   3.399   2.326   5.005 -0.2235  0.5676  0.3358
  101OSM    H8S10103   3.349   2.417   4.967 -2.6877 -0.2769  1.3872
  101OSM    H8T10104   3.326   2.243   4.998 -2.2420  2.1456  1.5595
  101OSM    C9S10105   3.524   2.300   4.910  0.8015 -0.0947  0.1488
  101OSM    H9S10106   3.551   2.192   4.912  1.2428  0.0110  0.0521
  101OSM    H9T10107   3.610   2.361   4.945  1.7279  0.2461 -2.4985
  101OSM   C10S10108   3.493   2.342   4.764  1.2375  0.2670  0.7002
  101OSM   H10S10109   3.586   2.337   4.702  1.2871 -0.1171  0.8062
  101OSM   H10T10110   3.455   2.446   4.758 -1.7283 -0.8161 -1.2173
  101OSM   C11S10111   3.386   2.263   4.695  0.2592  0.4344 -0.3397
  101OSM   H11S10112   3.288   2.293   4.739  0.0426 -0.9820  0.2016
  101OSM   H11T10113   3.407   2.155   4.712  1.2184  0.7890  0.8752
  101OSM   C12S10114   3.372   2.285   4.544  0.3553  0.4849 -0.3900
  101OSM   H12S10115   3.466   2.274   4.486  0.9695  1.7809  0.3275
  101OSM   H12T10116   3.354   2.393   4.525 -0.3823  0.4082 -0.1796
  101OSM   C13S10117   3.260   2.194   4.491  0.7039  0.0159 -0.0084
  101OSM   H13S10118   3.188   2.175   4.574 -0.0135  2.0139 -0.1212
  101OSM   H13T10119   3.300   2.096   4.457 -1.2303 -0.0263 -2.4881
  101OSM   C14S10120   3.172   2.266   4.385  0.2579 -0.8681  0.2433
  101OSM   H14S10121   3.224   2.292   4.290  0.3632  0.0643  0.5427
  101OSM   H14T10122   3.132   2.358   4.432 -0.4487 -1.4024  0.6954
  101OSM   C15S10123   3.053   2.185   4.343  0.4140 -0.6582  0.5222
  101OSM   H15S10124   2.990   2.156   4.430  0.2721 -1.6780  0.0907
  101OSM   H15T10125   3.101   2.096   4.297 -2.0938 -0.5913 -2.5280
  101OSM   C16S10126   2.958   2.252   4.237  0.6828  0.3592 -0.2445
  101OSM   H16S10127   3.000   2.276   4.137  1.2840 -1.9025 -0.5965
  101OSM   H16T10128   2.926   2.348   4.282  0.8674 -0.4794  1.7747
  101OSM   C17S10129   2.827   2.175   4.225 -0.2880  0.1214 -0.1194
  101OSM   H17S10130   2.743   2.239   4.191  0.7021  1.0326 -0.9300
  101OSM   H17T10131   2.803   2.130   4.324 -1.7828  0.7761 -0.1660
  101OSM   C18S10132   2.837   2.060   4.129  0.1832  0.4641 -0.4058
  101OSM   H18S10133   2.870   2.103   4.032  2.9088 -1.2930 -0.3558
  101OSM   H18T10134   2.745   2.001   4.110  0.7339 -0.3364 -0.6223
  101OSM   H18U10135   2.908   1.980   4.157  0.2863  0.2623 -1.2382
  101OSM    C1F10136   3.699   2.716   5.399 -0.0832  0.0538 -0.6162
  101OSM     OF10137   3.816   2.715   5.425  0.3837 -0.2746 -0.4759
  101OSM    C2F10138   3.652   2.825   5.312  0.3460  0.9013 -0.1162
  101OSM    H2F10139   3.744   2.881   5.285  0.6604  0.7233  0.5646
  101OSM    H2G10140   3.584   2.897   5.363 -1.1571 -1.5240  1.5195
  101OSM    C3F10141   3.571   2.761   5.193 -0.1608 -0.1613  0.4047
  101OSM    H3F10142   3.478   2.719   5.237  1.7090 -3.0648  1.8908
  101OSM    H3G10143   3.607   2.670   5.141 -1.6924 -0.0727 -0.8688
  101OSM    C4F10144   3.559   2.863   5.074  0.8212 -0.1944  0.1395
  101OSM    H4F10145   3.489   2.812   5.005  0.1213 -0.0645  0.7405
  101OSM    H4G10146   3.654   2.876   5.018  1.6663 -0.7459  1.3913
  101OSM    C5F10147   3.528   3.013   5.119 -0.2233  0.2474 -0.4416
  101OSM    H5F10148   3.620   3.040   5.176 -0.7904  1.7491 -0.1921
  101OSM    H5G10149   3.441   3.005   5.187  1.6301 -1.5672  1.9115
  101OSM    C6F10150   3.499   3.105   4.998 -0.4368  0.7366 -0.2715
  101OSM    H6F10151   3.587   3.099   4.930  0.8884 -1.6652  1.4860
  101OSM    H6G10152   3.486   3.209   5.035  2.2370  0.5448  1.4980
  101OSM    C7F10153   3.385   3.059   4.913  0.0380  0.3547 -0.1729
  101OSM    H7F10154   3.299   3.059   4.983  1.9392 -1.1421  2.3065
  101OSM    H7G10155   3.394   2.952   4.884  3.3752  0.3032  0.6060
  101OSM    C8F10156   3.347   3.128   4.776  0.3698  0.1680 -0.2253
  101OSM    H8F10157   3.313   3.233   4.791 -0.7708 -0.2135 -0.0107
  101OSM    H8G10158   3.260   3.074   4.733 -0.2786  0.5596  0.5665
  101OSM    C9F10159   3.457   3.124   4.673 -0.4429  1.8375  0.0207
  101OSM    H9F10160   3.527   3.209   4.682  2.5139 -0.6934  4.6693
  101OSM   C10F10161   3.488   3.029   4.575  0.2134  0.3464 -0.7484
  101OSM   H10F10162   3.582   3.047   4.520  0.2486  0.9187 -0.5063
  101OSM   C11F10163   3.431   2.896   4.536 -0.1418  0.2155  0.5841
  101OSM   H11F10164   3.387   2.905   4.434 -2.0682  1.1872  1.4532
  101OSM   H11G10165   3.347   2.878   4.606  0.0639 -1.7514  0.3979
  101OSM   C12F10166   3.538   2.783   4.563  0.9808  0.4322  0.0052
  101OSM   H12F10167   3.493   2.684   4.541  0.9587  0.0297  1.7384
  101OSM   H12G10168   3.572   2.783   4.669 -0.3559  0.7454  0.4643
  101OSM   C13F10169   3.666   2.791   4.473  0.7588  0.0800 -0.1329
  101OSM   H13F10170   3.729   2.878   4.502  1.1850 -0.6110  1.0484
  101OSM   H13G10171   3.620   2.793   4.372  0.9283 -1.7822 -0.2814
  101OSM   C14F10172   3.744   2.661   4.485  0.5647 -0.0668 -0.6187
  101OSM   H14F10173   3.674   2.580   4.458 -0.6411  1.1463 -1.2369
  101OSM   H14G10174   3.792   2.653   4.585  1.0899  2.5426 -0.5964
  101OSM   C15F10175   3.854   2.647   4.379 -0.1726  0.1811 -0.1866
  101OSM   H15F10176   3.812   2.626   4.278 -1.3396 -0.8603  0.4796
  101OSM   H15G10177   3.914   2.559   4.411 -0.5780  0.6448  1.9835
  101OSM   C16F10178   3.947   2.771   4.360 -0.2418  0.2810  0.4276
  101OSM   H16F10179   3.998   2.798   4.455 -0.1427  0.9279  0.1961
  101OSM   H16G10180   3.876   2.854   4.340  0.1927  0.2119 -1.6368
  101OSM   C17F10181   4.059   2.762   4.257  0.7303 -0.5521  0.7996
  101OSM   H17F10182   4.101   2.864   4.241  0.3141 -0.4253  0.4902
  101OSM   H17G10183   4.021   2.754   4.153  1.2592 -0.8532  0.6211
  101OSM   C18F10184   4.168   2.667   4.285 -0.5866  0.7435  0.1979
  101OSM   H18F10185   4.227   2.697   4.374  0.3113  2.3826 -0.8934
  101OSM   H18G10186   4.239   2.660   4.199 -2.6595 -3.9802 -1.4560
  101OSM   H18H10187   4.127   2.564   4.295  1.2396 -0.0671 -0.0556
  102OSM      N10188   4.530   2.886   6.155 -0.2463  0.3988  0.9108
  102OSM    C1510189   4.490   2.879   6.011  0.3445 -1.1616  0.1020
  102OSM   H15A10190   4.549   2.951   5.957  0.2851  0.0567  1.5875
  102OSM   H15B10191   4.387   2.914   6.009  0.0596 -1.9377  0.6135
  102OSM   H15C10192   4.497   2.780   5.968 -0.4458 -0.1565 -2.5260
  102OSM    C1410193   4.457   2.778   6.226  0.3987 -0.1189  0.4502
  102OSM   H14A10194   4.460   2.782   6.334  1.6451  1.8492  0.3848
  102OSM   H14B10195   4.487   2.678   6.196  2.4606  0.1326  1.5183
  102OSM   H14C10196   4.352   2.785   6.204 -0.5591  0.3801  4.5110
  102OSM    C1310197   4.677   2.862   6.166  0.1061  0.0872 -0.0230
  102OSM   H13A10198   4.700   2.842   6.270 -0.0094 -0.6040 -0.1225
  102OSM   H13B10199   4.728   2.951   6.135  0.1452  1.3410  3.1973
  102OSM   H13C10200   4.711   2.778   6.106  1.4772  0.8634 -0.3768
  102OSM    C1210201   4.499   3.026   6.215 -0.7267  0.0709  0.3095
  102OSM   H12A10202   4.558   3.099   6.161 -0.8018  1.8683  2.4835
  102OSM   H12B10203   4.538   3.029   6.316  0.5767  0.8438 -0.1875
  102OSM    C1110204   4.354   3.075   6.204 -0.1757  0.2766  0.2586
  102OSM   H11A10205   4.362   3.167   6.266  2.9196 -0.8212  1.7264
  102OSM   H11B10206   4.285   3.008   6.261  1.2796 -0.0080  1.7798
  102OSM      P10207   4.180   3.136   6.020  0.0260 -0.4936 -0.2831
  102OSM    O1310208   4.093   3.018   6.029  0.1904 -0.2632 -0.5526
  102OSM    O1410209   4.143   3.261   6.088 -0.1571  0.1429  0.4094
  102OSM    O1110210   4.191   3.165   5.865 -0.0052 -0.4499 -0.1018
  102OSM    O1210211   4.323   3.101   6.065 -0.2332 -0.2671  0.2160
  102OSM    C1S10212   4.286   3.072   5.804 -0.8652 -0.7358  0.4028
  102OSM    H1S10213   4.250   2.967   5.791 -3.2177  0.3941 -4.0207
  102OSM    H1T10214   4.390   3.077   5.841 -0.3614  0.1645 -1.0809
  102OSM     NF10215   4.392   2.994   5.596  0.1893  0.3651 -0.4323
  102OSM    HNF10216   4.492   3.003   5.596  0.2261  0.1046 -1.8312
  102OSM    C2S10217   4.315   3.101   5.657  0.4662 -0.1228  0.2622
  102OSM    H2S10218   4.218   3.088   5.604  1.4933 -0.8630 -1.5095
  102OSM    C3S10219   4.374   3.236   5.631  0.4503 -0.4777 -0.0535
  102OSM    H3S10220   4.479   3.244   5.666  0.3990  2.2087 -0.3278
  102OSM     O310221   4.309   3.339   5.695 -0.0684  0.4858 -0.0924
  102OSM    HO310222   4.255   3.288   5.756 -0.3592  0.3802 -0.4269
  102OSM    C4S10223   4.372   3.261   5.487  0.1013 -0.6710  0.1388
  102OSM    H4S10224   4.471   3.253   5.440 -0.1278  1.1433 -0.7652
  102OSM    C5S10225   4.271   3.316   5.413  0.2228 -0.7791  0.5663
  102OSM    H5S10226   4.179   3.341   5.468  0.4030 -1.7587  1.3569
  102OSM    C6S10227   4.275   3.345   5.260  0.0681 -0.1357 -0.1151
  102OSM    H6S10228   4.238   3.445   5.231  1.2072 -0.5436 -3.3606
  102OSM    H6T10229   4.209   3.276   5.204 -0.9634  2.1646 -1.8871
  102OSM    C7S10230   4.412   3.337   5.180 -0.3786 -0.1770 -0.0740
  102OSM    H7S10231   4.453   3.235   5.196 -1.7875 -1.0382 -1.6272
  102OSM    H7T10232   4.481   3.416   5.217 -2.0676  2.7248 -2.6054
  102OSM    C8S10233   4.400   3.368   5.028  0.1633 -0.6000 -0.3643
  102OSM    H8S10234   4.343   3.463   5.027 -0.1778 -0.7669  1.1954
  102OSM    H8T10235   4.342   3.287   4.978 -1.1629  0.4114 -0.5127
  102OSM    C9S10236   4.532   3.389   4.954 -0.1174  0.3314  0.2213
  102OSM    H9S10237   4.585   3.292   4.958 -0.4019  0.0603 -1.6271
  102OSM    H9T10238   4.588   3.461   5.018  0.0342 -0.1328  0.6113
  102OSM   C10S10239   4.529   3.415   4.806 -0.0840 -0.2227 -0.3520
  102OSM   H10S10240   4.475   3.512   4.804 -0.4156 -0.3671  0.8737
  102OSM   H10T10241   4.468   3.345   4.745 -0.5642 -0.1859  0.0768
  102OSM   C11S10242   4.670   3.422   4.746  0.5578  0.1466  0.2283
  102OSM   H11S10243   4.711   3.322   4.719  1.7494  0.7409 -0.2471
  102OSM   H11T10244   4.744   3.468   4.815 -2.0937  2.2837  1.8598
  102OSM   C12S10245   4.652   3.496   4.611  0.9007 -0.0364 -0.2096
  102OSM   H12S10246   4.594   3.585   4.644  1.8401  0.1641  0.9682
  102OSM   H12T10247   4.589   3.431   4.547  0.8211  0.0120 -0.1813
  102OSM   C13S10248   4.771   3.542   4.528 -0.5035 -0.6452 -0.1754
  102OSM   H13S10249   4.724   3.584   4.436  0.1886  0.8032  0.1075
  102OSM   H13T10250   4.830   3.454   4.493  2.5973 -0.4356  3.8144
  102OSM   C14S10251   4.849   3.652   4.604 -0.7675 -0.1304 -0.1306
  102OSM   H14S10252   4.889   3.605   4.697 -0.2191 -1.6969 -1.1062
  102OSM   H14T10253   4.781   3.736   4.629 -0.6995  0.6058 -2.1898
  102OSM   C15S10254   4.970   3.696   4.515  0.4094 -0.7570 -0.5317
  102OSM   H15S10255   4.929   3.758   4.433 -0.1688 -1.1938 -0.5872
  102OSM   H15T10256   5.019   3.603   4.479  2.5056  0.1203 -0.0311
  102OSM   C16S10257   5.069   3.779   4.603 -0.5635  0.5761  0.2652
  102OSM   H16S10258   5.171   3.750   4.567  0.2745  2.7617  0.7055
  102OSM   H16T10259   5.061   3.757   4.712 -1.3765  2.0139  0.5246
  102OSM   C17S10260   5.048   3.929   4.576  0.2967  0.3886  0.2678
  102OSM   H17S10261   4.942   3.949   4.602 -0.2780 -1.6577 -0.3708
  102OSM   H17T10262   5.058   3.941   4.466 -2.8142  0.7086 -0.0780
  102OSM   C18S10263   5.155   4.015   4.644  0.1693 -0.1235  0.4652
  102OSM   H18S10264   5.259   4.000   4.610 -0.7222 -0.3474 -2.4033
  102OSM   H18T10265   5.160   4.003   4.754 -0.3728  1.0787  0.6376
  102OSM   H18U10266   5.142   4.123   4.621  1.0801 -0.4415 -1.7834
  102OSM    C1F10267   4.341   2.870   5.579  0.2780  0.5153 -0.4245
  102OSM     OF10268   4.219   2.844   5.566 -0.6111  0.1046 -0.8468
  102OSM    C2F10269   4.445   2.757   5.578  0.0045 -0.5336  0.0659
  102OSM    H2F10270   4.470   2.721   5.679  3.8734 -0.3621 -0.6438
  102OSM    H2G10271   4.537   2.801   5.532  0.5286 -0.6149  1.0204
  102OSM    C3F10272   4.420   2.628   5.499 -0.2991  0.1666  0.1099
  102OSM    H3F10273   4.310   2.615   5.485 -0.2647  2.3049 -3.5846
  102OSM    H3G10274   4.454   2.547   5.566  0.9548  1.4260  1.0534
  102OSM    C4F10275   4.473   2.618   5.357 -0.5125  0.2127 -0.0846
  102OSM    H4F10276   4.473   2.514   5.319  3.4749 -0.0395  0.1260
  102OSM    H4G10277   4.579   2.640   5.382 -0.1091  0.4030 -1.8663
  102OSM    C5F10278   4.413   2.710   5.252 -0.1635 -0.2810  0.5245
  102OSM    H5F10279   4.486   2.716   5.169  0.5483 -3.6839  0.7464
  102OSM    H5G10280   4.413   2.802   5.313 -2.8936 -0.1318  0.4326
  102OSM    C6F10281   4.268   2.679   5.213  0.5411  0.4738 -0.2358
  102OSM    H6F10282   4.200   2.696   5.298  1.6609  2.9377  0.2557
  102OSM    H6G10283   4.263   2.570   5.190  0.6550  0.2928  0.5632
  102OSM    C7F10284   4.226   2.748   5.085 -0.2202  0.9612  0.1857
  102OSM    H7F10285   4.137   2.697   5.042  1.1743 -0.9461 -0.5951
  102OSM    H7G10286   4.303   2.735   5.007  0.1648  0.4213  0.6464
  102OSM    C8F10287   4.203   2.898   5.105 -0.7656  0.1211  0.4148
  102OSM    H8F10288   4.214   2.954   5.009 -0.3909  1.4456  1.2094
  102OSM    H8G10289   4.283   2.947   5.164 -1.6127  1.4901  0.4540
  102OSM    C9F10290   4.068   2.938   5.162  0.3622 -0.4495 -0.4220
  102OSM    H9F10291   4.049   2.941   5.270  0.9371  0.8646 -0.3422
  102OSM   C10F10292   3.954   2.953   5.089  0.0242  0.0649 -0.5123
  102OSM   H10F10293   3.861   2.981   5.142  0.5151  1.7440 -0.4829
  102OSM   C11F10294   3.944   2.928   4.939 -0.4014 -0.1295  0.8678
  102OSM   H11F10295   3.854   2.864   4.930 -1.1819  1.0484 -0.0803
  102OSM   H11G10296   4.032   2.870   4.906  0.5512  1.2109  0.9538
  102OSM   C12F10297   3.936   3.060   4.862 -0.6613  0.0216 -0.6917
  102OSM   H12F10298   4.040   3.099   4.863 -0.5620  0.0995  3.3220
  102OSM   H12G10299   3.874   3.141   4.905 -1.8331 -0.0200 -2.2223
  102OSM   C13F10300   3.901   3.063   4.712  1.0093  0.4534 -0.9288
  102OSM   H13F10301   3.794   3.034   4.701  0.7330  1.5712 -1.3306
  102OSM   H13G10302   3.956   2.986   4.656  0.7270  0.3807 -1.1085
  102OSM   C14F10303   3.923   3.200   4.647  0.2750  0.7917 -0.1632
  102OSM   H14F10304   4.021   3.207   4.595 -0.7986  1.3933 -2.2075
  102OSM   H14G10305   3.909   3.285   4.717 -1.3111  0.2386  0.2219
  102OSM   C15F10306   3.838   3.247   4.521  0.1434 -0.1303  0.1592
  102OSM   H15F10307   3.860   3.355   4.504  1.5404 -0.2319  1.1932
  102OSM   H15G10308   3.729   3.228   4.533  0.1142 -0.3705 -0.4447
  102OSM   C16F10309   3.876   3.171   4.400 -0.1910 -0.4240  0.4794
  102OSM   H16F10310   3.890   3.063   4.420  0.7282 -0.4282 -0.1043
  102OSM   H16G10311   3.973   3.210   4.361 -0.6769  0.3324  0.0096
  102OSM   C17F10312   3.782   3.188   4.282 -0.1624 -0.6634  0.4117
  102OSM   H17F10313   3.781   3.298   4.268 -0.4922 -0.8341 -1.0929
  102OSM   H17G10314   3.679   3.166   4.318 -0.0321  0.7471  1.7327
  102OSM   C18F10315   3.825   3.120   4.150 -0.3333  0.5227  0.6368
  102OSM   H18F10316   3.932   3.115   4.119 -0.3925 -0.2328  0.5264
  102OSM   H18G10317   3.759   3.147   4.065 -0.7858 -0.3416  0.6932
  102OSM   H18H10318   3.797   3.013   4.165  1.0970 -0.1770 -1.2219
  103OSM      N10319   4.233   4.484   6.136 -0.1068 -0.5606  0.2100
  103OSM    C1510320   4.319   4.592   6.084  0.0024  0.2156 -0.8383
  103OSM   H15A10321   4.336   4.665   6.162  0.6899 -0.2664 -0.5332
  103OSM   H15B10322   4.264   4.635   6.002 -0.4764 -1.4991 -1.4573
  103OSM   H15C10323   4.417   4.559   6.054  1.5896  1.0961  2.8142
  103OSM    C1410324   4.310   4.422   6.248 -0.0524  0.1924  0.4024
  103OSM   H14A10325   4.249   4.356   6.308  0.7441  0.4520  1.5332
  103OSM   H14B10326   4.333   4.501   6.318 -4.0439  0.3362  1.8235
  103OSM   H14C10327   4.397   4.368   6.216 -0.3251  0.5033 -0.9274
  103OSM    C1310328   4.106   4.545   6.185 -0.0563  0.0075 -0.4063
  103OSM   H13A10329   4.127   4.629   6.250  1.4219 -1.2683  0.8223
  103OSM   H13B10330   4.040   4.472   6.228  2.2076 -2.6918 -1.2349
  103OSM   H13C10331   4.040   4.577   6.105 -0.9306  1.0285  0.6772
  103OSM    C1210332   4.210   4.393   6.017 -0.4005  0.4823 -0.1116
  103OSM   H12A10333   4.297   4.384   5.953 -1.9484 -1.1159 -2.1197
  103OSM   H12B10334   4.146   4.443   5.946  1.0281  0.2921 -1.5901
  103OSM    C1110335   4.138   4.259   6.043  0.4908 -0.5443  0.1339
  103OSM   H11A10336   4.203   4.196   6.107 -2.8005 -2.2481  2.0964
  103OSM   H11B10337   4.129   4.202   5.948  1.3635  0.9751 -0.9008
  103OSM      P10338   3.869   4.236   6.067  0.1541  0.2578 -0.2072
  103OSM    O1310339   3.864   4.087   6.080 -0.1687 -0.3756  0.0432
  103OSM    O1410340   3.770   4.326   6.133  0.2189 -0.5941 -0.1891
  103OSM    O1110341   3.867   4.262   5.917 -0.0332  0.1222 -0.0572
  103OSM    O1210342   4.014   4.282   6.114 -0.3853 -0.2023 -0.6944
  103OSM    C1S10343   3.870   4.395   5.857  0.4480 -0.2984 -0.5434
  103OSM    H1S10344   3.945   4.469   5.892 -0.8838  3.0180 -3.9816
  103OSM    H1T10345   3.771   4.443   5.873  1.8762  2.1008  1.8926
  103OSM     NF10346   3.926   4.501   5.642  0.0232  0.1915  0.5218
  103OSM    HNF10347   3.857   4.538   5.579  0.5951  0.4206  0.0255
  103OSM    C2S10348   3.896   4.374   5.706 -0.3051 -0.2240  0.5830
  103OSM    H2S10349   3.987   4.311   5.693 -0.8794 -0.8377 -0.6696
  103OSM    C3S10350   3.771   4.301   5.642 -0.2389  0.3817 -0.7890
  103OSM    H3S10351   3.689   4.375   5.653 -1.0711 -0.6336  0.0817
  103OSM     O310352   3.733   4.177   5.699  0.4315 -0.1869 -0.0220
  103OSM    HO310353   3.791   4.157   5.773 -2.3775 -1.8382  1.8966
  103OSM    C4S10354   3.802   4.275   5.499 -0.0538  0.3013  0.2593
  103OSM    H4S10355   3.881   4.204   5.471 -0.9585 -0.8843  0.5835
  103OSM    C5S10356   3.749   4.334   5.392  0.4980 -0.3876  0.5921
  103OSM    H5S10357   3.682   4.420   5.405  0.6340 -0.2808  0.5955
  103OSM    C6S10358   3.774   4.308   5.243  0.2260  0.0095 -0.0847
  103OSM    H6S10359   3.683   4.355   5.199  0.9109  1.1026 -0.3584
  103OSM    H6T10360   3.776   4.199   5.219 -3.0223 -0.6141  1.7614
  103OSM    C7S10361   3.913   4.358   5.185 -0.7159 -0.3365  0.0733
  103OSM    H7S10362   4.001   4.299   5.218  0.3126 -0.7836 -3.1194
  103OSM    H7T10363   3.926   4.461   5.225 -2.6428 -0.2899  0.6894
  103OSM    C8S10364   3.921   4.354   5.032  0.5551 -0.3718  0.4007
  103OSM    H8S10365   3.849   4.425   4.984  1.5112  1.9291  2.1812
  103OSM    H8T10366   3.872   4.259   5.001 -4.6351  2.2203 -0.6020
  103OSM    C9S10367   4.057   4.373   4.957 -0.7508 -0.0971  0.4311
  103OSM    H9S10368   4.128   4.298   4.999 -1.0966 -2.2301 -2.4557
  103OSM    H9T10369   4.099   4.475   4.966 -0.6303 -0.2296  1.4513
  103OSM   C10S10370   4.045   4.324   4.806 -0.7519  0.2623 -0.2233
  103OSM   H10S10371   3.976   4.395   4.755 -0.0467  0.3219 -1.1437
  103OSM   H10T10372   4.003   4.222   4.812  0.1433 -0.0460  1.5540
  103OSM   C11S10373   4.182   4.305   4.731  0.4878  0.3755 -0.1089
  103OSM   H11S10374   4.162   4.235   4.647  1.6003 -0.4421  0.2797
  103OSM   H11T10375   4.251   4.249   4.797  1.1082 -2.3412 -2.8279
  103OSM   C12S10376   4.243   4.433   4.670  0.2473 -0.6218  0.3424
  103OSM   H12S10377   4.352   4.420   4.651  0.0079 -0.9504 -0.8796
  103OSM   H12T10378   4.238   4.511   4.749 -1.2015 -2.4330  2.1477
  103OSM   C13S10379   4.180   4.487   4.546 -0.4301  0.2094 -0.5073
  103OSM   H13S10380   4.152   4.594   4.551 -0.4524  0.2098 -0.6319
  103OSM   H13T10381   4.091   4.421   4.535  2.0893 -3.5535 -0.2421
  103OSM   C14S10382   4.261   4.473   4.421 -0.0032 -0.2443 -0.0120
  103OSM   H14S10383   4.293   4.369   4.399  0.2012 -0.1261 -0.2755
  103OSM   H14T10384   4.346   4.545   4.417  0.1539 -0.5050 -2.2501
  103OSM   C15S10385   4.178   4.500   4.295  0.6939  0.0265 -0.2577
  103OSM   H15S10386   4.112   4.587   4.312  1.5778  0.4809  1.0691
  103OSM   H15T10387   4.112   4.412   4.276 -1.0222  0.7424  1.9047
  103OSM   C16S10388   4.262   4.517   4.167 -0.0668  0.1761 -0.0807
  103OSM   H16S10389   4.365   4.551   4.187 -0.1721  1.9877 -2.2058
  103OSM   H16T10390   4.220   4.591   4.096 -0.3263  1.7752  1.6749
  103OSM   C17S10391   4.271   4.382   4.090 -0.0744 -0.6142  0.2099
  103OSM   H17S10392   4.171   4.342   4.063  0.2791  0.0827 -2.4504
  103OSM   H17T10393   4.323   4.328   4.172 -2.3486 -0.0017  2.1747
  103OSM   C18S10394   4.353   4.391   3.965 -0.4881 -0.1668  0.0783
  103OSM   H18S10395   4.396   4.292   3.940 -1.4553 -0.6293  0.2007
  103OSM   H18T10396   4.435   4.465   3.981 -1.1490  0.7171 -0.5198
  103OSM   H18U10397   4.292   4.438   3.885 -0.4796 -1.8158 -0.9333
  103OSM    C1F10398   4.032   4.567   5.670 -0.6900  0.1204  0.1433
  103OSM     OF10399   4.115   4.522   5.750  0.0464  0.4802  0.8582
  103OSM    C2F10400   4.045   4.700   5.602  0.2713  0.1367  0.7554
  103OSM    H2F10401   4.132   4.754   5.644 -1.1053  1.4850  1.9722
  103OSM    H2G10402   3.947   4.753   5.605 -0.1775 -0.7170  1.6210
  103OSM    C3F10403   4.087   4.688   5.453 -0.3652 -0.3048  0.5204
  103OSM    H3F10404   4.021   4.624   5.390  1.2970 -0.2494 -1.4162
  103OSM    H3G10405   4.181   4.629   5.440  0.9200  1.8448 -0.6226
  103OSM    C4F10406   4.104   4.821   5.380  0.2668  0.3636 -0.1964
  103OSM    H4F10407   4.162   4.888   5.447 -0.1347  0.3516  0.1748
  103OSM    H4G10408   3.999   4.857   5.389 -0.0783 -0.5338 -0.5048
  103OSM    C5F10409   4.163   4.797   5.242  0.4305  0.6458 -0.6059
  103OSM    H5F10410   4.106   4.713   5.198 -2.4000  2.5328 -0.8008
  103OSM    H5G10411   4.272   4.780   5.256  0.5478  2.7145  1.7027
  103OSM    C6F10412   4.141   4.922   5.163 -0.5582 -0.0291 -0.4334
  103OSM    H6F10413   4.197   4.993   5.227  1.4915 -2.8055  1.0577
  103OSM    H6G10414   4.032   4.932   5.146 -0.9344  2.6589  2.5636
  103OSM    C7F10415   4.215   4.937   5.027 -0.6999  0.1935 -0.0144
  103OSM    H7F10416   4.320   4.938   5.061 -0.6877  0.0579 -0.0503
  103OSM    H7G10417   4.180   5.035   4.986 -1.3493 -0.6408 -1.5457
  103OSM    C8F10418   4.196   4.832   4.919  0.4784  0.1175 -0.0550
  103OSM    H8F10419   4.102   4.852   4.864 -0.9753  0.2394  2.3487
  103OSM    H8G10420   4.163   4.739   4.970  1.2340 -0.8131 -1.2046
  103OSM    C9F10421   4.304   4.794   4.823 -0.3661 -0.1549  0.2251
  103OSM    H9F10422   4.341   4.690   4.829 -2.5118 -0.9845 -0.1126
  103OSM   C10F10423   4.337   4.867   4.716  0.1369  0.1977 -0.4843
  103OSM   H10F10424   4.414   4.828   4.648  2.1506  0.5191  1.5099
  103OSM   C11F10425   4.278   5.005   4.667 -0.4058  0.7232 -0.0520
  103OSM   H11F10426   4.365   5.073   4.674 -1.0159  1.5351 -0.1618
  103OSM   H11G10427   4.192   5.044   4.726  0.7039 -0.5232  2.5489
  103OSM   C12F10428   4.242   5.010   4.519 -0.2354 -0.4117  0.3585
  103OSM   H12F10429   4.328   4.981   4.455 -0.0270  1.7403 -0.4089
  103OSM   H12G10430   4.235   5.120   4.504 -3.9157 -0.7017 -1.2390
  103OSM   C13F10431   4.107   4.962   4.471 -0.5957 -0.1220 -0.1073
  103OSM   H13F10432   4.023   5.003   4.532 -0.6850 -0.7352  0.1894
  103OSM   H13G10433   4.114   4.853   4.487 -4.3364 -0.5559 -0.6226
  103OSM   C14F10434   4.083   4.984   4.322 -0.3647 -0.1536 -0.6451
  103OSM   H14F10435   4.170   4.957   4.260 -1.7448 -1.4579 -2.0994
  103OSM   H14G10436   4.056   5.089   4.296  1.2636 -0.0953 -2.2872
  103OSM   C15F10437   3.962   4.894   4.272 -0.1760  0.7988 -0.3643
  103OSM   H15F10438   3.963   4.794   4.321 -0.1241 -0.7899 -3.3794
  103OSM   H15G10439   3.986   4.880   4.165  1.7517 -1.6257  0.2892
  103OSM   C16F10440   3.827   4.957   4.304 -0.1838  0.2785 -0.3218
  103OSM   H16F10441   3.846   5.064   4.280  1.7527 -0.3559 -1.8784
  103OSM   H16G10442   3.798   4.956   4.412 -1.1645 -1.0407 -0.5801
  103OSM   C17F10443   3.716   4.896   4.215 -0.9912 -0.2989  0.7984
  103OSM   H17F10444   3.707   4.787   4.233  0.3458 -0.3397  1.3271
  103OSM   H17G10445   3.739   4.903   4.107  2.0967 -0.4189  1.3717
  103OSM   C18F10446   3.582   4.966   4.247  0.4002  0.3287 -0.2261
  103OSM   H18F10447   3.492   4.928   4.194 -1.1579 -0.5685  2.8167
  103OSM   H18G10448   3.597   5.075   4.227 -1.3692  0.7278  0.4003
  103OSM   H18H10449   3.556   4.965   4.355  2.6424  1.8414  0.4026
  104OSM      N10450   4.534   3.516   6.003  0.5590  0.6253  0.1601
  104OSM    C1510451   4.545   3.660   5.975  0.1947 -0.3590  0.4227
  104OSM   H15A10452   4.643   3.702   5.990  1.3661 -2.7535 -0.0889
  104OSM   H15B10453   4.494   3.705   6.059 -1.7703 -1.0739 -0.3226
  104OSM   H15C10454   4.499   3.681   5.879 -1.2825 -1.5290  0.8236
  104OSM    C1410455   4.603   3.482   6.132 -0.2986  0.1459 -0.4166
  104OSM   H14A10456   4.610   3.374   6.144 -0.7423  0.1909  0.3142
  104OSM   H14B10457   4.542   3.521   6.211  0.1828 -1.7257  0.9521
  104OSM   H14C10458   4.701   3.527   6.142 -0.2962  0.2284 -0.8155
  104OSM    C1310459   4.388   3.487   6.013 -0.1122  0.4142  0.2116
  104OSM   H13A10460   4.372   3.380   6.014 -1.9162  0.6072 -1.5600
  104OSM   H13B10461   4.326   3.524   5.933 -0.3399 -0.7105 -0.1587
  104OSM   H13C10462   4.358   3.534   6.105 -1.2392  0.5520 -0.2101
  104OSM    C1210463   4.594   3.437   5.884 -0.1155 -0.3294 -0.3666
  104OSM   H12A10464   4.699   3.463   5.877 -0.4463  1.0394 -0.6278
  104OSM   H12B10465   4.555   3.467   5.788 -0.5756 -2.8673 -1.0319
  104OSM    C1110466   4.582   3.285   5.894 -0.5158  0.5350  0.8762
  104OSM   H11A10467   4.616   3.244   5.796 -2.5409 -0.5736  0.5661
  104OSM   H11B10468   4.473   3.263   5.897 -0.1237 -1.5610  1.4848
  104OSM      P10469   4.803   3.211   5.983 -0.1032  0.0170  0.0774
  104OSM    O1310470   4.855   3.342   5.950  0.3351  0.5105  0.2938
  104OSM    O1410471   4.862   3.136   6.095 -0.2973 -0.1733  0.4718
  104OSM    O1110472   4.816   3.117   5.860 -0.2732  0.5025 -0.1981
  104OSM    O1210473   4.654   3.220   6.002  0.5781 -0.2742 -0.0875
  104OSM    C1S10474   4.934   3.127   5.780 -0.0170 -0.4799 -0.0023
  104OSM    H1S10475   5.023   3.088   5.834 -0.3777 -1.6322 -0.2081
  104OSM    H1T10476   4.957   3.231   5.749 -1.0891 -0.2063  0.0877
  104OSM     NF10477   4.997   3.063   5.550 -0.4054 -1.0938 -0.1141
  104OSM    HNF10478   4.974   3.109   5.465  1.7333 -0.9580 -0.6900
  104OSM    C2S10479   4.903   3.045   5.655 -0.2714 -0.7983  0.0145
  104OSM    H2S10480   4.902   2.937   5.683 -0.3958 -0.9357 -0.5004
  104OSM    C3S10481   4.755   3.066   5.604 -1.0766  0.5216  0.4290
  104OSM    H3S10482   4.744   3.176   5.590  2.4568  0.8360 -1.0021
  104OSM     O310483   4.656   3.012   5.684  0.0933  1.1020 -0.4178
  104OSM    HO310484   4.697   3.000   5.770  0.5441 -1.1287 -0.8853
  104OSM    C4S10485   4.730   3.000   5.467  0.6601  0.3577  0.0511
  104OSM    H4S10486   4.730   2.890   5.473 -2.2888  0.1630 -1.4791
  104OSM    C5S10487   4.712   3.076   5.362 -0.1394 -0.0006  0.9740
  104OSM    H5S10488   4.720   3.186   5.365  0.6105 -0.0253  0.1687
  104OSM    C6S10489   4.694   3.014   5.225 -0.2279  0.2632  0.2948
  104OSM    H6S10490   4.599   3.055   5.185 -1.0830 -1.3827  0.5699
  104OSM    H6T10491   4.687   2.903   5.233  3.1024  0.0172  1.0853
  104OSM    C7S10492   4.807   3.047   5.128 -0.2287 -0.0423  0.2766
  104OSM    H7S10493   4.905   3.013   5.167 -0.4227  1.3201  2.0081
  104OSM    H7T10494   4.810   3.155   5.105  0.1211 -0.2343 -0.6150
  104OSM    C8S10495   4.789   2.976   4.993  1.0410  0.2468  0.6462
  104OSM    H8S10496   4.682   2.971   4.965  1.7301 -2.7420 -2.0680
  104OSM    H8T10497   4.811   2.868   5.004 -1.5952 -0.5987 -1.3691
  104OSM    C9S10498   4.878   3.034   4.888 -0.2560 -0.0944  0.8761
  104OSM    H9S10499   4.978   3.026   4.936  0.8127  0.7591 -1.1085
  104OSM    H9T10500   4.862   3.144   4.890 -1.8674 -0.2732 -0.0463
  104OSM   C10S10501   4.858   2.973   4.748 -0.8356 -1.0868 -0.0699
  104OSM   H10S10502   4.754   2.936   4.734 -0.7122 -0.3538 -4.1416
  104OSM   H10T10503   4.921   2.882   4.746 -1.5683 -1.6451 -2.8627
  104OSM   C11S10504   4.892   3.077   4.641 -0.8377  0.7593  0.2762
  104OSM   H11S10505   5.002   3.068   4.637 -1.0052 -1.5660 -0.9800
  104OSM   H11T10506   4.847   3.178   4.652  0.1981  1.6375 -2.6332
  104OSM   C12S10507   4.833   3.025   4.505 -0.0299  0.5198 -0.7144
  104OSM   H12S10508   4.880   3.087   4.426 -0.7961  1.6458 -0.2966
  104OSM   H12T10509   4.725   3.048   4.508 -0.7977 -2.6613  1.1627
  104OSM   C13S10510   4.865   2.883   4.475  0.1169  0.3910 -0.0967
  104OSM   H13S10511   4.779   2.815   4.489  1.8625 -1.5740  1.8685
  104OSM   H13T10512   4.944   2.833   4.534 -0.8744 -0.2514  0.7033
  104OSM   C14S10513   4.897   2.850   4.329 -0.0850 -0.5680  0.1100
  104OSM   H14S10514   4.934   2.746   4.312  0.4255 -0.4137  0.2736
  104OSM   H14T10515   4.983   2.914   4.300 -2.6207  1.7413 -2.9490
  104OSM   C15S10516   4.796   2.876   4.223 -0.5294 -0.3471  1.1811
  104OSM   H15S10517   4.840   2.899   4.124 -0.0493  0.1533  1.5060
  104OSM   H15T10518   4.727   2.959   4.249 -1.2299  0.2296 -2.1501
  104OSM   C16S10519   4.703   2.750   4.202  0.0714  0.6496 -0.2614
  104OSM   H16S10520   4.660   2.712   4.297  0.9498 -1.4121 -0.6534
  104OSM   H16T10521   4.768   2.674   4.154  0.3135  0.6119  0.1287
  104OSM   C17S10522   4.587   2.781   4.106  0.2816  0.3745  0.2786
  104OSM   H17S10523   4.535   2.686   4.080 -1.1006  1.5631 -1.6215
  104OSM   H17T10524   4.628   2.823   4.012  0.9442  0.0680  0.4276
  104OSM   C18S10525   4.478   2.871   4.160 -0.1634 -0.4480  0.0106
  104OSM   H18S10526   4.451   2.841   4.263  1.1261  0.2639  0.5802
  104OSM   H18T10527   4.400   2.868   4.080  0.5324 -0.8192 -0.6572
  104OSM   H18U10528   4.521   2.973   4.170 -2.2058  0.3303  1.8318
  104OSM    C1F10529   5.128   3.025   5.560  0.3573  0.1589 -0.2239
  104OSM     OF10530   5.169   2.965   5.659 -0.1243  0.3058  0.2112
  104OSM    C2F10531   5.225   3.042   5.448 -0.2649 -0.1064 -0.3166
  104OSM    H2F10532   5.180   3.099   5.364  1.7809  1.4565 -0.4373
  104OSM    H2G10533   5.237   2.937   5.413 -1.7247 -0.5484  0.3843
  104OSM    C3F10534   5.360   3.104   5.504  0.4822 -0.1187  0.6102
  104OSM    H3F10535   5.383   3.080   5.610  0.4011 -0.4813  0.5464
  104OSM    H3G10536   5.339   3.213   5.497  2.8139  0.3147 -0.4198
  104OSM    C4F10537   5.486   3.070   5.416  0.9411  0.4257 -0.6986
  104OSM    H4F10538   5.511   2.966   5.447  1.2854  0.3741 -1.1230
  104OSM    H4G10539   5.575   3.132   5.442  0.3395  1.1495 -0.3346
  104OSM    C5F10540   5.472   3.071   5.259 -0.2778  0.2551  0.2651
  104OSM    H5F10541   5.380   3.010   5.243 -0.3360  0.1773  0.8661
  104OSM    H5G10542   5.555   3.010   5.218 -0.2464  1.5713 -1.7738
  104OSM    C6F10543   5.466   3.204   5.189  0.0744  0.2848 -0.1733
  104OSM    H6F10544   5.556   3.264   5.212  0.9004  0.5031 -3.5494
  104OSM    H6G10545   5.373   3.259   5.216 -0.8663 -1.3978  0.1903
  104OSM    C7F10546   5.469   3.192   5.036 -0.1301  0.4048 -0.1888
  104OSM    H7F10547   5.379   3.151   4.986 -0.9460  2.0183 -0.1319
  104OSM    H7G10548   5.559   3.133   5.011 -0.0548 -0.1347  1.2256
  104OSM    C8F10549   5.482   3.336   4.976  0.4792  0.6779  1.3526
  104OSM    H8F10550   5.560   3.398   5.024  1.6691 -0.9834  1.6742
  104OSM    H8G10551   5.382   3.380   4.989 -0.5170 -0.9306 -0.2806
  104OSM    C9F10552   5.510   3.327   4.821 -0.2533  0.1102 -0.5319
  104OSM    H9F10553   5.616   3.312   4.797  0.1281  1.2881  0.2954
  104OSM   C10F10554   5.420   3.347   4.730 -0.0810 -0.0254  0.2531
  104OSM   H10F10555   5.443   3.359   4.623  0.5850 -1.7308  0.1643
  104OSM   C11F10556   5.274   3.361   4.761 -0.2785 -0.2807 -0.5255
  104OSM   H11F10557   5.234   3.465   4.766  1.5384  0.5020 -1.4646
  104OSM   H11G10558   5.235   3.326   4.859 -1.1804 -0.8700 -1.0791
  104OSM   C12F10559   5.188   3.290   4.654  0.0297 -0.2506 -0.7918
  104OSM   H12F10560   5.083   3.301   4.685  0.2655  0.9256 -0.3928
  104OSM   H12G10561   5.213   3.182   4.643 -0.9537 -0.6998  1.0695
  104OSM   C13F10562   5.210   3.342   4.520  0.5794 -0.3487  0.6034
  104OSM   H13F10563   5.314   3.316   4.489  0.9077  0.0230  1.3634
  104OSM   H13G10564   5.192   3.452   4.517 -1.9235 -0.7296 -0.2209
  104OSM   C14F10565   5.116   3.267   4.427 -0.0683 -0.5684 -0.0598
  104OSM   H14F10566   5.017   3.301   4.465  0.5411 -0.4716  1.5242
  104OSM   H14G10567   5.105   3.157   4.430 -1.3103 -0.4859 -0.8961
  104OSM   C15F10568   5.129   3.312   4.277 -0.2125 -0.1914 -0.0439
  104OSM   H15F10569   5.228   3.274   4.244  0.0090 -0.9312  1.3670
  104OSM   H15G10570   5.130   3.423   4.283  2.4301 -0.0721 -1.0473
  104OSM   C16F10571   5.024   3.250   4.179  0.0199  0.2206 -0.5168
  104OSM   H16F10572   5.033   3.140   4.189  2.5857  0.4435  0.3241
  104OSM   H16G10573   5.075   3.268   4.081  0.7139  0.7375 -0.0700
  104OSM   C17F10574   4.884   3.315   4.183  0.2149 -0.2112  0.5753
  104OSM   H17F10575   4.885   3.424   4.201 -1.8229 -0.0712  0.1044
  104OSM   H17G10576   4.836   3.272   4.273  1.7086  0.5156  1.7630
  104OSM   C18F10577   4.802   3.296   4.057  0.2800  0.5080 -0.0297
  104OSM   H18F10578   4.763   3.192   4.055  0.2759  0.5059  0.1442
  104OSM   H18G10579   4.847   3.311   3.956 -0.5661 -0.6929 -0.6254
  104OSM   H18H10580   4.714   3.364   4.060 -0.4918 -0.4552 -0.0465
  105OSM      N10581   4.830   4.218   6.435 -0.3810  0.3707 -0.5081
  105OSM    C1510582   4.769   4.294   6.547  0.4117 -1.2127 -0.3787
  105OSM   H15A10583   4.661   4.298   6.536  0.4558  0.0480 -0.5420
  105OSM   H15B10584   4.800   4.396   6.566 -0.0421 -1.0538 -0.4670
  105OSM   H15C10585   4.789   4.250   6.643 -0.1613  0.5700  0.6194
  105OSM    C1410586   4.973   4.195   6.477  0.1167 -0.1775  0.2023
  105OSM   H14A10587   5.009   4.282   6.529 -2.6292  0.0961  1.8112
  105OSM   H14B10588   5.031   4.187   6.386 -0.4298 -1.6266 -0.0412
  105OSM   H14C10589   4.978   4.108   6.541  0.8873 -0.2321  0.0741
  105OSM    C1310590   4.753   4.093   6.435 -0.5856 -0.2795  0.0175
  105OSM   H13A10591   4.770   4.038   6.344 -1.1066 -1.5226  0.6486
  105OSM   H13B10592   4.647   4.106   6.451 -0.9222 -1.6786 -0.9086
  105OSM   H13C10593   4.787   4.023   6.510  1.1705  1.1917  0.6690
  105OSM    C1210594   4.812   4.300   6.310 -0.3938  0.2056 -0.0496
  105OSM   H12A10595   4.865   4.394   6.319  3.0199 -1.3250 -2.1607
  105OSM   H12B10596   4.707   4.322   6.296 -0.6835 -0.4654  0.9937
  105OSM    C1110597   4.854   4.244   6.177  0.3057  0.3412 -0.2681
  105OSM   H11A10598   4.956   4.200   6.185  1.1678  2.4225  0.6927
  105OSM   H11B10599   4.860   4.324   6.101  0.4075  0.6678  0.0788
  105OSM      P10600   4.613   4.193   6.095 -0.0526  0.0943 -0.1308
  105OSM    O1310601   4.504   4.104   6.134 -0.2515 -0.2666  0.1581
  105OSM    O1410602   4.598   4.333   6.140 -0.0882  0.0688 -0.7889
  105OSM    O1110603   4.634   4.183   5.942 -0.3318  0.2437  0.5110
  105OSM    O1210604   4.760   4.140   6.137 -0.1362  0.7887  0.6127
  105OSM    C1S10605   4.727   4.269   5.871  0.1411 -0.4352  0.3381
  105OSM    H1S10606   4.824   4.215   5.876  0.9696  1.0716  1.5650
  105OSM    H1T10607   4.750   4.366   5.921 -2.5858  0.5968 -0.2305
  105OSM     NF10608   4.805   4.329   5.651 -0.2163 -0.3169 -0.8439
  105OSM    HNF10609   4.816   4.427   5.640 -0.4483 -0.2725 -0.6835
  105OSM    C2S10610   4.690   4.299   5.726  0.2352  0.0496 -0.5824
  105OSM    H2S10611   4.648   4.212   5.670  0.4274  2.2003 -4.4071
  105OSM    C3S10612   4.580   4.409   5.728 -0.5200 -0.0456 -0.4910
  105OSM    H3S10613   4.640   4.493   5.769 -0.7870  0.7805 -1.7419
  105OSM     O310614   4.466   4.366   5.807 -0.4211 -0.4385  0.0740
  105OSM    HO310615   4.496   4.288   5.855  1.6857  1.2871  1.7370
  105OSM    C4S10616   4.531   4.444   5.594  0.4324 -0.2732 -0.4997
  105OSM    H4S10617   4.478   4.367   5.536  0.1240  0.1264 -0.7495
  105OSM    C5S10618   4.560   4.555   5.523 -0.0168  0.0987  0.4524
  105OSM    H5S10619   4.630   4.634   5.553  1.0986 -0.5428 -0.3482
  105OSM    C6S10620   4.505   4.576   5.382 -0.1895  0.8424  0.1995
  105OSM    H6S10621   4.461   4.677   5.368 -0.1127  0.9783  0.8997
  105OSM    H6T10622   4.415   4.514   5.359  1.1165 -0.7207 -0.8518
  105OSM    C7S10623   4.610   4.530   5.280  0.2690  0.0711  0.5496
  105OSM    H7S10624   4.646   4.426   5.297 -2.3570 -1.1350 -0.7348
  105OSM    H7T10625   4.691   4.603   5.304 -0.5734  1.5873 -1.0121
  105OSM    C8S10626   4.565   4.550   5.131  0.4235  0.5120  0.4219
  105OSM    H8S10627   4.543   4.657   5.113 -2.1044  0.1026  0.7166
  105OSM    H8T10628   4.474   4.486   5.126  1.3152 -0.7064 -2.0059
  105OSM    C9S10629   4.663   4.496   5.018 -0.2595 -0.5156  0.0146
  105OSM    H9S10630   4.672   4.389   5.045  1.7035 -0.0554  1.3608
  105OSM    H9T10631   4.760   4.543   5.044 -1.3851  1.4052  0.9880
  105OSM   C10S10632   4.628   4.514   4.869  0.0051 -1.0547  0.2904
  105OSM   H10S10633   4.519   4.500   4.851  0.1745  1.2114 -3.8240
  105OSM   H10T10634   4.674   4.435   4.806 -0.6506  0.7748 -2.7051
  105OSM   C11S10635   4.662   4.655   4.811 -0.1593 -0.2474 -0.8858
  105OSM   H11S10636   4.760   4.689   4.852  0.5078 -2.0789 -0.8807
  105OSM   H11T10637   4.582   4.725   4.844  1.2496  0.7599  0.5756
  105OSM   C12S10638   4.674   4.666   4.656  0.0070 -0.2739  0.3337
  105OSM   H12S10639   4.576   4.637   4.611 -1.7093  3.6069  1.1405
  105OSM   H12T10640   4.754   4.595   4.627 -2.4035 -2.9571 -0.2847
  105OSM   C13S10641   4.707   4.802   4.602  0.3571 -0.4128 -0.1707
  105OSM   H13S10642   4.789   4.852   4.659  1.0610  1.3580 -2.5621
  105OSM   H13T10643   4.619   4.870   4.604  1.3172  0.8606  1.2864
  105OSM   C14S10644   4.761   4.793   4.456  0.8291  0.5709 -0.1012
  105OSM   H14S10645   4.848   4.723   4.463 -0.2399 -0.6156  3.6750
  105OSM   H14T10646   4.788   4.897   4.429 -1.9042  1.4834  0.4032
  105OSM   C15S10647   4.661   4.739   4.357  0.4637  0.0484 -0.6908
  105OSM   H15S10648   4.565   4.795   4.356 -0.7389 -1.8970 -2.7618
  105OSM   H15T10649   4.640   4.635   4.391  0.6029 -0.3738 -1.8650
  105OSM   C16S10650   4.723   4.721   4.224 -0.0901 -0.1033 -0.3484
  105OSM   H16S10651   4.807   4.649   4.230  0.1901  0.2284 -0.2933
  105OSM   H16T10652   4.763   4.817   4.186 -0.4640 -0.1588 -0.9028
  105OSM   C17S10653   4.612   4.684   4.124 -0.0605 -0.2251  0.1328
  105OSM   H17S10654   4.517   4.733   4.152  0.0359 -0.9752  1.8889
  105OSM   H17T10655   4.590   4.577   4.141  1.8473 -1.1575 -2.4937
  105OSM   C18S10656   4.656   4.693   3.977 -0.5290 -0.1525 -0.1825
  105OSM   H18S10657   4.677   4.798   3.949 -1.7770  0.4409  0.9481
  105OSM   H18T10658   4.579   4.648   3.911 -2.3630  2.4314  0.0253
  105OSM   H18U10659   4.751   4.636   3.972 -1.7856 -2.9206  3.2904
  105OSM    C1F10660   4.881   4.234   5.604 -0.0057  1.5369  0.3566
  105OSM     OF10661   4.869   4.114   5.642  0.0578  0.1991 -0.1311
  105OSM    C2F10662   4.971   4.273   5.493  0.2139 -0.2429  0.1705
  105OSM    H2F10663   5.075   4.259   5.528  0.2061  0.6855  0.6108
  105OSM    H2G10664   4.953   4.378   5.462  1.7745 -0.0376 -0.1351
  105OSM    C3F10665   4.955   4.171   5.380 -0.4289 -0.1095 -0.1359
  105OSM    H3F10666   4.845   4.163   5.364 -0.2875  1.0052 -1.8550
  105OSM    H3G10667   4.999   4.073   5.410  0.7764  0.9843  1.9116
  105OSM    C4F10668   4.998   4.205   5.238 -0.2586 -0.3500  0.1234
  105OSM    H4F10669   4.962   4.120   5.176  1.1754 -1.0136  0.1531
  105OSM    H4G10670   5.109   4.209   5.243 -0.1840 -2.2974  0.9155
  105OSM    C5F10671   4.954   4.351   5.186 -0.1318  0.3352  0.2849
  105OSM    H5F10672   4.969   4.429   5.263  0.2789 -1.3063  1.9352
  105OSM    H5G10673   4.845   4.338   5.169 -0.2948 -2.0591  2.4691
  105OSM    C6F10674   5.024   4.406   5.065 -0.3106 -0.3788  0.4066
  105OSM    H6F10675   5.132   4.417   5.089 -0.4404 -0.8811  1.2622
  105OSM    H6G10676   4.987   4.509   5.049 -2.1335 -0.8033  1.5777
  105OSM    C7F10677   5.000   4.327   4.930 -0.2904 -0.5163 -0.6052
  105OSM    H7F10678   4.898   4.286   4.916 -0.9448  0.8908 -0.2033
  105OSM    H7G10679   5.070   4.241   4.927 -0.5208 -0.7355  0.0739
  105OSM    C8F10680   5.033   4.409   4.804  0.0355  0.1021 -0.5778
  105OSM    H8F10681   4.982   4.507   4.815 -3.1476 -1.4975 -0.1654
  105OSM    H8G10682   4.976   4.370   4.717 -0.8723  0.1578 -0.0144
  105OSM    C9F10683   5.175   4.438   4.770 -0.2588 -0.3465  0.3192
  105OSM    H9F10684   5.226   4.457   4.866  0.8203 -0.3310 -0.2545
  105OSM   C10F10685   5.232   4.458   4.650  0.3005  0.0427 -0.4097
  105OSM   H10F10686   5.338   4.484   4.639  0.8223 -2.5959 -2.5037
  105OSM   C11F10687   5.158   4.453   4.515  0.3046  0.3914  0.5025
  105OSM   H11F10688   5.152   4.553   4.466  2.4119  0.9779  1.3512
  105OSM   H11G10689   5.060   4.406   4.535 -0.1043  0.3299 -1.4445
  105OSM   C12F10690   5.227   4.349   4.415 -0.1778  0.3603  0.0714
  105OSM   H12F10691   5.170   4.331   4.322 -1.5652 -0.9777  1.1215
  105OSM   H12G10692   5.229   4.250   4.466  0.3528 -0.3632 -1.3152
  105OSM   C13F10693   5.372   4.398   4.373  0.7724  0.6513 -0.1562
  105OSM   H13F10694   5.438   4.374   4.459 -1.7773  0.4646  1.8891
  105OSM   H13G10695   5.359   4.507   4.360  2.2121  0.6899 -1.5110
  105OSM   C14F10696   5.421   4.347   4.243  0.0106 -0.1242  0.0887
  105OSM   H14F10697   5.341   4.373   4.172 -0.4371 -1.4987  0.0645
  105OSM   H14G10698   5.426   4.236   4.242 -1.4141 -0.1992 -1.1151
  105OSM   C15F10699   5.547   4.421   4.190 -0.2180  0.1374  0.2787
  105OSM   H15F10700   5.634   4.379   4.245  1.3094 -0.7012 -2.5840
  105OSM   H15G10701   5.540   4.530   4.208 -1.7881  0.2568 -0.8215
  105OSM   C16F10702   5.585   4.397   4.042 -0.0555 -0.0366 -0.4823
  105OSM   H16F10703   5.501   4.444   3.985 -0.5872  0.8350  0.9695
  105OSM   H16G10704   5.584   4.287   4.025  3.3033 -0.6916  2.4017
  105OSM   C17F10705   5.721   4.453   4.004 -0.1362  0.7379 -0.7366
  105OSM   H17F10706   5.741   4.424   3.898  1.7819 -0.6845 -0.0378
  105OSM   H17G10707   5.791   4.392   4.064 -1.4257 -0.6823 -0.6084
  105OSM   C18F10708   5.738   4.597   4.012 -0.4437 -0.1154 -0.2508
  105OSM   H18F10709   5.646   4.651   3.982  0.0291  0.5928 -0.4553
  105OSM   H18G10710   5.828   4.637   3.960  0.6581  1.4781  2.5989
  105OSM   H18H10711   5.759   4.621   4.119  0.0928  1.3784 -0.6583
  106OSM      N10712   3.376   0.851   6.028 -1.0482  0.6803  0.1783
  106OSM    C1510713   3.342   0.779   6.152 -0.0789  0.1834  0.2676
  106OSM   H15A10714   3.289   0.687   6.132 -2.2148  0.9098  2.1335
  106OSM   H15B10715   3.270   0.831   6.213 -0.3567  1.2051 -0.9046
  106OSM   H15C10716   3.432   0.751   6.205 -0.3512  1.5412  1.5045
  106OSM    C1410717   3.254   0.896   5.959  0.2173 -0.7629 -0.8925
  106OSM   H14A10718   3.168   0.850   6.006  0.2691 -2.4503 -2.3470
  106OSM   H14B10719   3.260   0.853   5.859 -0.0282  0.9159 -1.6593
  106OSM   H14C10720   3.250   1.003   5.947  1.3931 -0.4154  1.3991
  106OSM    C1310721   3.442   0.980   6.067  0.1123  0.8196 -0.7555
  106OSM   H13A10722   3.469   1.040   5.982 -1.4648  0.7070 -1.3676
  106OSM   H13B10723   3.539   0.952   6.105  0.4283  1.4903 -1.0531
  106OSM   H13C10724   3.383   1.032   6.141 -0.3680  1.2732 -1.4575
  106OSM    C1210725   3.466   0.770   5.931 -0.1654 -0.6373 -0.1564
  106OSM   H12A10726   3.496   0.835   5.851 -2.1841  1.0833  0.4008
  106OSM   H12B10727   3.408   0.693   5.881 -2.9912  1.5731 -0.5746
  106OSM    C1110728   3.601   0.709   5.991  0.1705  0.1416 -0.4184
  106OSM   H11A10729   3.652   0.647   5.915 -1.0866 -0.8919 -0.4719
  106OSM   H11B10730   3.578   0.638   6.074  0.7294  1.3012  0.7677
  106OSM      P10731   3.769   0.893   5.924 -0.0591 -0.6371  0.0159
  106OSM    O1310732   3.823   1.016   5.986 -0.0033  0.2314  0.5668
  106OSM    O1410733   3.866   0.797   5.860  0.2338 -0.6695 -0.0917
  106OSM    O1110734   3.657   0.925   5.811 -0.1055 -0.5104 -0.5175
  106OSM    O1210735   3.687   0.817   6.035 -0.0206  0.5753  0.5206
  106OSM    C1S10736   3.710   0.976   5.687 -0.0159 -0.0144  0.5986
  106OSM    H1S10737   3.807   0.928   5.663 -0.1024 -0.5312  1.2722
  106OSM    H1T10738   3.729   1.086   5.682 -0.7824  0.1226  0.5298
  106OSM     NF10739   3.673   0.957   5.444 -0.2484 -0.0032 -0.8047
  106OSM    HNF10740   3.670   1.049   5.405  2.5217  0.7026  0.4038
  106OSM    C2S10741   3.608   0.938   5.571  0.0671 -0.0007 -0.7795
  106OSM    H2S10742   3.574   0.832   5.582  2.2871 -0.5971  1.0707
  106OSM    C3S10743   3.480   1.027   5.594 -0.8783  0.2996  1.1983
  106OSM    H3S10744   3.498   1.134   5.566  2.1408 -0.9450 -2.5087
  106OSM     O310745   3.432   1.024   5.727  0.3212 -0.1408  0.3481
  106OSM    HO310746   3.504   1.004   5.787 -0.5669  0.5764  1.7434
  106OSM    C4S10747   3.349   1.000   5.503 -0.3017  0.9312  0.1227
  106OSM    H4S10748   3.299   0.909   5.537  1.2978  1.0276  3.0831
  106OSM    C5S10749   3.325   1.069   5.392 -0.0334 -0.0548 -0.3440
  106OSM    H5S10750   3.396   1.149   5.367  1.1500 -0.3955  1.6822
  106OSM    C6S10751   3.204   1.046   5.300  0.0102 -0.2051 -0.1730
  106OSM    H6S10752   3.149   1.142   5.287  0.1049 -0.2151 -0.6410
  106OSM    H6T10753   3.135   0.986   5.363  1.6434 -0.8363  1.0860
  106OSM    C7S10754   3.236   0.976   5.169  0.3872  0.0234 -0.0485
  106OSM    H7S10755   3.151   0.988   5.099  0.9734  0.9374 -0.6162
  106OSM    H7T10756   3.254   0.867   5.183 -0.6805 -0.2743 -0.8600
  106OSM    C8S10757   3.351   1.041   5.096 -0.7857 -0.1502 -0.1441
  106OSM    H8S10758   3.449   1.006   5.135 -1.1910  0.7197  1.7531
  106OSM    H8T10759   3.354   1.148   5.127  0.3175  0.2145 -1.4300
  106OSM    C9S10760   3.356   1.059   4.938  0.7990 -0.6391 -0.2954
  106OSM    H9S10761   3.445   1.120   4.912  1.0898  0.2950  2.5725
  106OSM    H9T10762   3.269   1.120   4.905  0.0708 -0.4105  1.8769
  106OSM   C10S10763   3.344   0.927   4.858  0.0674 -0.6807  0.0037
  106OSM   H10S10764   3.300   0.843   4.916  0.8167 -0.1346  1.4028
  106OSM   H10T10765   3.449   0.895   4.842  0.4482  0.2794  0.4707
  106OSM   C11S10766   3.286   0.941   4.716  0.2799  0.6151 -0.0799
  106OSM   H11S10767   3.335   1.026   4.664 -0.7033  0.0496 -2.0005
  106OSM   H11T10768   3.180   0.970   4.731  0.0693 -0.9456  1.8688
  106OSM   C12S10769   3.274   0.808   4.634  0.0433  0.7284  0.0112
  106OSM   H12S10770   3.229   0.729   4.699  1.2130  0.1099  0.1053
  106OSM   H12T10771   3.380   0.781   4.616 -0.4071 -0.1510 -1.4356
  106OSM   C13S10772   3.199   0.824   4.505  0.3043 -0.5042  0.6607
  106OSM   H13S10773   3.103   0.873   4.532 -0.7909 -2.8505  1.3491
  106OSM   H13T10774   3.171   0.724   4.465 -1.6490  0.5886 -0.8528
  106OSM   C14S10775   3.277   0.885   4.393  0.8000 -0.1208  0.2171
  106OSM   H14S10776   3.382   0.850   4.396  0.6000 -0.7292  0.5836
  106OSM   H14T10777   3.287   0.995   4.394 -1.9639  0.2264 -0.7133
  106OSM   C15S10778   3.213   0.868   4.253  0.1665 -0.4268 -0.0149
  106OSM   H15S10779   3.109   0.908   4.259 -0.0158 -1.0271  1.3118
  106OSM   H15T10780   3.211   0.758   4.239 -0.0033 -0.5803  1.0741
  106OSM   C16S10781   3.297   0.924   4.136 -0.3187  0.6042  0.2206
  106OSM   H16S10782   3.263   0.882   4.038 -0.9260  0.1572  0.6145
  106OSM   H16T10783   3.401   0.886   4.146 -1.2922 -2.1359  0.9168
  106OSM   C17S10784   3.313   1.078   4.125 -0.2060 -0.1698 -0.9006
  106OSM   H17S10785   3.396   1.106   4.057  1.3839  2.0149  1.7699
  106OSM   H17T10786   3.345   1.100   4.228 -0.0816  0.4917 -1.0789
  106OSM   C18S10787   3.192   1.162   4.083  0.2663  0.0308  0.5151
  106OSM   H18S10788   3.129   1.182   4.173 -0.0684  0.6826  0.1448
  106OSM   H18T10789   3.127   1.101   4.017  0.6400 -0.4805  0.6162
  106OSM   H18U10790   3.204   1.257   4.027 -1.1420 -0.8064 -1.3147
  106OSM    C1F10791   3.738   0.857   5.383  0.7882 -0.3979 -0.2012
  106OSM     OF10792   3.773   0.749   5.440  0.0529 -0.1453 -0.1997
  106OSM    C2F10793   3.787   0.883   5.243  0.1900 -0.1793 -0.2791
  106OSM    H2F10794   3.894   0.911   5.255  0.1358 -0.2631  0.4850
  106OSM    H2G10795   3.726   0.966   5.201 -0.0768 -0.0351  0.3751
  106OSM    C3F10796   3.787   0.757   5.155 -0.6358 -0.7216 -0.0600
  106OSM    H3F10797   3.680   0.732   5.138 -1.0047  1.9504 -2.5714
  106OSM    H3G10798   3.848   0.681   5.208 -0.8771 -0.7788  0.1358
  106OSM    C4F10799   3.828   0.782   5.007 -0.0283 -0.0507  0.2230
  106OSM    H4F10800   3.793   0.694   4.948  1.8428  0.9364 -2.5526
  106OSM    H4G10801   3.938   0.791   5.012 -0.2501  3.0828  1.2326
  106OSM    C5F10802   3.779   0.912   4.942  1.4513 -0.2763  0.2780
  106OSM    H5F10803   3.840   0.998   4.978  0.5369  1.3668 -1.8770
  106OSM    H5G10804   3.672   0.934   4.959  1.7216  0.9588  0.4753
  106OSM    C6F10805   3.773   0.891   4.787 -0.2663 -0.0870  0.7163
  106OSM    H6F10806   3.702   0.813   4.751  2.2160 -1.2378 -2.0962
  106OSM    H6G10807   3.873   0.863   4.748  0.9717  1.6559  2.4395
  106OSM    C7F10808   3.743   1.020   4.718 -0.6248  0.0866  0.0972
  106OSM    H7F10809   3.795   1.109   4.760  1.0613 -0.5580 -0.5217
  106OSM    H7G10810   3.636   1.041   4.738 -0.4700  1.8860 -0.7128
  106OSM    C8F10811   3.754   1.019   4.561 -0.6726 -0.5745  0.3338
  106OSM    H8F10812   3.860   0.996   4.534 -0.7051  0.2374 -0.5134
  106OSM    H8G10813   3.732   1.122   4.527  0.1944 -0.7371 -0.7618
  106OSM    C9F10814   3.662   0.926   4.481 -0.3032 -0.6072 -0.0510
  106OSM    H9F10815   3.579   0.877   4.535 -1.6020 -0.4753 -1.8250
  106OSM   C10F10816   3.693   0.888   4.355 -0.1945  0.2812  0.0561
  106OSM   H10F10817   3.621   0.838   4.290  0.1528  0.5389 -0.5379
  106OSM   C11F10818   3.807   0.932   4.271 -0.5204 -0.5231 -0.4784
  106OSM   H11F10819   3.861   0.845   4.229  0.6498  0.7015 -1.6227
  106OSM   H11G10820   3.885   0.992   4.322  0.9339  0.1281 -3.3084
  106OSM   C12F10821   3.752   1.007   4.149 -0.0942  0.6353 -0.1495
  106OSM   H12F10822   3.674   1.074   4.191 -0.0853 -1.3159  3.4104
  106OSM   H12G10823   3.688   0.941   4.085  0.6246 -0.8176  0.5849
  106OSM   C13F10824   3.862   1.079   4.071  0.0258 -0.9913 -0.6868
  106OSM   H13F10825   3.816   1.128   3.983  0.3553  1.2162  0.3005
  106OSM   H13G10826   3.937   1.009   4.029  0.3130 -0.6691 -0.7102
  106OSM   C14F10827   3.931   1.196   4.150 -0.9917  0.9398 -0.7373
  106OSM   H14F10828   4.003   1.154   4.223  0.0918  1.0821 -1.6799
  106OSM   H14G10829   3.855   1.254   4.206 -0.5870 -1.1237  2.1662
  106OSM   C15F10830   4.012   1.276   4.045  0.5593 -0.5869 -0.5010
  106OSM   H15F10831   3.944   1.315   3.967  0.9519 -3.1262 -2.2477
  106OSM   H15G10832   4.073   1.198   3.995 -0.3422 -3.2299  2.1532
  106OSM   C16F10833   4.110   1.383   4.098 -0.0728  0.7063  0.0308
  106OSM   H16F10834   4.154   1.344   4.192 -0.5011  1.0051  0.3584
  106OSM   H16G10835   4.047   1.470   4.129 -2.4965 -0.7790 -0.5008
  106OSM   C17F10836   4.222   1.441   4.005  0.4200  0.1759 -0.3344
  106OSM   H17F10837   4.284   1.518   4.057 -0.5473  1.9723 -1.7415
  106OSM   H17G10838   4.183   1.496   3.916  2.1481  1.7410 -0.1917
  106OSM   C18F10839   4.330   1.339   3.966 -0.0416  0.6136 -0.1821
  106OSM   H18F10840   4.380   1.299   4.057  1.9140  1.7982 -0.6931
  106OSM   H18G10841   4.411   1.374   3.900  0.6262 -0.0958  0.2414
  106OSM   H18H10842   4.295   1.247   3.915 -0.2728 -0.1287  1.2445
  107OSM      N10843   3.932   6.852   6.236 -0.0339 -0.6322  0.1361
  107OSM    C1510844   3.977   6.970   6.160  0.8065 -0.3102 -0.7430
  107OSM   H15A10845   4.037   6.941   6.076  4.0535 -0.4580  1.4491
  107OSM   H15B10846   4.033   7.047   6.212  1.9830 -1.4553 -0.2656
  107OSM   H15C10847   3.884   7.016   6.129  0.4794 -1.1051 -0.9608
  107OSM    C1410848   4.057   6.784   6.299  0.4492  0.3033 -0.1879
  107OSM   H14A10849   4.118   6.860   6.345  3.0619 -1.5972 -0.3249
  107OSM   H14B10850   4.125   6.738   6.229 -0.6897 -0.0349 -1.1119
  107OSM   H14C10851   4.019   6.708   6.365 -1.7817  0.0076 -1.6846
  107OSM    C1310852   3.835   6.899   6.341  0.5347  0.4870 -0.0751
  107OSM   H13A10853   3.762   6.962   6.292  0.9871  0.0627 -1.3307
  107OSM   H13B10854   3.883   6.970   6.407  2.1997  1.5355 -2.3043
  107OSM   H13C10855   3.797   6.815   6.398  0.9899 -0.8514 -1.6656
  107OSM    C1210856   3.850   6.760   6.146 -0.5053 -0.1685  0.3622
  107OSM   H12A10857   3.768   6.824   6.115  0.7475  1.4344  0.2330
  107OSM   H12B10858   3.821   6.675   6.206 -1.9754  0.1050  0.0822
  107OSM    C1110859   3.915   6.707   6.013  1.2176 -0.6373  0.0773
  107OSM   H11A10860   3.929   6.800   5.954 -0.2164  0.3112  1.1517
  107OSM   H11B10861   3.846   6.649   5.949 -0.3327  0.6077  0.5263
  107OSM      P10862   4.000   6.484   6.085 -0.0654 -0.1296 -0.0586
  107OSM    O1310863   4.119   6.416   6.132 -0.0365  0.2999 -0.3504
  107OSM    O1410864   3.878   6.468   6.168  0.5540 -0.2071 -0.1494
  107OSM    O1110865   3.981   6.429   5.939  0.4782 -0.1346  0.2673
  107OSM    O1210866   4.030   6.629   6.047  0.3409 -0.0153  0.2574
  107OSM    C1S10867   4.097   6.421   5.855  0.0974 -0.2883  0.2112
  107OSM    H1S10868   4.182   6.361   5.894  2.2373  0.0554 -3.3872
  107OSM    H1T10869   4.134   6.522   5.825  3.0375 -0.9001  1.4387
  107OSM     NF10870   4.177   6.319   5.642 -1.2189 -0.1263 -0.1341
  107OSM    HNF10871   4.215   6.380   5.573 -1.2905  0.2060  0.1188
  107OSM    C2S10872   4.053   6.363   5.717 -0.9934  0.0449  0.1753
  107OSM    H2S10873   3.989   6.278   5.750  0.7371 -2.0325 -1.5101
  107OSM    C3S10874   3.965   6.449   5.633 -0.6619 -0.1977  0.3760
  107OSM    H3S10875   4.023   6.533   5.589 -0.5161 -1.0998 -1.2279
  107OSM     O310876   3.854   6.505   5.701 -0.1956 -0.3070  0.2133
  107OSM    HO310877   3.868   6.481   5.793 -0.3240  1.6281  0.7772
  107OSM    C4S10878   3.925   6.380   5.502 -0.3046  0.1561  0.5939
  107OSM    H4S10879   3.997   6.398   5.421 -0.9525  0.7337  0.1341
  107OSM    C5S10880   3.810   6.318   5.466 -0.5083 -0.8982 -0.2703
  107OSM    H5S10881   3.735   6.318   5.546  1.5505 -0.5972  1.7642
  107OSM    C6S10882   3.782   6.261   5.327 -0.4163 -0.7206  0.2725
  107OSM    H6S10883   3.691   6.307   5.284  0.1013 -0.2250 -0.3050
  107OSM    H6T10884   3.753   6.154   5.341 -0.2375 -1.2265 -2.6429
  107OSM    C7S10885   3.888   6.258   5.215 -0.0767 -0.2372  0.3488
  107OSM    H7S10886   3.970   6.192   5.250 -0.5393 -0.5984  0.7636
  107OSM    H7T10887   3.926   6.361   5.194 -3.4492  0.8404 -1.0792
  107OSM    C8S10888   3.831   6.207   5.080 -0.5741  1.0147 -0.3037
  107OSM    H8S10889   3.767   6.123   5.112 -2.0367  2.4948  0.8119
  107OSM    H8T10890   3.918   6.172   5.020  1.4735  2.7551  1.4693
  107OSM    C9S10891   3.760   6.306   4.993  0.8271 -0.1428  0.4514
  107OSM    H9S10892   3.681   6.359   5.050 -0.0621 -1.6755  0.7190
  107OSM    H9T10893   3.707   6.248   4.915 -1.1965 -0.6516  2.1127
  107OSM   C10S10894   3.856   6.406   4.932 -0.0057  0.6700  0.4539
  107OSM   H10S10895   3.947   6.343   4.927 -0.7845 -0.4157 -0.3980
  107OSM   H10T10896   3.874   6.485   5.009 -2.0052 -1.8601  3.8079
  107OSM   C11S10897   3.822   6.458   4.784 -0.1964  0.3313  0.1443
  107OSM   H11S10898   3.808   6.368   4.720  0.4732  0.6306 -0.4434
  107OSM   H11T10899   3.914   6.504   4.741  0.3033 -1.7885 -1.2256
  107OSM   C12S10900   3.701   6.556   4.775 -0.2536  0.4349 -0.0581
  107OSM   H12S10901   3.708   6.626   4.861 -0.8566  0.1538  0.2307
  107OSM   H12T10902   3.606   6.498   4.779 -1.4008  2.2667  0.7629
  107OSM   C13S10903   3.702   6.630   4.641 -0.1585  0.5463  0.1826
  107OSM   H13S10904   3.796   6.688   4.646 -1.3792  2.7327 -0.7721
  107OSM   H13T10905   3.614   6.697   4.628  0.4668  0.9269 -3.0749
  107OSM   C14S10906   3.704   6.542   4.520  0.2992 -0.2040  1.0040
  107OSM   H14S10907   3.629   6.462   4.535 -0.1390 -0.4450 -1.8223
  107OSM   H14T10908   3.797   6.491   4.489  1.3939  1.9306  0.6032
  107OSM   C15S10909   3.666   6.623   4.392 -0.1011 -0.7020 -0.1767
  107OSM   H15S10910   3.747   6.698   4.379 -0.2908 -0.4427  0.1214
  107OSM   H15T10911   3.577   6.687   4.410 -0.2497 -0.5389 -1.4137
  107OSM   C16S10912   3.652   6.540   4.267 -0.2860  0.2025 -1.0325
  107OSM   H16S10913   3.749   6.488   4.249 -0.8591 -0.2063 -3.2175
  107OSM   H16T10914   3.655   6.608   4.180  1.3375  0.3188 -0.9105
  107OSM   C17S10915   3.536   6.436   4.265  0.3438  0.0181 -0.1888
  107OSM   H17S10916   3.435   6.478   4.281  0.4654  0.1878  0.1393
  107OSM   H17T10917   3.551   6.357   4.342  1.6141  0.4803  0.0570
  107OSM   C18S10918   3.542   6.371   4.127  0.1364 -0.1780 -0.4281
  107OSM   H18S10919   3.454   6.304   4.114 -0.6143  0.6080  0.4595
  107OSM   H18T10920   3.633   6.308   4.127  0.6187  0.5018 -1.1562
  107OSM   H18U10921   3.549   6.441   4.041  1.5702 -1.9543 -1.8411
  107OSM    C1F10922   4.252   6.209   5.677  0.0510  0.3476  0.0950
  107OSM     OF10923   4.204   6.132   5.753  0.3976  0.1958  0.1913
  107OSM    C2F10924   4.388   6.204   5.623  0.6595 -0.1535  0.0414
  107OSM    H2F10925   4.457   6.218   5.709  0.7424 -0.9561  0.1186
  107OSM    H2G10926   4.397   6.287   5.550 -2.9498  0.6090  0.2506
  107OSM    C3F10927   4.423   6.073   5.541 -0.2215 -0.2427 -0.0743
  107OSM    H3F10928   4.364   5.986   5.577 -1.1656  0.0813 -0.7831
  107OSM    H3G10929   4.532   6.056   5.556  0.3115  0.3805 -2.7367
  107OSM    C4F10930   4.421   6.084   5.384 -0.3561  0.5007 -0.4147
  107OSM    H4F10931   4.481   6.010   5.327  0.7952  2.1082 -1.3992
  107OSM    H4G10932   4.454   6.182   5.343 -0.1790  0.0975 -1.2487
  107OSM    C5F10933   4.273   6.084   5.334 -0.6116  0.1879 -0.2007
  107OSM    H5F10934   4.219   6.177   5.360 -0.7827 -0.1147  0.5441
  107OSM    H5G10935   4.214   6.000   5.377  1.3752 -0.3614  1.5701
  107OSM    C6F10936   4.263   6.074   5.178 -0.1523 -0.1130 -0.3980
  107OSM    H6F10937   4.169   6.016   5.163 -0.8225  0.2157  2.1672
  107OSM    H6G10938   4.350   6.014   5.142 -0.4090 -1.1396  0.6221
  107OSM    C7F10939   4.280   6.214   5.109  0.7007 -0.8376 -0.6069
  107OSM    H7F10940   4.356   6.274   5.163 -0.8097 -0.4216  1.1731
  107OSM    H7G10941   4.182   6.264   5.126  1.0231 -0.3700 -0.1225
  107OSM    C8F10942   4.310   6.212   4.963  0.1129 -0.0049  0.5474
  107OSM    H8F10943   4.410   6.164   4.968 -0.6038 -1.5139  1.3639
  107OSM    H8G10944   4.311   6.319   4.936 -0.8334 -0.2722 -0.6398
  107OSM    C9F10945   4.208   6.143   4.876  0.4415  0.4206  0.2569
  107OSM    H9F10946   4.201   6.034   4.892 -0.5002  0.1481 -1.6932
  107OSM   C10F10947   4.158   6.178   4.750 -0.3769  0.4708 -0.5490
  107OSM   H10F10948   4.076   6.122   4.702 -0.3914  1.7336 -2.0852
  107OSM   C11F10949   4.180   6.299   4.662 -0.4226  1.2040 -0.3511
  107OSM   H11F10950   4.224   6.378   4.726  0.2166 -0.8083  1.8140
  107OSM   H11G10951   4.076   6.319   4.629 -1.3147 -0.7721  1.0394
  107OSM   C12F10952   4.281   6.266   4.548 -0.0025  0.1491 -0.4412
  107OSM   H12F10953   4.245   6.188   4.479  1.5761 -0.8336 -0.1951
  107OSM   H12G10954   4.369   6.222   4.599 -1.2554 -1.1986  0.6589
  107OSM   C13F10955   4.308   6.387   4.461  0.2148  0.2710  0.3504
  107OSM   H13F10956   4.363   6.462   4.522 -1.0096  0.5338  1.1766
  107OSM   H13G10957   4.211   6.416   4.415  0.3162 -1.4441 -1.0285
  107OSM   C14F10958   4.412   6.354   4.343 -0.1800  0.2781  0.5364
  107OSM   H14F10959   4.518   6.360   4.375 -0.3239 -0.2602  1.1232
  107OSM   H14G10960   4.401   6.450   4.289  3.7279  1.1124  0.9820
  107OSM   C15F10961   4.381   6.232   4.251 -0.1882  0.4842  0.2242
  107OSM   H15F10962   4.270   6.226   4.249 -0.1154 -1.1441 -1.0793
  107OSM   H15G10963   4.400   6.135   4.303  0.7985 -0.2375 -1.3951
  107OSM   C16F10964   4.429   6.247   4.109  0.0322 -0.7596  0.4765
  107OSM   H16F10965   4.540   6.253   4.110  0.1009 -0.9549 -1.4160
  107OSM   H16G10966   4.388   6.345   4.076  1.0104 -0.4250  0.1988
  107OSM   C17F10967   4.389   6.134   4.018 -0.2927 -0.4099 -0.0545
  107OSM   H17F10968   4.281   6.113   4.032 -0.7120  0.6822 -1.4827
  107OSM   H17G10969   4.439   6.043   4.059 -0.9480  0.0998  2.0090
  107OSM   C18F10970   4.412   6.153   3.869  0.1687 -0.2028  0.0640
  107OSM   H18F10971   4.382   6.260   3.856  1.8409  0.5546  1.9635
  107OSM   H18G10972   4.356   6.075   3.813  1.0234 -1.2575  0.6433
  107OSM   H18H10973   4.519   6.158   3.841  0.1311  0.7326  0.0312
  108OSM      N10974   5.298   1.849   6.181  0.2942 -0.5547 -0.4556
  108OSM    C1510975   5.369   1.716   6.151  0.4243 -0.7091 -0.7209
  108OSM   H15A10976   5.421   1.671   6.234  1.3156 -0.5175 -1.1719
  108OSM   H15B10977   5.436   1.739   6.070 -1.0609 -0.7442 -2.0036
  108OSM   H15C10978   5.296   1.640   6.126 -1.2422  0.9988 -1.3163
  108OSM    C1410979   5.218   1.818   6.309 -0.4159  0.2030  0.2404
  108OSM   H14A10980   5.167   1.905   6.348 -1.2969 -0.8943  1.6315
  108OSM   H14B10981   5.285   1.792   6.389 -1.0523  0.6990  0.9452
  108OSM   H14C10982   5.132   1.754   6.301 -2.8979  2.6732  3.8600
  108OSM    C1310983   5.392   1.956   6.203 -0.1439 -0.6139  0.2968
  108OSM   H13A10984   5.352   2.048   6.244  1.4994  0.8798 -1.2690
  108OSM   H13B10985   5.440   1.980   6.110 -2.3611 -1.1210 -1.0446
  108OSM   H13C10986   5.469   1.935   6.276  1.4079  1.3149 -0.6792
  108OSM    C1210987   5.204   1.893   6.068 -0.1702 -0.8971  0.1773
  108OSM   H12A10988   5.140   1.809   6.046 -0.8846 -0.3355  0.0580
  108OSM   H12B10989   5.265   1.924   5.984  2.0105  1.8944  2.5705
  108OSM    C1110990   5.105   2.008   6.105  0.4023 -0.3928 -0.1943
  108OSM   H11A10991   5.028   1.970   6.176  1.4499  0.4014  1.4184
  108OSM   H11B10992   5.045   2.041   6.018  1.4249  2.7292  0.1688
  108OSM      P10993   5.143   2.272   6.096  0.5938 -0.1557  0.1554
  108OSM    O1310994   4.996   2.309   6.100  0.0962 -0.3979 -0.5386
  108OSM    O1410995   5.236   2.369   6.156  0.0103 -0.0086 -0.4392
  108OSM    O1110996   5.186   2.248   5.949  0.2226 -0.4935 -0.0466
  108OSM    O1210997   5.164   2.126   6.161  0.1262  0.8040  0.3154
  108OSM    C1S10998   5.322   2.216   5.919 -0.0406 -0.8867  0.2100
  108OSM    H1S10999   5.348   2.117   5.964 -3.4208 -2.5448 -1.1489
  108OSM    H1T11000   5.389   2.296   5.957  0.2277 -0.8915 -0.2465
  108OSM     NF11001   5.496   2.148   5.769  0.2062 -0.3452  0.0043
  108OSM    HNF11002   5.556   2.227   5.765 -0.8109  0.4486 -0.0075
  108OSM    C2S11003   5.355   2.184   5.775  0.4474  0.5006  0.0612
  108OSM    H2S11004   5.292   2.101   5.736 -3.3835  3.1285  0.0964
  108OSM    C3S11005   5.319   2.308   5.689  0.4103 -0.3065  1.0726
  108OSM    H3S11006   5.379   2.398   5.717 -0.7293  1.1986 -1.0572
  108OSM     O311007   5.193   2.375   5.711  0.2991  0.5209  0.1398
  108OSM    HO311008   5.153   2.308   5.767  1.2646 -0.2018 -0.0112
  108OSM    C4S11009   5.335   2.273   5.544 -0.6265 -0.1349  0.5758
  108OSM    H4S11010   5.274   2.189   5.510  0.2594 -0.3781 -0.4342
  108OSM    C5S11011   5.401   2.353   5.452  0.1534 -0.3134 -0.1588
  108OSM    H5S11012   5.467   2.434   5.488 -2.1791  0.9504  1.5032
  108OSM    C6S11013   5.417   2.323   5.306  0.2058 -0.0695  0.6101
  108OSM    H6S11014   5.522   2.303   5.276 -0.8533 -2.7610 -1.8393
  108OSM    H6T11015   5.387   2.414   5.249 -1.3966 -0.2192  1.1516
  108OSM    C7S11016   5.339   2.203   5.257  0.0502  0.1806 -0.0177
  108OSM    H7S11017   5.228   2.205   5.266 -0.0047 -1.2451 -0.1318
  108OSM    H7T11018   5.367   2.112   5.315  1.7913  1.5881  1.4269
  108OSM    C8S11019   5.363   2.161   5.115 -0.0373 -0.4612  0.2028
  108OSM    H8S11020   5.320   2.062   5.088  3.8645 -1.6625 -2.5242
  108OSM    H8T11021   5.472   2.149   5.094  0.0820 -0.3234  0.7237
  108OSM    C9S11022   5.301   2.248   4.996  0.1227 -0.1640  0.0351
  108OSM    H9S11023   5.317   2.185   4.906  3.1450  0.9219 -0.3176
  108OSM    H9T11024   5.353   2.345   4.979  1.3965 -0.7933  0.1745
  108OSM   C10S11025   5.151   2.271   5.004 -0.2333  0.3368 -0.9306
  108OSM   H10S11026   5.123   2.348   5.078  1.4115  0.1042 -0.0184
  108OSM   H10T11027   5.097   2.177   5.029  1.4399 -0.1812  0.9549
  108OSM   C11S11028   5.089   2.314   4.873 -1.2950 -0.3342  0.1387
  108OSM   H11S11029   5.114   2.232   4.803 -3.4437 -0.6338 -0.3504
  108OSM   H11T11030   5.145   2.405   4.844  4.2056 -3.5313 -0.6647
  108OSM   C12S11031   4.938   2.335   4.877 -0.0964 -0.1228 -0.0239
  108OSM   H12S11032   4.908   2.421   4.941 -2.4973  1.1636 -2.6617
  108OSM   H12T11033   4.877   2.251   4.917  0.1926 -0.6315 -0.6422
  108OSM   C13S11034   4.859   2.350   4.742 -1.0651 -0.0561 -0.5965
  108OSM   H13S11035   4.752   2.345   4.772 -0.8522  0.3638  0.2782
  108OSM   H13T11036   4.886   2.270   4.670  2.1738  0.2951  0.0449
  108OSM   C14S11037   4.901   2.487   4.686  0.3220 -0.7632 -0.0235
  108OSM   H14S11038   5.010   2.485   4.668  0.7389 -0.2750  2.2148
  108OSM   H14T11039   4.885   2.558   4.770  0.3484 -0.8715  0.0729
  108OSM   C15S11040   4.829   2.529   4.559  0.0234 -0.3963 -0.1217
  108OSM   H15S11041   4.885   2.612   4.509  0.8774 -1.1248 -0.4019
  108OSM   H15T11042   4.734   2.579   4.588  0.0469 -0.6534  0.3989
  108OSM   C16S11043   4.805   2.412   4.454  0.8252  0.1769  0.6873
  108OSM   H16S11044   4.752   2.454   4.366  1.6665  1.9190  0.9622
  108OSM   H16T11045   4.758   2.325   4.505  1.7349 -0.6372  0.1719
  108OSM   C17S11046   4.938   2.346   4.414  0.5109 -0.0321  0.3241
  108OSM   H17S11047   4.903   2.262   4.350  0.1793  0.6738 -0.4464
  108OSM   H17T11048   4.999   2.302   4.496 -0.4498 -1.9252  0.0685
  108OSM   C18S11049   5.030   2.437   4.329  0.9705  0.8738 -1.0145
  108OSM   H18S11050   5.117   2.381   4.288  0.6031 -1.3867  1.0581
  108OSM   H18T11051   5.078   2.510   4.397  2.3012 -0.5875 -0.3121
  108OSM   H18U11052   4.969   2.487   4.251  1.6307  1.0155 -1.4491
  108OSM    C1F11053   5.535   2.025   5.806  0.5580 -0.4460 -0.3804
  108OSM     OF11054   5.458   1.940   5.849 -0.3000  0.4656  0.4360
  108OSM    C2F11055   5.685   1.988   5.785 -0.7508 -0.8983  0.0254
  108OSM    H2F11056   5.740   1.997   5.881 -3.3218  2.5378  1.4036
  108OSM    H2G11057   5.729   2.065   5.718 -1.3749 -1.0086 -0.5301
  108OSM    C3F11058   5.689   1.848   5.719 -0.0654  0.4943 -0.0311
  108OSM    H3F11059   5.623   1.842   5.629 -1.1504 -1.2964  0.8314
  108OSM    H3G11060   5.649   1.772   5.789 -0.9373  0.7732 -0.2082
  108OSM    C4F11061   5.834   1.799   5.694 -0.4283 -0.1477 -0.6473
  108OSM    H4F11062   5.895   1.840   5.777 -1.3872 -0.1164  0.0636
  108OSM    H4G11063   5.875   1.864   5.614 -0.1300 -0.3588 -0.6677
  108OSM    C5F11064   5.853   1.662   5.650 -0.3067  0.2445 -0.4371
  108OSM    H5F11065   5.816   1.589   5.726 -2.3917 -0.7865 -2.3175
  108OSM    H5G11066   5.961   1.640   5.634 -1.1374 -4.3900 -1.1673
  108OSM    C6F11067   5.773   1.617   5.529 -0.2847  0.0304  0.0094
  108OSM    H6F11068   5.667   1.651   5.540 -0.1420  0.6870 -0.5880
  108OSM    H6G11069   5.769   1.506   5.526  0.2771  0.0274 -0.7872
  108OSM    C7F11070   5.826   1.664   5.385  0.5085 -0.2973 -0.2759
  108OSM    H7F11071   5.916   1.607   5.354  0.0847  0.8371 -4.0990
  108OSM    H7G11072   5.832   1.775   5.383 -0.5875 -0.1541  1.8823
  108OSM    C8F11073   5.725   1.628   5.268  0.3358 -0.7766 -0.3200
  108OSM    H8F11074   5.778   1.674   5.182  0.3086 -0.1464 -0.0023
  108OSM    H8G11075   5.629   1.683   5.275  1.8573  2.0256  0.2065
  108OSM    C9F11076   5.710   1.483   5.245  0.3966  0.4178  0.0026
  108OSM    H9F11077   5.659   1.428   5.325  0.0756  1.7594  0.7610
  108OSM   C10F11078   5.731   1.428   5.128 -0.8352  0.7034  0.4757
  108OSM   H10F11079   5.727   1.318   5.128  3.8949  0.2925  2.8962
  108OSM   C11F11080   5.776   1.485   4.990  0.1846  0.3931 -0.7408
  108OSM   H11F11081   5.886   1.490   5.006  0.1858 -0.6747 -0.3235
  108OSM   H11G11082   5.733   1.586   4.973 -4.0939 -0.7769  1.6072
  108OSM   C12F11083   5.739   1.407   4.869 -0.5233  0.1253 -0.0538
  108OSM   H12F11084   5.630   1.419   4.849 -0.2370  0.4589 -1.4903
  108OSM   H12G11085   5.751   1.298   4.880  0.6351  0.1304 -1.1222
  108OSM   C13F11086   5.809   1.456   4.739  0.1955  0.2666 -0.5322
  108OSM   H13F11087   5.919   1.442   4.742  0.1313 -0.5607 -1.5471
  108OSM   H13G11088   5.792   1.566   4.727 -1.2037 -0.0728 -2.0592
  108OSM   C14F11089   5.750   1.391   4.613  0.4395  0.4035 -0.6431
  108OSM   H14F11090   5.651   1.433   4.587  0.4880  0.9948  0.0855
  108OSM   H14G11091   5.742   1.283   4.637  0.7476  0.1697 -1.5392
  108OSM   C15F11092   5.833   1.415   4.483  0.0468  0.3886 -0.2745
  108OSM   H15F11093   5.922   1.349   4.490  2.4236  2.9952 -2.9233
  108OSM   H15G11094   5.864   1.522   4.487 -0.8730  0.6235  0.9285
  108OSM   C16F11095   5.743   1.394   4.359  0.0071 -0.2098 -0.1570
  108OSM   H16F11096   5.654   1.460   4.367  0.7157  0.6768  0.8420
  108OSM   H16G11097   5.718   1.286   4.358 -0.2408 -0.2023  1.7779
  108OSM   C17F11098   5.809   1.426   4.228 -0.4614  0.2579 -0.2976
  108OSM   H17F11099   5.916   1.400   4.241  0.2289  1.5933 -2.6448
  108OSM   H17G11100   5.806   1.537   4.218  0.5810  0.5892  2.2491
  108OSM   C18F11101   5.761   1.359   4.096  0.3310  0.4220 -0.5117
  108OSM   H18F11102   5.651   1.367   4.093  0.3544  3.0807  1.5591
  108OSM   H18G11103   5.786   1.250   4.100  0.2539  0.3774 -1.2683
  108OSM   H18H11104   5.794   1.408   4.002  0.8652  2.4460  0.6747
  109OSM      N11105   2.026   1.500   6.175 -0.2083  0.6154 -0.4051
  109OSM    C1511106   2.063   1.617   6.256 -0.8726 -0.6227 -0.0124
  109OSM   H15A11107   2.171   1.620   6.264 -0.8308  0.7930 -0.7330
  109OSM   H15B11108   2.027   1.599   6.357  1.4856  1.5556  1.3295
  109OSM   H15C11109   2.016   1.709   6.224 -1.3212 -0.2589  1.5953
  109OSM    C1411110   2.083   1.381   6.252 -0.6200 -0.7848 -0.0214
  109OSM   H14A11111   2.038   1.372   6.349 -0.2378  1.4391  0.4263
  109OSM   H14B11112   2.191   1.391   6.254 -0.4557 -1.8687 -1.7512
  109OSM   H14C11113   2.073   1.293   6.191 -0.6909 -0.1169 -1.0037
  109OSM    C1311114   1.878   1.474   6.171 -0.8168 -0.6189  0.0396
  109OSM   H13A11115   1.840   1.455   6.270  1.8722 -0.9576  1.0969
  109OSM   H13B11116   1.858   1.393   6.103 -1.4457  0.0773 -0.6247
  109OSM   H13C11117   1.835   1.562   6.125 -0.6351 -0.8081 -0.4909
  109OSM    C1211118   2.091   1.501   6.035 -0.1767 -0.0263  0.1316
  109OSM   H12A11119   2.191   1.542   6.036 -0.6944  1.3787 -1.3614
  109OSM   H12B11120   2.031   1.570   5.978 -0.5698 -0.5751 -0.1307
  109OSM    C1111121   2.080   1.368   5.951 -0.0257 -0.1689 -0.0809
  109OSM   H11A11122   2.094   1.406   5.847  1.1167 -0.5773 -0.0903
  109OSM   H11B11123   1.983   1.317   5.964  0.9898 -1.9531  0.9091
  109OSM      P11124   2.327   1.293   5.937 -0.4459 -0.4815 -0.2083
  109OSM    O1311125   2.385   1.405   6.006 -0.2645 -0.7896  0.1330
  109OSM    O1411126   2.399   1.163   5.940 -0.3341  0.5227 -0.1541
  109OSM    O1111127   2.302   1.334   5.781 -0.3607 -0.4350 -0.3225
  109OSM    O1211128   2.181   1.280   5.989 -0.0692  0.1085  0.2242
  109OSM    C1S11129   2.399   1.393   5.705 -0.4720 -0.4487 -0.1438
  109OSM    H1S11130   2.500   1.383   5.752 -0.2913  1.5997  0.0247
  109OSM    H1T11131   2.380   1.502   5.699  1.0390 -0.2419 -3.5319
  109OSM     NF11132   2.542   1.357   5.501 -0.9929  0.1651  0.3026
  109OSM    HNF11133   2.552   1.424   5.429  0.5119  0.9641  1.2000
  109OSM    C2S11134   2.403   1.332   5.562 -0.0025  0.0430  0.1226
  109OSM    H2S11135   2.395   1.221   5.571 -4.4875  0.0132 -1.8498
  109OSM    C3S11136   2.287   1.375   5.477  0.6459 -0.0693  0.0686
  109OSM    H3S11137   2.287   1.479   5.438 -0.4268 -0.5079 -1.1944
  109OSM     O311138   2.166   1.358   5.548  0.1922 -1.1633 -0.3789
  109OSM    HO311139   2.196   1.320   5.631  0.4102 -0.8239 -0.2992
  109OSM    C4S11140   2.278   1.295   5.350 -0.2506  0.3610 -0.2485
  109OSM    H4S11141   2.325   1.346   5.265  1.4512  0.5043  0.7288
  109OSM    C5S11142   2.230   1.167   5.317  0.1788 -0.2570  0.6098
  109OSM    H5S11143   2.177   1.109   5.395  1.1928 -3.5619 -0.9684
  109OSM    C6S11144   2.245   1.102   5.185 -0.6313  1.0244  0.4893
  109OSM    H6S11145   2.188   1.161   5.110 -1.3737 -0.4935 -0.1875
  109OSM    H6T11146   2.211   0.997   5.195  0.6905  0.5769  0.4763
  109OSM    C7S11147   2.393   1.096   5.150 -0.3538  0.9184 -0.4953
  109OSM    H7S11148   2.451   1.042   5.228 -2.3425 -0.4747  0.0903
  109OSM    H7T11149   2.449   1.188   5.122  1.3486  0.0798  0.0289
  109OSM    C8S11150   2.414   1.003   5.028 -0.3551  0.2967  0.5524
  109OSM    H8S11151   2.334   0.926   5.023  1.4992 -1.6607 -2.8435
  109OSM    H8T11152   2.506   0.940   5.032 -2.8871 -3.7499  0.9386
  109OSM    C9S11153   2.416   1.088   4.901  0.6763 -0.8083  0.4344
  109OSM    H9S11154   2.494   1.166   4.901 -1.3582  1.3751 -0.7373
  109OSM    H9T11155   2.319   1.141   4.888  1.2620 -0.0356 -1.0641
  109OSM   C10S11156   2.422   1.010   4.776  0.3080 -0.0715 -0.1825
  109OSM   H10S11157   2.381   0.908   4.788 -1.0972  0.6591  1.6870
  109OSM   H10T11158   2.530   1.009   4.748  0.4078 -0.1550  0.2052
  109OSM   C11S11159   2.331   1.051   4.655 -0.7207  0.3526 -0.0065
  109OSM   H11S11160   2.357   1.154   4.622  3.3772 -0.6556 -0.4624
  109OSM   H11T11161   2.225   1.036   4.685 -0.7781 -1.4247 -0.9251
  109OSM   C12S11162   2.377   0.961   4.535  0.1992  1.0187 -0.9863
  109OSM   H12S11163   2.365   0.859   4.579 -1.9204  1.9680  0.8700
  109OSM   H12T11164   2.481   0.979   4.503  0.0257  3.5720 -0.2734
  109OSM   C13S11165   2.283   0.968   4.411 -0.2606 -0.1252  0.2224
  109OSM   H13S11166   2.291   1.068   4.364  1.9862 -1.7819 -3.3582
  109OSM   H13T11167   2.176   0.954   4.438 -1.1948 -1.3703 -3.5111
  109OSM   C14S11168   2.331   0.878   4.295 -0.4143 -0.2776  0.9957
  109OSM   H14S11169   2.328   0.772   4.330 -2.1561  0.1233  2.1592
  109OSM   H14T11170   2.436   0.900   4.266 -1.1849  0.3950 -1.4881
  109OSM   C15S11171   2.240   0.897   4.175 -0.4619  0.2822 -0.0989
  109OSM   H15S11172   2.262   0.995   4.128 -1.8464  0.0290 -1.3573
  109OSM   H15T11173   2.132   0.900   4.203 -1.0259 -0.1178 -2.0581
  109OSM   C16S11174   2.254   0.793   4.062 -0.5637  0.5381  0.6858
  109OSM   H16S11175   2.218   0.840   3.968 -1.5510  1.7297  1.6239
  109OSM   H16T11176   2.189   0.706   4.086  0.6023 -0.4414  0.3834
  109OSM   C17S11177   2.395   0.736   4.034 -0.6769  0.6061 -0.0208
  109OSM   H17S11178   2.368   0.653   3.966 -0.2143 -0.6302  1.2674
  109OSM   H17T11179   2.452   0.703   4.123 -1.5484 -0.5746  0.1202
  109OSM   C18S11180   2.480   0.838   3.955 -0.1467  0.1840  0.2882
  109OSM   H18S11181   2.579   0.789   3.945 -0.3398  0.0335 -1.0639
  109OSM   H18T11182   2.494   0.937   4.004  1.3025  0.0988  0.1077
  109OSM   H18U11183   2.439   0.836   3.852 -0.4327 -2.3423  0.3794
  109OSM    C1F11184   2.653   1.297   5.551 -0.3325  0.4982 -0.0555
  109OSM     OF11185   2.636   1.212   5.638 -0.2772  0.5700 -0.0553
  109OSM    C2F11186   2.789   1.326   5.487  0.1962  1.3923 -0.0421
  109OSM    H2F11187   2.854   1.363   5.569 -0.8246  1.5845  0.6918
  109OSM    H2G11188   2.774   1.403   5.408  0.7344  0.2545 -1.2920
  109OSM    C3F11189   2.839   1.192   5.428 -0.4244 -0.0294 -0.3527
  109OSM    H3F11190   2.859   1.115   5.506 -0.7661 -1.3032 -1.4766
  109OSM    H3G11191   2.936   1.214   5.379 -0.0266  1.9438  1.2198
  109OSM    C4F11192   2.749   1.138   5.313  0.1253  0.8496  0.5830
  109OSM    H4F11193   2.649   1.115   5.355  1.0488 -1.6709  1.5841
  109OSM    H4G11194   2.788   1.038   5.284 -0.7225 -0.0885  2.4924
  109OSM    C5F11195   2.763   1.223   5.185 -0.1857  0.6199  0.0863
  109OSM    H5F11196   2.777   1.325   5.226  1.2007 -0.1094  1.5203
  109OSM    H5G11197   2.671   1.232   5.123 -1.5287 -0.0277  1.9034
  109OSM    C6F11198   2.868   1.168   5.082  0.1020 -0.6215  0.1739
  109OSM    H6F11199   2.848   1.074   5.027  0.5226 -0.1795 -0.7723
  109OSM    H6G11200   2.958   1.152   5.146 -0.2965 -0.6658  0.7237
  109OSM    C7F11201   2.925   1.278   4.982 -0.0993 -0.5808  0.1494
  109OSM    H7F11202   3.032   1.252   4.966  0.1342 -0.9355  2.0344
  109OSM    H7G11203   2.944   1.374   5.034  1.1705 -0.2465 -0.9133
  109OSM    C8F11204   2.856   1.299   4.848  0.4928 -0.1777  0.5381
  109OSM    H8F11205   2.820   1.200   4.814  0.4196 -0.0693  0.3003
  109OSM    H8G11206   2.930   1.338   4.775  1.8718 -0.6982  1.6053
  109OSM    C9F11207   2.735   1.394   4.869 -0.4460 -0.0500 -0.6223
  109OSM    H9F11208   2.657   1.355   4.936  1.2165 -0.7738  0.9837
  109OSM   C10F11209   2.732   1.521   4.827  0.2150 -0.1080 -0.7170
  109OSM   H10F11210   2.638   1.573   4.853 -0.6472 -1.9295 -0.0144
  109OSM   C11F11211   2.831   1.599   4.753 -0.1493 -0.6222  0.2872
  109OSM   H11F11212   2.784   1.698   4.734 -0.7005 -0.6125  1.6216
  109OSM   H11G11213   2.861   1.553   4.656 -1.0067  1.3686 -0.9941
  109OSM   C12F11214   2.956   1.635   4.832 -0.6421 -0.1363 -0.4654
  109OSM   H12F11215   3.033   1.679   4.766  1.6508 -1.4585  1.1862
  109OSM   H12G11216   3.003   1.540   4.867  1.3990  0.9611 -0.1319
  109OSM   C13F11217   2.925   1.719   4.960  0.4292 -0.3386 -0.6821
  109OSM   H13F11218   2.876   1.663   5.042 -2.9259  2.6584 -0.3759
  109OSM   H13G11219   2.855   1.800   4.930 -0.1549 -0.4554  0.3273
  109OSM   C14F11220   3.049   1.789   5.014 -0.0186 -0.2504  0.3066
  109OSM   H14F11221   3.101   1.849   4.936  1.4972 -0.6716  0.9558
  109OSM   H14G11222   3.115   1.709   5.052 -0.1973 -0.8654 -0.6441
  109OSM   C15F11223   3.020   1.892   5.123  0.0529 -0.0971 -0.6005
  109OSM   H15F11224   2.981   1.835   5.210  0.5331  0.5068  0.0212
  109OSM   H15G11225   2.948   1.970   5.091 -0.7855 -1.1653 -1.4045
  109OSM   C16F11226   3.145   1.948   5.191  0.7793  0.5407 -0.6089
  109OSM   H16F11227   3.195   2.019   5.122  2.2376  1.2492  1.0855
  109OSM   H16G11228   3.224   1.872   5.205  0.9627  1.0840  1.9284
  109OSM   C17F11229   3.124   2.008   5.331  0.3878  0.6865 -0.1715
  109OSM   H17F11230   3.222   2.057   5.351  1.0906 -1.2048  1.2878
  109OSM   H17G11231   3.115   1.927   5.406  0.2656 -1.7330 -2.6560
  109OSM   C18F11232   3.011   2.115   5.360 -0.2045  0.8704 -0.1791
  109OSM   H18F11233   2.908   2.074   5.356  0.2680 -0.2391 -2.1477
  109OSM   H18G11234   3.028   2.193   5.283 -2.9242  0.1217 -1.6341
  109OSM   H18H11235   3.022   2.147   5.466 -0.4919 -4.2884  1.6940
  110OSM      N11236   5.337   4.907   6.207  0.3560 -0.0328  0.0826
  110OSM    C1511237   5.469   4.841   6.178  0.0436  0.3696  0.5816
  110OSM   H15A11238   5.469   4.741   6.139  1.7293 -0.5948  2.8217
  110OSM   H15B11239   5.531   4.840   6.267 -0.0110  2.1717  0.6923
  110OSM   H15C11240   5.529   4.894   6.106 -0.3549  1.1139  0.7838
  110OSM    C1411241   5.264   4.844   6.319 -0.4970 -0.1244  0.7109
  110OSM   H14A11242   5.327   4.841   6.406 -2.1410 -1.7396  1.9223
  110OSM   H14B11243   5.250   4.740   6.291  1.3052  0.0977 -1.2618
  110OSM   H14C11244   5.166   4.888   6.324 -0.9041 -0.5148 -2.0939
  110OSM    C1311245   5.367   5.049   6.245 -0.4050  0.1687 -0.7379
  110OSM   H13A11246   5.398   5.040   6.349  3.3426  0.2923 -1.6788
  110OSM   H13B11247   5.280   5.112   6.239 -1.5079 -1.3743 -1.7590
  110OSM   H13C11248   5.451   5.090   6.191  1.2710 -0.5802  1.1529
  110OSM    C1211249   5.256   4.903   6.082 -0.0467 -0.0306 -0.2952
  110OSM   H12A11250   5.311   4.936   5.996 -1.2766 -0.6458 -1.3589
  110OSM   H12B11251   5.174   4.973   6.087  0.8665  1.1663 -1.4686
  110OSM    C1111252   5.198   4.763   6.037 -0.0521 -0.0350  0.1282
  110OSM   H11A11253   5.151   4.790   5.940  0.5840 -0.2561 -0.2442
  110OSM   H11B11254   5.113   4.748   6.108 -0.2905 -1.7058 -0.4690
  110OSM      P11255   5.366   4.593   5.911 -0.0048 -0.2799 -0.5256
  110OSM    O1311256   5.501   4.567   5.961  0.3439  0.0072  0.0157
  110OSM    O1411257   5.290   4.481   5.859 -0.0606  0.1558 -0.4790
  110OSM    O1111258   5.370   4.710   5.807  0.3379 -0.3826  0.8975
  110OSM    O1211259   5.286   4.657   6.028  0.1120  0.2611  0.5658
  110OSM    C1S11260   5.423   4.681   5.677 -0.2732 -0.4985  0.0751
  110OSM    H1S11261   5.404   4.578   5.641  1.6996 -0.6316 -0.7063
  110OSM    H1T11262   5.532   4.696   5.664 -0.6696  3.2286 -0.0851
  110OSM     NF11263   5.388   4.740   5.439  0.4468  0.1024  0.5560
  110OSM    HNF11264   5.450   4.811   5.405 -1.0592  2.0189  1.6097
  110OSM    C2S11265   5.346   4.775   5.574  0.4910 -0.4797 -0.5295
  110OSM    H2S11266   5.238   4.761   5.598  0.2107  2.4528  0.3068
  110OSM    C3S11267   5.381   4.919   5.618 -0.0816 -0.6684  0.2960
  110OSM    H3S11268   5.491   4.928   5.607 -0.0477  0.5628  1.4391
  110OSM     O311269   5.343   4.954   5.747 -0.3444 -0.1484  0.1010
  110OSM    HO311270   5.331   4.867   5.785  1.4243  0.2047  1.6118
  110OSM    C4S11271   5.325   5.027   5.526  0.3527  0.4419 -0.2628
  110OSM    H4S11272   5.217   5.039   5.546  0.7172  1.3513  1.4141
  110OSM    C5S11273   5.383   5.111   5.442 -0.7392 -0.1864 -0.2643
  110OSM    H5S11274   5.491   5.103   5.425 -0.6663  1.7926 -0.8796
  110OSM    C6S11275   5.320   5.214   5.359  0.9508  0.1456 -0.8754
  110OSM    H6S11276   5.366   5.314   5.375 -0.2281  0.6480 -0.5325
  110OSM    H6T11277   5.211   5.223   5.380  1.4318  1.0762  1.6087
  110OSM    C7S11278   5.343   5.179   5.213  0.0289 -0.1951  0.2132
  110OSM    H7S11279   5.270   5.246   5.163 -3.3066 -1.3150  3.1189
  110OSM    H7T11280   5.327   5.073   5.187 -0.7015  0.0851 -0.5267
  110OSM    C8S11281   5.472   5.225   5.150 -0.0033  0.4402  0.8888
  110OSM    H8S11282   5.546   5.187   5.223 -2.1348 -1.0228  2.3715
  110OSM    H8T11283   5.487   5.335   5.149 -1.4401  0.6656 -0.7798
  110OSM    C9S11284   5.503   5.167   5.011 -1.0329  1.1150 -0.6240
  110OSM    H9S11285   5.493   5.057   5.025  2.7156  0.8791  1.3145
  110OSM    H9T11286   5.611   5.183   4.994 -1.2325  0.9714 -2.1687
  110OSM   C10S11287   5.429   5.217   4.884 -0.2528  0.2750  0.8409
  110OSM   H10S11288   5.322   5.218   4.912  0.1796  1.3096  2.6565
  110OSM   H10T11289   5.451   5.146   4.801  0.0190  0.5498  0.6727
  110OSM   C11S11290   5.474   5.361   4.855  0.4523  0.3156  0.1077
  110OSM   H11S11291   5.568   5.364   4.796  1.3305 -1.7426  1.2876
  110OSM   H11T11292   5.499   5.417   4.947  1.7560 -1.5959  1.0031
  110OSM   C12S11293   5.373   5.436   4.769  0.0949  0.3943 -0.1433
  110OSM   H12S11294   5.405   5.542   4.760  0.3849  0.4388  1.1843
  110OSM   H12T11295   5.290   5.457   4.840  0.1981 -1.5117  0.5972
  110OSM   C13S11296   5.325   5.370   4.636 -0.4364 -0.2693 -0.9390
  110OSM   H13S11297   5.231   5.422   4.608  0.7314  1.2007 -2.3308
  110OSM   H13T11298   5.297   5.266   4.660  0.9406 -0.4935 -0.1555
  110OSM   C14S11299   5.429   5.381   4.526  0.8066 -0.0393 -0.5802
  110OSM   H14S11300   5.526   5.334   4.553  0.2548  0.1419  1.9781
  110OSM   H14T11301   5.447   5.489   4.506 -0.6945 -0.0911 -2.4972
  110OSM   C15S11302   5.385   5.320   4.402  0.0590 -0.8727 -0.3148
  110OSM   H15S11303   5.298   5.376   4.362  0.9622  0.6372 -0.2667
  110OSM   H15T11304   5.362   5.213   4.421  0.7793 -1.2062 -1.2698
  110OSM   C16S11305   5.483   5.317   4.285  0.9627  0.4469 -0.1294
  110OSM   H16S11306   5.438   5.259   4.202  1.0203  0.2216 -0.0049
  110OSM   H16T11307   5.575   5.268   4.324  0.3106 -0.8659 -0.1580
  110OSM   C17S11308   5.520   5.461   4.231  0.6763  0.7146  0.3661
  110OSM   H17S11309   5.566   5.517   4.316  1.4399  1.9898 -0.8416
  110OSM   H17T11310   5.421   5.502   4.202 -0.7373 -0.5835  2.9694
  110OSM   C18S11311   5.618   5.453   4.119 -0.2333 -0.5167 -0.5011
  110OSM   H18S11312   5.653   5.553   4.087  2.6066 -0.5888  1.8971
  110OSM   H18T11313   5.575   5.403   4.029 -3.4877 -1.3428  1.3729
  110OSM   H18U11314   5.713   5.409   4.158 -0.4895  1.8236  3.2596
  110OSM    C1F11315   5.320   4.643   5.374  0.4054 -0.0778  0.5365
  110OSM     OF11316   5.251   4.558   5.432  0.4014  0.6965  0.3940
  110OSM    C2F11317   5.343   4.629   5.227 -0.4506 -0.3509  0.4454
  110OSM    H2F11318   5.250   4.659   5.175 -0.7076  2.9124  2.4538
  110OSM    H2G11319   5.372   4.525   5.201 -0.8720 -0.7812  1.6406
  110OSM    C3F11320   5.455   4.716   5.172 -0.2546 -0.4095  0.2500
  110OSM    H3F11321   5.549   4.675   5.215 -0.3565 -1.3204 -0.3819
  110OSM    H3G11322   5.456   4.826   5.190  1.7020 -0.3117 -0.2064
  110OSM    C4F11323   5.459   4.688   5.022 -0.5474 -0.3055  0.0585
  110OSM    H4F11324   5.362   4.704   4.969 -0.8495 -2.1320  0.0116
  110OSM    H4G11325   5.483   4.580   5.011  1.9453  0.3508 -1.8048
  110OSM    C5F11326   5.575   4.758   4.941 -0.5395 -0.0028 -0.0332
  110OSM    H5F11327   5.668   4.735   4.996  0.2815  0.9423 -0.9923
  110OSM    H5G11328   5.563   4.869   4.941 -0.7671 -0.0155 -1.1140
  110OSM    C6F11329   5.590   4.702   4.798 -0.5638  0.0634 -0.0597
  110OSM    H6F11330   5.496   4.717   4.741 -0.7839 -1.1718 -0.0399
  110OSM    H6G11331   5.619   4.595   4.794 -1.2312 -0.0923 -1.0971
  110OSM    C7F11332   5.705   4.773   4.732 -0.3046  1.2355  0.4919
  110OSM    H7F11333   5.802   4.741   4.777 -0.4090 -0.4751 -0.4118
  110OSM    H7G11334   5.709   4.883   4.747 -2.6012  1.0560  3.3149
  110OSM    C8F11335   5.715   4.740   4.574  0.4860  0.0768 -0.7766
  110OSM    H8F11336   5.676   4.641   4.544 -1.1111  0.2969  0.4318
  110OSM    H8G11337   5.823   4.741   4.547  0.9094 -4.4939  0.0569
  110OSM    C9F11338   5.627   4.844   4.505  0.3552  0.0353  0.0779
  110OSM    H9F11339   5.530   4.878   4.544 -0.9550  3.4467 -5.0821
  110OSM   C10F11340   5.650   4.892   4.383 -0.3392 -0.4288 -0.2051
  110OSM   H10F11341   5.575   4.963   4.345  0.5859  0.2331 -0.8470
  110OSM   C11F11342   5.751   4.849   4.282  0.7886  0.8200 -0.3718
  110OSM   H11F11343   5.693   4.808   4.196  0.2678  1.9143 -0.5589
  110OSM   H11G11344   5.822   4.768   4.311  0.1803  0.4957  0.2555
  110OSM   C12F11345   5.848   4.956   4.232 -1.2017  0.0901 -0.1070
  110OSM   H12F11346   5.923   4.892   4.181 -1.1673 -1.0082  1.2553
  110OSM   H12G11347   5.906   5.006   4.313 -1.1294  2.5195 -1.5551
  110OSM   C13F11348   5.788   5.057   4.137  0.6952 -0.1030 -0.5233
  110OSM   H13F11349   5.724   5.119   4.205  1.3258 -0.6474  0.5957
  110OSM   H13G11350   5.723   5.002   4.066  0.0416  1.8568 -1.5149
  110OSM   C14F11351   5.882   5.148   4.050 -0.6797  0.3758  0.2646
  110OSM   H14F11352   5.819   5.210   3.983 -0.3336 -0.2441 -0.6588
  110OSM   H14G11353   5.941   5.071   3.995  0.2545  1.2369  0.0240
  110OSM   C15F11354   5.981   5.233   4.127  0.3958  0.0645  0.2924
  110OSM   H15F11355   6.051   5.169   4.185 -0.0579 -0.4962  0.2150
  110OSM   H15G11356   5.921   5.290   4.202  1.3218 -0.6360  1.6043
  110OSM   C16F11357   6.060   5.321   4.034  0.2477 -0.3513  0.8207
  110OSM   H16F11358   5.987   5.383   3.979  0.4633 -1.5033 -0.8317
  110OSM   H16G11359   6.127   5.266   3.965 -1.8381 -1.1976 -0.6095
  110OSM   C17F11360   6.148   5.414   4.116  0.8760 -0.4507  0.2129
  110OSM   H17F11361   6.213   5.360   4.189  0.7652  1.4504  1.7951
  110OSM   H17G11362   6.083   5.483   4.175 -0.2077  0.1690 -1.6097
  110OSM   C18F11363   6.237   5.505   4.028 -0.4848  0.3048  0.1376
  110OSM   H18F11364   6.182   5.585   3.974  0.9279 -0.3829 -2.5401
  110OSM   H18G11365   6.282   5.437   3.953  0.1403  0.5128  0.3151
  110OSM   H18H11366   6.312   5.553   4.094  1.0116  0.5203 -1.6483
  111OSM      N11367   1.114   4.495   6.474  0.2625  0.7918  0.4112
  111OSM    C1511368   1.060   4.464   6.339 -0.2842 -0.4849 -0.2146
  111OSM   H15A11369   1.007   4.543   6.288 -1.7539 -1.3960 -0.1641
  111OSM   H15B11370   0.979   4.394   6.353 -1.3110  0.8440  0.8016
  111OSM   H15C11371   1.138   4.424   6.276 -0.0080  0.3687 -0.4246
  111OSM    C1411372   1.199   4.620   6.459 -0.1954 -0.7207  0.3298
  111OSM   H14A11373   1.296   4.598   6.415  0.4011  0.5159  0.9954
  111OSM   H14B11374   1.220   4.657   6.558  0.4643  1.6226 -0.6272
  111OSM   H14C11375   1.148   4.691   6.396  0.2894 -1.2995 -0.7446
  111OSM    C1311376   1.000   4.530   6.568 -0.0293 -0.5019 -0.2850
  111OSM   H13A11377   0.951   4.620   6.535 -2.1203 -0.9467  1.3985
  111OSM   H13B11378   1.033   4.548   6.669 -0.5687  1.4742 -0.4257
  111OSM   H13C11379   0.925   4.453   6.572 -0.1612 -0.3163  2.6139
  111OSM    C1211380   1.192   4.390   6.536 -0.2737 -0.1419 -0.0381
  111OSM   H12A11381   1.134   4.304   6.567  0.5956 -0.1034  1.8441
  111OSM   H12B11382   1.240   4.423   6.627 -0.1753 -0.3399 -0.0164
  111OSM    C1111383   1.303   4.324   6.448  0.3820 -0.4267 -0.2178
  111OSM   H11A11384   1.258   4.261   6.368  1.7104 -0.3180 -1.0883
  111OSM   H11B11385   1.340   4.252   6.524 -0.5070  1.2237  1.8980
  111OSM      P11386   1.479   4.407   6.270  0.2631  0.8322  0.1348
  111OSM    O1311387   1.578   4.517   6.262  0.0604 -1.3621  0.0786
  111OSM    O1411388   1.525   4.266   6.268 -0.3267  0.2166 -0.2058
  111OSM    O1111389   1.367   4.424   6.156  0.6395  0.3279 -0.2325
  111OSM    O1211390   1.402   4.419   6.400  0.6967 -0.6258  0.0605
  111OSM    C1S11391   1.314   4.550   6.127 -0.1359  0.1531  0.2218
  111OSM    H1S11392   1.393   4.627   6.125 -1.2929  1.4162  0.8671
  111OSM    H1T11393   1.231   4.585   6.193 -0.8111 -1.6018  0.3669
  111OSM     NF11394   1.227   4.706   5.961 -0.4733  0.5359 -0.5343
  111OSM    HNF11395   1.137   4.741   5.983 -0.3040  1.0036 -0.5774
  111OSM    C2S11396   1.257   4.566   5.987  0.1608 -0.7115 -0.2976
  111OSM    H2S11397   1.335   4.531   5.916  1.5767  0.6794  0.4910
  111OSM    C3S11398   1.135   4.476   5.968  0.5806  0.6509  0.2431
  111OSM    H3S11399   1.071   4.507   6.053 -0.6672 -0.1210 -0.3907
  111OSM     O311400   1.156   4.339   6.000  0.5373  0.5462  0.1272
  111OSM    HO311401   1.221   4.343   6.071 -0.1933  3.1724  0.7849
  111OSM    C4S11402   1.067   4.493   5.835 -0.8477 -1.1383  0.3960
  111OSM    H4S11403   1.114   4.426   5.761  0.4475 -1.2163  1.2525
  111OSM    C5S11404   0.951   4.554   5.811 -0.4122 -0.4144  0.1858
  111OSM    H5S11405   0.900   4.612   5.889  0.9957  0.0748  0.7668
  111OSM    C6S11406   0.881   4.547   5.678  0.6724 -0.2272  0.4406
  111OSM    H6S11407   0.780   4.587   5.701  0.9151  0.4160  0.4026
  111OSM    H6T11408   0.869   4.439   5.655 -1.7286  0.2487 -0.8372
  111OSM    C7S11409   0.952   4.623   5.564 -0.0577  0.1889  0.0695
  111OSM    H7S11410   1.049   4.576   5.538  1.0690  1.0478  2.4377
  111OSM    H7T11411   0.971   4.729   5.593  0.9386 -0.7761  3.4909
  111OSM    C8S11412   0.855   4.614   5.445  0.1426  0.2377  0.4366
  111OSM    H8S11413   0.768   4.678   5.470  1.2216  1.8741  0.1452
  111OSM    H8T11414   0.804   4.515   5.433  0.4140  0.0982  0.4310
  111OSM    C9S11415   0.923   4.639   5.310  0.4469 -0.7976  0.6842
  111OSM    H9S11416   1.000   4.561   5.295  1.5805  0.2296  1.0600
  111OSM    H9T11417   0.979   4.734   5.308  1.6145 -1.4633  1.0308
  111OSM   C10S11418   0.832   4.629   5.189  0.1585  0.8656 -0.1322
  111OSM   H10S11419   0.781   4.531   5.183 -2.9236  2.3773 -0.5407
  111OSM   H10T11420   0.888   4.646   5.095 -1.7881 -0.3715 -1.6014
  111OSM   C11S11421   0.717   4.733   5.200  0.1929  1.2452 -0.3839
  111OSM   H11S11422   0.753   4.821   5.258 -2.3809  2.4469 -0.4522
  111OSM   H11T11423   0.624   4.691   5.245 -1.8470  3.3128 -2.3245
  111OSM   C12S11424   0.672   4.795   5.071 -0.3866  0.0881 -0.1640
  111OSM   H12S11425   0.633   4.723   4.996  0.0822  0.4342 -0.7508
  111OSM   H12T11426   0.756   4.857   5.032 -0.5374  1.2281  1.2560
  111OSM   C13S11427   0.567   4.904   5.101  0.3362  0.2029 -0.4706
  111OSM   H13S11428   0.601   4.938   5.201 -1.6592  0.8213  0.0332
  111OSM   H13T11429   0.466   4.858   5.108  0.8940 -1.0417 -0.1759
  111OSM   C14S11430   0.580   5.010   5.006 -0.3965 -0.4951  0.4060
  111OSM   H14S11431   0.676   5.065   5.008 -1.3341  1.2028 -0.0114
  111OSM   H14T11432   0.504   5.089   5.020  2.6562  2.6945  0.3541
  111OSM   C15S11433   0.564   4.968   4.855 -0.2218 -0.2087  0.6452
  111OSM   H15S11434   0.465   4.922   4.835 -1.3509  2.3509 -0.0519
  111OSM   H15T11435   0.642   4.892   4.833 -0.3603  0.0186 -0.7195
  111OSM   C16S11436   0.576   5.067   4.742 -0.2251 -0.8032  0.3669
  111OSM   H16S11437   0.648   5.149   4.764 -0.5709 -0.1626 -0.8113
  111OSM   H16T11438   0.478   5.116   4.728  0.0816 -0.5900 -1.2262
  111OSM   C17S11439   0.604   5.002   4.605  0.0119 -0.2450  0.1163
  111OSM   H17S11440   0.567   5.068   4.524  0.3811 -0.8626 -0.5748
  111OSM   H17T11441   0.539   4.916   4.578 -0.2812  0.6627 -2.3259
  111OSM   C18S11442   0.751   4.994   4.579 -0.5854 -0.3507 -0.7588
  111OSM   H18S11443   0.794   4.904   4.531  1.6778 -0.5954  1.5334
  111OSM   H18T11444   0.808   5.008   4.673  0.1256 -0.3042 -1.1878
  111OSM   H18U11445   0.785   5.083   4.521  0.5775 -2.2221 -3.1481
  111OSM    C1F11446   1.323   4.800   5.942 -0.0506  0.4781 -0.8157
  111OSM     OF11447   1.440   4.763   5.944  0.2961 -0.0639  0.3262
  111OSM    C2F11448   1.278   4.943   5.928  0.9691  0.5768 -0.6896
  111OSM    H2F11449   1.274   4.993   6.027  0.5307  0.8180 -0.8267
  111OSM    H2G11450   1.177   4.929   5.886  1.3028 -1.5854 -0.8855
  111OSM    C3F11451   1.372   5.036   5.852  0.2168 -0.1973  0.1144
  111OSM    H3F11452   1.472   5.028   5.901  0.5261  2.4193  0.0736
  111OSM    H3G11453   1.340   5.141   5.867 -0.8972 -0.2509 -1.6507
  111OSM    C4F11454   1.403   5.002   5.705 -0.1701  0.1081 -0.5596
  111OSM    H4F11455   1.480   4.922   5.705  0.6704  0.8982 -0.1399
  111OSM    H4G11456   1.433   5.093   5.649 -1.1242  1.1745  0.6096
  111OSM    C5F11457   1.282   4.937   5.634 -0.9200 -0.1225 -0.2391
  111OSM    H5F11458   1.199   5.010   5.623 -1.4566 -0.2375  2.4655
  111OSM    H5G11459   1.243   4.852   5.694 -1.9560 -0.2644 -1.0721
  111OSM    C6F11460   1.328   4.893   5.492  1.1387  0.0850  0.0688
  111OSM    H6F11461   1.423   4.835   5.496  1.4725  0.5365 -1.0307
  111OSM    H6G11462   1.351   4.979   5.425 -1.0740 -1.7098 -3.2701
  111OSM    C7F11463   1.217   4.822   5.414 -0.3443  0.2704  0.6988
  111OSM    H7F11464   1.133   4.894   5.407 -0.1241  0.3622 -1.9582
  111OSM    H7G11465   1.182   4.726   5.459  0.3383 -2.5518 -4.1381
  111OSM    C8F11466   1.270   4.783   5.272  0.4738  0.2343 -0.1304
  111OSM    H8F11467   1.214   4.692   5.239 -1.6210  1.1224  0.7768
  111OSM    H8G11468   1.377   4.754   5.277 -0.3783 -3.7925 -1.0013
  111OSM    C9F11469   1.260   4.893   5.174 -0.5008 -0.1311 -0.1356
  111OSM    H9F11470   1.275   4.998   5.206 -1.6941  0.7548 -2.3093
  111OSM   C10F11471   1.223   4.879   5.045 -0.5482  0.8659 -0.0909
  111OSM   H10F11472   1.216   4.976   4.994 -2.2458  1.6391  1.4657
  111OSM   C11F11473   1.183   4.763   4.964  0.5002  0.2571  0.4534
  111OSM   H11F11474   1.074   4.743   4.975  0.3628 -0.6641 -2.0286
  111OSM   H11G11475   1.226   4.666   4.995  0.5683 -1.1955 -3.5596
  111OSM   C12F11476   1.208   4.751   4.806  0.0350 -0.2424  0.1129
  111OSM   H12F11477   1.170   4.651   4.776  3.4124 -1.3807 -0.7863
  111OSM   H12G11478   1.315   4.738   4.780  0.1105  0.9036 -0.2235
  111OSM   C13F11479   1.142   4.861   4.730  0.3062  1.1863 -0.0423
  111OSM   H13F11480   1.178   4.951   4.784 -0.5325  0.3364  2.0538
  111OSM   H13G11481   1.031   4.860   4.739  0.1911 -0.0371 -1.2401
  111OSM   C14F11482   1.191   4.853   4.578  0.7536 -0.5349 -0.1239
  111OSM   H14F11483   1.296   4.819   4.560  1.4859  2.5965 -2.6217
  111OSM   H14G11484   1.194   4.956   4.536  3.3739 -1.0998 -1.5651
  111OSM   C15F11485   1.102   4.756   4.499  0.4207 -0.0933  0.0917
  111OSM   H15F11486   0.995   4.767   4.527  0.2166 -0.3563 -0.5655
  111OSM   H15G11487   1.125   4.649   4.521  0.1975 -0.0932  0.3234
  111OSM   C16F11488   1.120   4.776   4.349 -0.5390 -0.4073 -0.3180
  111OSM   H16F11489   1.060   4.698   4.298  0.1340  0.0539 -1.8783
  111OSM   H16G11490   1.224   4.746   4.325  0.9515  2.8590  1.3975
  111OSM   C17F11491   1.091   4.910   4.290  0.2576 -0.4439  0.0229
  111OSM   H17F11492   1.160   4.988   4.329  0.9671  0.1811 -2.3282
  111OSM   H17G11493   0.988   4.929   4.329  0.3850  0.0898  0.1045
  111OSM   C18F11494   1.085   4.907   4.137 -0.3296  0.4326  0.1795
  111OSM   H18F11495   1.186   4.890   4.093 -0.0093 -3.2612  1.9609
  111OSM   H18G11496   1.051   4.997   4.082 -2.7400 -0.1764  0.5952
  111OSM   H18H11497   1.034   4.816   4.101  0.4692  0.6189 -1.5178
  112OSM      N11498   4.284   0.761   5.873 -0.8774 -0.3191 -0.1344
  112OSM    C1511499   4.371   0.810   5.756 -0.2675  0.3915  0.1681
  112OSM   H15A11500   4.316   0.788   5.666  0.2410  2.1378 -0.5999
  112OSM   H15B11501   4.472   0.772   5.745  0.3563  1.7355  0.9958
  112OSM   H15C11502   4.398   0.914   5.763 -0.5108  0.6306 -1.8895
  112OSM    C1411503   4.177   0.857   5.897 -0.4078  0.0520 -0.7523
  112OSM   H14A11504   4.212   0.955   5.925  1.4947  0.2497 -3.4321
  112OSM   H14B11505   4.107   0.824   5.973 -0.1364  0.8136 -0.1504
  112OSM   H14C11506   4.122   0.864   5.804  0.5287  1.7116 -1.2160
  112OSM    C1311507   4.229   0.631   5.831  0.5548  0.6100  0.9812
  112OSM   H13A11508   4.309   0.562   5.809  0.3764  0.9436 -0.9185
  112OSM   H13B11509   4.169   0.652   5.744 -0.9373  0.7829  2.0264
  112OSM   H13C11510   4.157   0.598   5.904 -0.3159 -2.9573 -1.2318
  112OSM    C1211511   4.367   0.744   5.998  0.0468  0.1410 -1.1727
  112OSM   H12A11512   4.438   0.665   5.977  1.5669  0.6664  1.5345
  112OSM   H12B11513   4.301   0.700   6.072  0.8545 -1.0939 -1.1542
  112OSM    C1111514   4.439   0.871   6.054  0.1439  0.2124 -0.1763
  112OSM   H11A11515   4.465   0.847   6.159 -2.4396  2.7669  1.2003
  112OSM   H11B11516   4.353   0.942   6.053 -0.3937 -0.4008  0.7054
  112OSM      P11517   4.572   1.038   5.913  0.2995 -0.0807 -0.1716
  112OSM    O1311518   4.451   1.114   5.922 -0.2566 -0.0247  0.2888
  112OSM    O1411519   4.698   1.106   5.952  0.1873  0.0492 -0.1873
  112OSM    O1111520   4.582   1.013   5.756  0.2289 -0.2472  0.2606
  112OSM    O1211521   4.553   0.898   5.973  0.5229  0.3570  0.1978
  112OSM    C1S11522   4.689   0.921   5.713  0.3313 -0.3644 -0.1340
  112OSM    H1S11523   4.655   0.818   5.735 -1.0741  0.5269  2.2371
  112OSM    H1T11524   4.788   0.933   5.762  0.1343  0.1791  0.1324
  112OSM     NF11525   4.840   0.842   5.527 -0.0705  0.2653 -0.2121
  112OSM    HNF11526   4.925   0.893   5.527 -1.0855  2.0276 -0.7533
  112OSM    C2S11527   4.724   0.926   5.561 -0.3395 -0.1767  0.5586
  112OSM    H2S11528   4.641   0.881   5.503  0.8371  0.0654 -1.4348
  112OSM    C3S11529   4.750   1.069   5.504 -0.2512 -0.3268  0.6886
  112OSM    H3S11530   4.839   1.111   5.556  1.5587 -2.7185 -0.2883
  112OSM     O311531   4.653   1.170   5.537  0.9541 -0.1192  0.1242
  112OSM    HO311532   4.604   1.120   5.603  1.9652 -1.0139  0.2357
  112OSM    C4S11533   4.769   1.067   5.353 -0.2022  0.0168 -0.5621
  112OSM    H4S11534   4.874   1.047   5.328  0.6249  2.5078  0.6467
  112OSM    C5S11535   4.670   1.055   5.264  0.1489 -0.2382  0.1435
  112OSM    H5S11536   4.568   1.057   5.304 -0.1549  1.7361 -0.6345
  112OSM    C6S11537   4.669   1.019   5.120 -0.6853  0.3455  0.1596
  112OSM    H6S11538   4.627   1.103   5.062  1.2541  1.2359 -0.0082
  112OSM    H6T11539   4.615   0.924   5.097  1.3143 -0.6592 -0.5945
  112OSM    C7S11540   4.807   0.993   5.063  0.1650  0.3474 -0.1355
  112OSM    H7S11541   4.858   0.904   5.107  0.9971  1.8962  2.2166
  112OSM    H7T11542   4.871   1.083   5.072  1.8371 -0.7667 -0.4764
  112OSM    C8S11543   4.796   0.966   4.915  0.5262  0.4931  0.8439
  112OSM    H8S11544   4.735   1.038   4.855 -3.4825 -1.4253  2.2166
  112OSM    H8T11545   4.761   0.861   4.904  1.5560  0.1158  1.0889
  112OSM    C9S11546   4.932   0.964   4.836  0.2396  0.4890 -0.2971
  112OSM    H9S11547   4.976   0.871   4.879  0.9143  0.8182 -0.2718
  112OSM    H9T11548   4.985   1.058   4.863 -0.2749  0.0118  2.7622
  112OSM   C10S11549   4.916   0.938   4.685  0.2722 -0.1051  0.0284
  112OSM   H10S11550   4.884   0.833   4.670  0.4531 -0.1640  0.0447
  112OSM   H10T11551   5.016   0.947   4.635 -0.4082  0.5577 -1.2659
  112OSM   C11S11552   4.817   1.034   4.615 -0.3855 -0.9403  0.7155
  112OSM   H11S11553   4.828   1.134   4.663  1.2026  1.2955 -3.7047
  112OSM   H11T11554   4.710   1.009   4.630 -1.2783  2.5848  1.0805
  112OSM   C12S11555   4.851   1.056   4.465 -0.4279  0.5243 -0.8038
  112OSM   H12S11556   4.758   1.034   4.407 -0.3539  1.8726 -1.4758
  112OSM   H12T11557   4.923   0.980   4.427 -0.5120  1.0449 -2.0700
  112OSM   C13S11558   4.920   1.187   4.454  0.6470  1.0880 -0.0538
  112OSM   H13S11559   4.994   1.194   4.537  1.3173 -0.8234 -0.4380
  112OSM   H13T11560   4.847   1.270   4.464 -1.0512 -0.4784  1.2803
  112OSM   C14S11561   4.978   1.206   4.313 -0.2070  0.4203  0.0263
  112OSM   H14S11562   4.910   1.177   4.230  0.5273 -1.7348  0.1094
  112OSM   H14T11563   5.061   1.132   4.310  0.1466  0.7696  0.7698
  112OSM   C15S11564   5.034   1.353   4.294  0.0614  0.4263  0.2985
  112OSM   H15S11565   5.135   1.362   4.339  1.5805  0.1075 -2.7842
  112OSM   H15T11566   4.962   1.419   4.347  1.4212  1.3985  0.9849
  112OSM   C16S11567   5.038   1.398   4.144  0.0002 -0.4234  0.3531
  112OSM   H16S11568   5.059   1.315   4.074  0.1995 -1.6571  1.8294
  112OSM   H16T11569   5.120   1.472   4.130  0.7283 -1.3876 -0.6214
  112OSM   C17S11570   4.909   1.473   4.111 -0.0142  0.0621  0.5512
  112OSM   H17S11571   4.898   1.563   4.176 -0.2578 -0.3701  1.1168
  112OSM   H17T11572   4.814   1.418   4.125 -0.4686  1.0432  1.4451
  112OSM   C18S11573   4.897   1.514   3.963 -0.0602 -0.6364  0.3340
  112OSM   H18S11574   4.816   1.588   3.948 -1.2633 -1.7116  1.2870
  112OSM   H18T11575   4.871   1.424   3.903 -2.1258 -1.2320  2.0120
  112OSM   H18U11576   4.994   1.553   3.925 -0.7755  0.8935  0.0140
  112OSM    C1F11577   4.832   0.711   5.514  0.1143 -0.1448 -0.2040
  112OSM     OF11578   4.724   0.659   5.505 -0.3607  0.4482 -0.4027
  112OSM    C2F11579   4.957   0.638   5.520 -0.3833  0.3889  0.5072
  112OSM    H2F11580   4.972   0.569   5.605  1.9608  0.2997  0.1117
  112OSM    H2G11581   5.047   0.702   5.530  1.9798 -2.9016  2.3135
  112OSM    C3F11582   4.967   0.539   5.408  0.3242  0.0737  0.0515
  112OSM    H3F11583   4.911   0.445   5.428  0.7587 -0.2788 -0.3608
  112OSM    H3G11584   5.073   0.506   5.418  0.7444  1.2808 -0.2968
  112OSM    C4F11585   4.919   0.588   5.272 -1.4984 -0.5675  0.0585
  112OSM    H4F11586   4.975   0.681   5.253  1.4480 -1.8073  1.9301
  112OSM    H4G11587   4.814   0.624   5.275 -1.0943  0.7734 -1.0370
  112OSM    C5F11588   4.959   0.488   5.151 -0.1001 -1.1871  0.5340
  112OSM    H5F11589   4.910   0.390   5.162 -0.2200 -1.3791 -1.3039
  112OSM    H5G11590   5.069   0.479   5.167  0.3037  1.5046 -0.1391
  112OSM    C6F11591   4.925   0.548   5.015  0.0088  0.2156 -0.1238
  112OSM    H6F11592   4.967   0.648   4.995 -2.9887  1.3862 -1.0710
  112OSM    H6G11593   4.816   0.566   5.008  0.2016  2.4880  1.5934
  112OSM    C7F11594   4.970   0.465   4.890  0.5694  0.4146 -0.0488
  112OSM    H7F11595   4.937   0.359   4.893  1.0836  0.1884 -1.4740
  112OSM    H7G11596   5.081   0.463   4.898  0.5476 -1.4775  0.2550
  112OSM    C8F11597   4.924   0.528   4.763  1.3979 -0.0270  0.4030
  112OSM    H8F11598   4.980   0.623   4.748  0.2160  0.3841 -1.7331
  112OSM    H8G11599   4.819   0.558   4.780  1.6787  1.0223  0.3810
  112OSM    C9F11600   4.945   0.437   4.646 -0.4028 -0.0815 -0.9128
  112OSM    H9F11601   4.888   0.344   4.657 -2.2423  1.0969 -0.0466
  112OSM   C10F11602   5.022   0.464   4.542 -0.1217 -0.1252  0.3898
  112OSM   H10F11603   5.033   0.385   4.466  1.2364 -0.1584  0.6020
  112OSM   C11F11604   5.096   0.595   4.515 -0.7217  0.0413 -0.0873
  112OSM   H11F11605   5.184   0.602   4.583  0.5381 -1.1820 -1.5138
  112OSM   H11G11606   5.036   0.686   4.535 -1.1659  0.3224 -2.3865
  112OSM   C12F11607   5.153   0.604   4.368  0.0864  0.3970  0.8279
  112OSM   H12F11608   5.202   0.508   4.342  1.2722  0.9979  0.7776
  112OSM   H12G11609   5.235   0.679   4.361  0.7272 -0.3579 -0.0351
  112OSM   C13F11610   5.064   0.634   4.250 -0.1997 -0.0470 -0.4030
  112OSM   H13F11611   4.988   0.557   4.225  0.6153 -0.5695 -1.3337
  112OSM   H13G11612   5.139   0.629   4.168  0.0413 -0.7767 -0.1391
  112OSM   C14F11613   4.997   0.772   4.249  0.1187  0.0299 -0.7208
  112OSM   H14F11614   5.060   0.858   4.279 -0.3589  0.8761 -2.0272
  112OSM   H14G11615   4.926   0.759   4.333  2.3098  1.5003  1.4766
  112OSM   C15F11616   4.916   0.803   4.125 -0.7876  0.2547 -0.3027
  112OSM   H15F11617   4.829   0.855   4.171 -2.7376 -1.5766 -1.7182
  112OSM   H15G11618   4.883   0.703   4.089  0.6582 -1.7272  3.3894
  112OSM   C16F11619   4.992   0.898   4.029  0.2777  0.1797  0.5617
  112OSM   H16F11620   5.089   0.854   4.000  0.4303  1.3539 -0.8190
  112OSM   H16G11621   5.029   0.984   4.090 -1.0120  2.0062 -1.0786
  112OSM   C17F11622   4.915   0.949   3.914  0.5625  1.1226  0.3433
  112OSM   H17F11623   4.992   1.009   3.861  1.9778 -0.3227  0.6949
  112OSM   H17G11624   4.840   1.022   3.953  1.3043  1.9763  0.2166
  112OSM   C18F11625   4.857   0.843   3.813  0.1635  0.1600  0.0280
  112OSM   H18F11626   4.818   0.901   3.727  1.3707  1.1889  0.1517
  112OSM   H18G11627   4.774   0.780   3.853 -0.1366  0.2403 -0.4632
  112OSM   H18H11628   4.938   0.775   3.780  2.5253  2.3068  1.0400
  113OSM      N11629   0.439   2.810   5.869  0.1289 -0.1472 -0.3115
  113OSM    C1511630   0.580   2.788   5.823  0.1626 -0.0850 -0.7865
  113OSM   H15A11631   0.643   2.776   5.910 -1.1511  1.9822  0.5478
  113OSM   H15B11632   0.614   2.877   5.773 -0.4502  0.4555 -0.2591
  113OSM   H15C11633   0.576   2.696   5.767  0.5569 -0.7692  0.2800
  113OSM    C1411634   0.344   2.836   5.751  0.1463 -0.4687 -0.3938
  113OSM   H14A11635   0.335   2.748   5.689  1.8261 -1.6559  0.9505
  113OSM   H14B11636   0.376   2.929   5.705  0.8551  0.2523  1.4629
  113OSM   H14C11637   0.248   2.861   5.793  0.3589  0.1212 -0.2477
  113OSM    C1311638   0.393   2.679   5.916 -0.2834  0.1539  0.2865
  113OSM   H13A11639   0.289   2.692   5.942 -0.1761  0.9537  0.3596
  113OSM   H13B11640   0.438   2.632   6.002 -0.1951 -1.8624 -0.8036
  113OSM   H13C11641   0.391   2.609   5.834  5.5715  0.5232 -0.6318
  113OSM    C1211642   0.430   2.904   5.984  0.2647 -0.2483  0.0378
  113OSM   H12A11643   0.500   2.985   5.974  0.7495 -0.7179 -0.3972
  113OSM   H12B11644   0.471   2.843   6.064 -1.5659 -1.8021 -0.1236
  113OSM    C1111645   0.290   2.957   6.016  0.2195 -0.9600  0.2102
  113OSM   H11A11646   0.279   2.993   6.121 -2.3383 -1.9672  0.3715
  113OSM   H11B11647   0.213   2.880   5.996  1.8331 -2.3910 -0.6941
  113OSM      P11648   0.332   3.201   5.946 -0.0278 -0.0379 -0.0440
  113OSM    O1311649   0.237   3.277   6.033 -0.1315 -0.1734  0.1618
  113OSM    O1411650   0.465   3.173   6.003 -0.4199 -0.0647 -0.5401
  113OSM    O1111651   0.344   3.253   5.794 -0.9722  0.2084  0.6355
  113OSM    O1211652   0.263   3.063   5.929 -0.3515 -0.2753  0.7747
  113OSM    C1S11653   0.447   3.218   5.704 -0.1402 -0.0993 -0.1116
  113OSM    H1S11654   0.444   3.108   5.690 -1.0702 -0.4159  2.1759
  113OSM    H1T11655   0.548   3.247   5.739 -0.2477 -1.2380  1.2342
  113OSM     NF11656   0.502   3.212   5.469 -0.0520  0.1643 -0.0355
  113OSM    HNF11657   0.584   3.262   5.441 -1.3124  2.3314 -0.0426
  113OSM    C2S11658   0.426   3.281   5.572  0.6460 -0.6350 -0.1114
  113OSM    H2S11659   0.321   3.267   5.538  0.2431 -1.6147  1.4707
  113OSM    C3S11660   0.431   3.436   5.574 -0.2025 -0.0217 -0.3202
  113OSM    H3S11661   0.525   3.465   5.625 -0.9994  1.2825  0.4520
  113OSM     O311662   0.334   3.497   5.660 -0.0784 -0.6344 -0.4157
  113OSM    HO311663   0.278   3.427   5.695 -0.5039 -1.8931 -3.3727
  113OSM    C4S11664   0.429   3.496   5.439 -0.0701  0.0383 -0.7308
  113OSM    H4S11665   0.335   3.482   5.384 -2.4288 -1.8379  3.2896
  113OSM    C5S11666   0.542   3.533   5.373 -0.3129 -0.2159 -0.0195
  113OSM    H5S11667   0.636   3.533   5.431 -0.6677  0.6734  0.5876
  113OSM    C6S11668   0.559   3.582   5.227 -0.1544 -0.0393 -0.0027
  113OSM    H6S11669   0.633   3.665   5.223  0.9829 -1.0165  0.1218
  113OSM    H6T11670   0.463   3.620   5.186  0.2390 -0.0991 -1.0092
  113OSM    C7S11671   0.605   3.480   5.125  0.1364  0.1726 -0.6950
  113OSM    H7S11672   0.523   3.406   5.108  1.1700 -0.7242 -2.0390
  113OSM    H7T11673   0.687   3.421   5.171 -1.1600 -0.1382  1.3177
  113OSM    C8S11674   0.655   3.540   4.989  0.8976 -0.1277 -0.2197
  113OSM    H8S11675   0.585   3.602   4.930 -0.3467 -0.4436  0.8619
  113OSM    H8T11676   0.683   3.449   4.932  0.7426 -0.3010 -0.0227
  113OSM    C9S11677   0.793   3.613   4.997 -1.4304 -0.5288  0.8697
  113OSM    H9S11678   0.870   3.539   5.030  0.3137  1.1946  0.8338
  113OSM    H9T11679   0.783   3.696   5.069 -0.6943  1.7043 -1.4326
  113OSM   C10S11680   0.836   3.695   4.871  0.5534  0.1768  0.0439
  113OSM   H10S11681   0.937   3.738   4.889  1.8541 -3.5383  2.8188
  113OSM   H10T11682   0.762   3.776   4.854 -1.6945 -1.0019  3.2981
  113OSM   C11S11683   0.856   3.606   4.743  0.6588 -0.2025 -0.1672
  113OSM   H11S11684   0.757   3.576   4.702  1.0553 -0.5128 -0.9298
  113OSM   H11T11685   0.905   3.511   4.770 -2.3189 -1.2029  2.2732
  113OSM   C12S11686   0.919   3.695   4.639  0.6623 -0.2206 -0.4715
  113OSM   H12S11687   1.027   3.719   4.655  0.7313 -0.1196 -1.0545
  113OSM   H12T11688   0.863   3.790   4.652 -1.2809 -1.5357  1.2891
  113OSM   C13S11689   0.908   3.637   4.497  0.2816  0.3185  0.3903
  113OSM   H13S11690   0.806   3.595   4.486 -0.8036  2.0742  2.7196
  113OSM   H13T11691   0.983   3.556   4.485  0.7103  0.2069  3.1150
  113OSM   C14S11692   0.941   3.734   4.387  0.0271  0.0185  0.9312
  113OSM   H14S11693   1.018   3.802   4.428  0.1755 -1.1735  2.7171
  113OSM   H14T11694   0.855   3.798   4.358 -0.0114 -1.0359 -1.4868
  113OSM   C15S11695   0.993   3.650   4.266  0.1632 -0.0557  0.7347
  113OSM   H15S11696   0.927   3.564   4.244 -0.8832  0.9374 -0.1400
  113OSM   H15T11697   1.097   3.613   4.279  0.0148 -1.4656 -1.6900
  113OSM   C16S11698   0.994   3.733   4.135 -0.4060  0.1538 -0.3764
  113OSM   H16S11699   0.885   3.751   4.124 -0.7125 -1.8606 -1.1559
  113OSM   H16T11700   1.025   3.668   4.050  0.0687  1.5594 -1.3156
  113OSM   C17S11701   1.052   3.873   4.140 -0.2695  0.1177 -0.2237
  113OSM   H17S11702   1.149   3.848   4.188  0.4031  0.3675 -1.4130
  113OSM   H17T11703   0.995   3.946   4.203 -0.7599  0.3151 -0.8898
  113OSM   C18S11704   1.068   3.945   4.007 -0.0023  0.4990  0.4688
  113OSM   H18S11705   1.118   4.043   4.026 -0.3447  0.8996 -0.5962
  113OSM   H18T11706   0.968   3.977   3.970 -0.1699 -0.0577  0.4378
  113OSM   H18U11707   1.129   3.881   3.939 -0.6744 -0.9767  1.2050
  113OSM    C1F11708   0.483   3.089   5.423  0.9703 -0.0820 -0.4126
  113OSM     OF11709   0.384   3.023   5.463 -0.4777  0.7909  0.5193
  113OSM    C2F11710   0.593   3.042   5.329  0.4350 -0.2374 -0.8982
  113OSM    H2F11711   0.653   2.957   5.369  0.8141  0.4876  0.1031
  113OSM    H2G11712   0.665   3.124   5.309  1.1234 -0.9467 -1.4387
  113OSM    C3F11713   0.524   2.995   5.200 -0.6357  0.1201  0.0017
  113OSM    H3F11714   0.466   2.903   5.219 -1.8355  0.6034 -1.1259
  113OSM    H3G11715   0.605   2.964   5.130 -1.5609 -2.2111 -0.1232
  113OSM    C4F11716   0.450   3.106   5.122  0.1378 -0.7286  0.1291
  113OSM    H4F11717   0.528   3.183   5.104 -0.2707 -0.2316  0.4667
  113OSM    H4G11718   0.373   3.148   5.190  1.5718  0.2948  1.1751
  113OSM    C5F11719   0.394   3.062   4.986 -0.2209  0.8512 -0.2471
  113OSM    H5F11720   0.465   2.978   4.965  0.0122  0.4432  1.9311
  113OSM    H5G11721   0.399   3.146   4.914 -1.8849  3.3887  2.4019
  113OSM    C6F11722   0.251   3.015   4.998 -0.0291 -0.0178  0.0222
  113OSM    H6F11723   0.186   3.105   4.999  0.8150  0.7783 -3.6841
  113OSM    H6G11724   0.251   2.955   5.092  2.8621  1.1720  0.8838
  113OSM    C7F11725   0.195   2.923   4.888  0.2962  0.5724 -0.7806
  113OSM    H7F11726   0.094   2.898   4.926  0.9522 -0.5157  0.3152
  113OSM    H7G11727   0.251   2.827   4.893 -0.7433 -0.0371 -0.6836
  113OSM    C8F11728   0.190   2.980   4.747  0.3194 -0.2432 -0.2554
  113OSM    H8F11729   0.134   3.076   4.752 -1.7495 -1.4408  1.0867
  113OSM    H8G11730   0.127   2.918   4.680 -0.2994 -0.6230  0.6491
  113OSM    C9F11731   0.323   3.005   4.682  0.1349 -0.1886  0.1708
  113OSM    H9F11732   0.416   2.976   4.733 -0.4107 -1.0124  0.7124
  113OSM   C10F11733   0.332   3.047   4.553 -0.1520  0.7003 -0.8961
  113OSM   H10F11734   0.433   3.052   4.510 -0.7115 -1.4334 -2.6727
  113OSM   C11F11735   0.220   3.094   4.467 -0.0289  0.7421 -0.7444
  113OSM   H11F11736   0.209   3.201   4.494  0.1075  0.0317  2.6143
  113OSM   H11G11737   0.127   3.039   4.492 -0.3482  2.4879  2.5069
  113OSM   C12F11738   0.255   3.066   4.317 -0.3623  0.6033 -0.2539
  113OSM   H12F11739   0.266   2.956   4.310  3.5108  0.6976  1.7525
  113OSM   H12G11740   0.355   3.109   4.295 -1.3481  2.2492 -1.7686
  113OSM   C13F11741   0.157   3.122   4.213 -0.4231  0.1760  0.5625
  113OSM   H13F11742   0.115   3.218   4.250  1.7525  1.5030 -0.2569
  113OSM   H13G11743   0.069   3.054   4.220 -1.8846  1.6833 -1.8837
  113OSM   C14F11744   0.200   3.144   4.071 -0.2554  0.2964  0.1136
  113OSM   H14F11745   0.226   3.051   4.016  0.1118  0.8565 -0.6961
  113OSM   H14G11746   0.285   3.214   4.056  0.1413  0.0062  0.9611
  113OSM   C15F11747   0.090   3.202   3.985  0.1475 -0.6486 -0.2906
  113OSM   H15F11748   0.070   3.308   4.012  0.8413 -0.4942 -0.3702
  113OSM   H15G11749  -0.000   3.142   4.010 -0.3140 -0.5026 -1.5549
  113OSM   C16F11750   0.104   3.186   3.832 -0.4185  0.1914  1.5540
  113OSM   H16F11751   0.097   3.078   3.809 -1.7975  0.8335 -1.6716
  113OSM   H16G11752   0.209   3.215   3.809 -1.1321  2.7615  1.1573
  113OSM   C17F11753   0.011   3.276   3.757  0.7821  0.3463 -0.5921
  113OSM   H17F11754   0.014   3.382   3.790 -2.6100  0.5322 -0.4754
  113OSM   H17G11755  -0.086   3.234   3.790 -0.2306  2.6874 -0.3836
  113OSM   C18F11756   0.025   3.278   3.602  0.4962  0.8218 -0.3573
  113OSM   H18F11757   0.119   3.334   3.583  1.0135 -0.1809 -0.8310
  113OSM   H18G11758  -0.059   3.327   3.549 -1.4810 -1.3151  0.6412
  113OSM   H18H11759   0.031   3.174   3.565 -0.3403  0.7551 -0.3225
  114OSM      N11760   6.380   2.736   5.924 -0.0474  1.0122  0.4094
  114OSM    C1511761   6.442   2.767   6.051 -0.4783 -0.2286 -0.7307
  114OSM   H15A11762   6.549   2.755   6.059 -0.8260 -3.4666  0.0901
  114OSM   H15B11763   6.391   2.705   6.122 -0.8230  0.5738 -0.2560
  114OSM   H15C11764   6.429   2.871   6.080  0.4112 -0.8911  2.3449
  114OSM    C1411765   6.238   2.758   5.957  0.0625 -0.7763 -0.7791
  114OSM   H14A11766   6.174   2.765   5.870 -0.8562 -3.1482 -0.3952
  114OSM   H14B11767   6.217   2.856   5.997 -1.6731 -1.3675 -0.1441
  114OSM   H14C11768   6.197   2.680   6.020 -0.2928 -0.3389 -0.4640
  114OSM    C1311769   6.425   2.825   5.815  0.1524 -0.1328 -1.1251
  114OSM   H13A11770   6.430   2.929   5.843 -1.0777  0.0788 -1.6366
  114OSM   H13B11771   6.357   2.820   5.732 -0.4968 -0.3144 -0.5882
  114OSM   H13C11772   6.525   2.797   5.784  0.2928  0.2297 -1.0023
  114OSM    C1211773   6.413   2.590   5.887 -0.2312 -0.2699 -0.0123
  114OSM   H12A11774   6.515   2.581   5.853 -0.3737  1.6009 -1.1006
  114OSM   H12B11775   6.352   2.571   5.800 -0.7065  0.3906  0.1629
  114OSM    C1111776   6.378   2.483   5.989 -0.4868 -0.0790  0.7716
  114OSM   H11A11777   6.441   2.496   6.081  2.9483 -0.7154 -1.3064
  114OSM   H11B11778   6.414   2.390   5.941  2.9110  1.5633 -0.2172
  114OSM      P11779   6.127   2.401   5.975 -0.4467 -0.7886  0.3877
  114OSM    O1311780   6.141   2.264   6.018  0.9369 -0.6466  0.2874
  114OSM    O1411781   6.003   2.482   5.997  0.1358 -0.0306 -0.9518
  114OSM    O1111782   6.155   2.394   5.817 -0.0424 -0.1941 -0.4935
  114OSM    O1211783   6.242   2.487   6.035 -0.6827  0.2724  0.0461
  114OSM    C1S11784   6.116   2.284   5.740  0.3201  0.1693 -0.5295
  114OSM    H1S11785   6.012   2.257   5.767  0.3905  1.7598  1.5200
  114OSM    H1T11786   6.182   2.198   5.766 -0.5779 -0.6371 -0.8830
  114OSM     NF11787   6.073   2.199   5.521 -0.4198 -0.1474 -0.0178
  114OSM    HNF11788   6.138   2.124   5.511 -0.7630 -0.4877  0.2708
  114OSM    C2S11789   6.131   2.312   5.591  0.1897  0.2601  0.5073
  114OSM    H2S11790   6.071   2.403   5.569  1.4432  1.3022  1.2761
  114OSM    C3S11791   6.277   2.340   5.551 -0.2727  0.1595  0.3583
  114OSM    H3S11792   6.340   2.258   5.592  0.8228  0.8320  0.0274
  114OSM     O311793   6.341   2.441   5.631 -0.3729  0.2620 -0.0892
  114OSM    HO311794   6.273   2.464   5.695  0.3094  0.0207  0.7413
  114OSM    C4S11795   6.293   2.371   5.406 -0.0615  1.4249  0.2609
  114OSM    H4S11796   6.251   2.464   5.364  0.5547  2.0988  1.0909
  114OSM    C5S11797   6.345   2.285   5.314 -0.2016  0.1729 -0.1209
  114OSM    H5S11798   6.358   2.180   5.344 -1.5174 -0.6448 -2.2099
  114OSM    C6S11799   6.358   2.306   5.161 -0.0243 -0.1281  0.0598
  114OSM    H6S11800   6.314   2.217   5.111 -1.8974  0.2471  0.9608
  114OSM    H6T11801   6.465   2.313   5.132  0.7817 -1.8601  2.2846
  114OSM    C7S11802   6.277   2.438   5.113  0.1089 -0.0858  0.1049
  114OSM    H7S11803   6.311   2.526   5.172  0.0112 -0.2351  0.3854
  114OSM    H7T11804   6.172   2.411   5.139  0.2392 -1.1685 -0.4556
  114OSM    C8S11805   6.287   2.451   4.962 -0.5035 -0.7288 -0.4095
  114OSM    H8S11806   6.240   2.358   4.925 -0.5228 -0.3749 -1.3043
  114OSM    H8T11807   6.384   2.472   4.912 -0.2770  0.6905  0.5408
  114OSM    C9S11808   6.197   2.561   4.905 -0.6656 -0.8529  0.4131
  114OSM    H9S11809   6.230   2.661   4.941  1.8394 -0.9910 -1.2405
  114OSM    H9T11810   6.090   2.541   4.929 -1.3000 -1.2878 -2.4253
  114OSM   C10S11811   6.216   2.573   4.751 -0.1663 -0.5630 -0.3398
  114OSM   H10S11812   6.223   2.471   4.708  1.0597  0.0002 -1.5769
  114OSM   H10T11813   6.318   2.616   4.738 -0.4358  0.3522  0.4931
  114OSM   C11S11814   6.097   2.652   4.689  0.3561 -0.0418 -0.3640
  114OSM   H11S11815   6.083   2.743   4.751  0.7122  0.4995 -1.0614
  114OSM   H11T11816   6.000   2.598   4.700  0.3126 -0.1699 -1.2952
  114OSM   C12S11817   6.119   2.702   4.539 -0.2981 -0.4543  0.6165
  114OSM   H12S11818   6.217   2.755   4.533 -0.2835 -0.5095  0.3405
  114OSM   H12T11819   6.038   2.770   4.507  1.4511  0.9336 -1.1140
  114OSM   C13S11820   6.126   2.584   4.437 -0.1587 -0.1640 -1.0634
  114OSM   H13S11821   6.051   2.508   4.468  2.0410 -1.6948  0.8593
  114OSM   H13T11822   6.225   2.536   4.455 -0.4619 -0.9620 -1.4750
  114OSM   C14S11823   6.113   2.625   4.288 -0.3843  0.7088 -0.2050
  114OSM   H14S11824   6.176   2.715   4.272  0.9678 -0.1141  0.3408
  114OSM   H14T11825   6.006   2.638   4.262 -1.1642 -2.5247  0.9430
  114OSM   C15S11826   6.157   2.504   4.202  0.0188 -0.7982  0.0130
  114OSM   H15S11827   6.094   2.423   4.244  2.3042 -3.5977 -1.5916
  114OSM   H15T11828   6.264   2.479   4.218  0.3568  0.7857  0.4277
  114OSM   C16S11829   6.129   2.539   4.050  0.1313  0.1306 -0.1764
  114OSM   H16S11830   6.216   2.601   4.020 -0.7142  0.6667 -1.6024
  114OSM   H16T11831   6.042   2.606   4.031  0.5102  0.7737  0.2816
  114OSM   C17S11832   6.109   2.415   3.966 -0.0126  0.0800  0.2754
  114OSM   H17S11833   6.025   2.358   4.012  0.5807  0.0024  1.3023
  114OSM   H17T11834   6.203   2.356   3.970  0.3547  0.5238 -1.2709
  114OSM   C18S11835   6.085   2.433   3.821 -0.1204 -0.6732 -0.8119
  114OSM   H18S11836   6.172   2.480   3.770  2.5866 -0.2768  3.6096
  114OSM   H18T11837   6.000   2.502   3.800  1.4809  2.2731  1.5725
  114OSM   H18U11838   6.041   2.345   3.769  2.0695 -0.4085 -3.3230
  114OSM    C1F11839   5.944   2.190   5.486 -0.8947  0.0063  0.2150
  114OSM     OF11840   5.875   2.294   5.487 -0.2240  0.0598  0.3319
  114OSM    C2F11841   5.885   2.066   5.427  0.9571 -0.8731 -0.0227
  114OSM    H2F11842   5.828   2.018   5.510  1.1568  1.6143  1.6518
  114OSM    H2G11843   5.976   2.008   5.400  2.4444  1.1301  0.4593
  114OSM    C3F11844   5.806   2.083   5.292  0.0463 -0.4121 -0.0615
  114OSM    H3F11845   5.727   2.161   5.297  0.7324  0.2463  0.8555
  114OSM    H3G11846   5.755   1.988   5.266  0.1924 -0.4097 -0.3537
  114OSM    C4F11847   5.905   2.122   5.176  0.0238 -0.3281  0.1328
  114OSM    H4F11848   5.986   2.047   5.167  0.2844 -0.3462  2.1801
  114OSM    H4G11849   5.957   2.218   5.199 -0.2726 -0.1015 -0.1217
  114OSM    C5F11850   5.838   2.138   5.043 -0.0606 -0.1568 -0.2383
  114OSM    H5F11851   5.768   2.224   5.030 -0.6270 -0.8954 -2.7007
  114OSM    H5G11852   5.773   2.050   5.020  1.3053 -0.7014 -2.3179
  114OSM    C6F11853   5.933   2.151   4.928 -0.2572  0.1050 -0.4179
  114OSM    H6F11854   6.006   2.067   4.931 -0.7742 -0.3779 -0.9782
  114OSM    H6G11855   5.987   2.248   4.934  0.2857 -0.2730  1.5701
  114OSM    C7F11856   5.868   2.153   4.791 -0.2351  0.0048 -0.0957
  114OSM    H7F11857   5.766   2.196   4.791 -0.2916 -0.1238 -0.8420
  114OSM    H7G11858   5.851   2.048   4.758 -2.0969 -0.1277  1.1167
  114OSM    C8F11859   5.935   2.244   4.678 -0.0043 -0.3592 -0.8926
  114OSM    H8F11860   5.925   2.354   4.692 -1.5718 -0.3666 -1.7923
  114OSM    H8G11861   5.882   2.222   4.583 -2.5076 -0.2953  0.4317
  114OSM    C9F11862   6.082   2.211   4.671  0.0940  0.0013 -0.2149
  114OSM    H9F11863   6.137   2.223   4.765 -0.0282 -1.2119  0.0361
  114OSM   C10F11864   6.154   2.183   4.562 -0.5301 -0.5206 -0.9254
  114OSM   H10F11865   6.262   2.163   4.561 -0.4625 -0.2082 -0.3453
  114OSM   C11F11866   6.093   2.191   4.424 -0.0001  0.6547  0.2699
  114OSM   H11F11867   6.168   2.230   4.352  0.1186 -0.9270 -0.5209
  114OSM   H11G11868   6.005   2.259   4.417 -1.1121 -0.8124 -0.7673
  114OSM   C12F11869   6.054   2.050   4.371  0.4046  0.2700  0.2071
  114OSM   H12F11870   5.972   2.013   4.436 -1.1162  1.9874 -0.6574
  114OSM   H12G11871   6.133   1.973   4.383  0.9328  0.9275  1.0748
  114OSM   C13F11872   6.001   2.055   4.226  0.5253 -0.3145  0.6232
  114OSM   H13F11873   5.911   2.120   4.222  0.2064 -0.8267 -0.9539
  114OSM   H13G11874   5.955   1.956   4.203 -0.1175  0.4693 -1.6731
  114OSM   C14F11875   6.107   2.079   4.121  0.5389  0.5027  0.4947
  114OSM   H14F11876   6.163   2.173   4.139  0.2042  0.2778  2.9635
  114OSM   H14G11877   6.066   2.085   4.017 -2.3335  1.4227  1.5642
  114OSM   C15F11878   6.207   1.968   4.114  0.7627 -0.2764 -0.9343
  114OSM   H15F11879   6.141   1.882   4.088  1.9525 -1.3639 -0.4481
  114OSM   H15G11880   6.250   1.946   4.214  2.1713  0.4182 -1.3618
  114OSM   C16F11881   6.324   1.983   4.019 -0.4787  0.3362  0.4551
  114OSM   H16F11882   6.397   2.051   4.067  0.4648 -1.4658  1.6903
  114OSM   H16G11883   6.301   2.011   3.914 -1.9164  0.5110  0.7934
  114OSM   C17F11884   6.408   1.851   4.025  0.0457 -0.4338  0.0574
  114OSM   H17F11885   6.461   1.838   3.929 -1.0735 -2.4437 -0.3541
  114OSM   H17G11886   6.343   1.761   4.039 -0.9657  0.1912 -0.5184
  114OSM   C18F11887   6.515   1.850   4.143  0.4470 -0.6086  0.1376
  114OSM   H18F11888   6.456   1.852   4.237  0.9749 -0.4218  0.4685
  114OSM   H18G11889   6.580   1.939   4.137 -1.5697  0.9157 -0.3331
  114OSM   H18H11890   6.568   1.753   4.143  2.8560  0.6363 -0.3081
  115OSM      N11891   6.450   4.514   6.150 -0.3940  0.1484  0.3975
  115OSM    C1511892   6.467   4.493   6.301 -0.1426 -0.1013 -0.3052
  115OSM   H15A11893   6.564   4.462   6.338 -0.4139  0.3288  0.8192
  115OSM   H15B11894   6.401   4.420   6.345 -0.2759  0.4290  0.4003
  115OSM   H15C11895   6.447   4.583   6.357  0.3727 -1.4401  2.2089
  115OSM    C1411896   6.530   4.634   6.102  0.1177  0.3665  0.4917
  115OSM   H14A11897   6.637   4.635   6.121  0.3021  0.3989 -0.4711
  115OSM   H14B11898   6.502   4.727   6.151 -0.0488  0.5066  0.1312
  115OSM   H14C11899   6.511   4.651   5.997  0.0486  3.3406  0.8972
  115OSM    C1311900   6.506   4.395   6.077 -0.2477  0.0962  0.4664
  115OSM   H13A11901   6.514   4.420   5.972  1.0473 -0.4494  0.4271
  115OSM   H13B11902   6.442   4.310   6.097 -0.1234  0.5122  2.9491
  115OSM   H13C11903   6.604   4.366   6.111 -0.3295 -0.6209  0.0939
  115OSM    C1211904   6.312   4.532   6.114 -0.3617  0.0687  0.1258
  115OSM   H12A11905   6.285   4.627   6.157 -2.7778 -1.3090  1.8607
  115OSM   H12B11906   6.244   4.465   6.164 -2.1653  1.8829  0.2000
  115OSM    C1111907   6.285   4.524   5.958 -0.2305 -0.1286  0.0363
  115OSM   H11A11908   6.301   4.418   5.928 -1.9815 -0.6128  0.6715
  115OSM   H11B11909   6.341   4.597   5.895 -2.2322  1.4633  0.0074
  115OSM      P11910   6.095   4.708   5.919  0.3997  0.0961 -0.2564
  115OSM    O1311911   5.945   4.701   5.907 -0.5710  0.3837  0.5035
  115OSM    O1411912   6.146   4.779   6.037 -0.0488 -0.0326  0.3575
  115OSM    O1111913   6.163   4.773   5.795 -0.1727  0.0380  0.6486
  115OSM    O1211914   6.152   4.559   5.924 -0.6187  0.1197 -0.1754
  115OSM    C1S11915   6.176   4.699   5.673 -0.3454 -0.2460 -0.5230
  115OSM    H1S11916   6.077   4.663   5.638 -0.3823  1.3989 -2.2892
  115OSM    H1T11917   6.252   4.620   5.690 -0.7601 -0.8650 -1.4698
  115OSM     NF11918   6.196   4.752   5.429 -0.5359  0.3924 -0.1039
  115OSM    HNF11919   6.257   4.683   5.389  0.1280  0.6981  0.3594
  115OSM    C2S11920   6.232   4.794   5.560 -0.1107 -0.0966  0.0653
  115OSM    H2S11921   6.187   4.894   5.579  1.9348  1.1401 -1.1380
  115OSM    C3S11922   6.384   4.809   5.588 -0.0736  0.2963  0.2608
  115OSM    H3S11923   6.436   4.718   5.551 -0.3856  1.1142 -2.4162
  115OSM     O311924   6.419   4.835   5.725  0.1858  0.3253 -0.5377
  115OSM    HO311925   6.337   4.833   5.776  1.5117  0.6634  1.7318
  115OSM    C4S11926   6.437   4.927   5.512  0.1832  0.7749 -0.2202
  115OSM    H4S11927   6.397   5.024   5.542  1.5507  1.0506  0.8131
  115OSM    C5S11928   6.531   4.935   5.414 -0.0528 -0.5924 -0.1541
  115OSM    H5S11929   6.590   4.848   5.381 -0.1939 -0.9473  0.5036
  115OSM    C6S11930   6.575   5.065   5.345  0.0645  0.4914 -0.8263
  115OSM    H6S11931   6.686   5.065   5.357 -0.0069  0.1742 -0.0952
  115OSM    H6T11932   6.535   5.149   5.406  2.8325 -0.1807  2.2470
  115OSM    C7S11933   6.538   5.079   5.195 -0.0517  0.0287  0.1495
  115OSM    H7S11934   6.564   5.181   5.159 -0.7022 -0.3814 -1.5975
  115OSM    H7T11935   6.429   5.070   5.176 -0.1909  1.4228  0.1849
  115OSM    C8S11936   6.611   4.981   5.102 -0.7111  0.1270  0.2279
  115OSM    H8S11937   6.581   4.876   5.120  1.3587 -0.3855  0.9512
  115OSM    H8T11938   6.713   4.981   5.144  0.5237 -1.6458 -2.4827
  115OSM    C9S11939   6.599   5.026   4.958  0.3159  0.2282  0.1858
  115OSM    H9S11940   6.659   5.118   4.945 -0.3511  0.8388  1.2793
  115OSM    H9T11941   6.497   5.067   4.941  0.1237  0.1899  1.2219
  115OSM   C10S11942   6.652   4.937   4.846  0.1994 -0.1994 -0.0804
  115OSM   H10S11943   6.583   4.851   4.830 -1.0157  0.7022  0.1830
  115OSM   H10T11944   6.758   4.907   4.859  0.4797 -1.0616 -3.3993
  115OSM   C11S11945   6.661   5.007   4.715  0.1187 -0.1312 -0.4129
  115OSM   H11S11946   6.728   5.095   4.728  0.2650 -0.4568  1.1238
  115OSM   H11T11947   6.561   5.040   4.679 -0.7648 -0.1153  1.9448
  115OSM   C12S11948   6.716   4.903   4.618  0.3841 -1.1203 -0.1398
  115OSM   H12S11949   6.637   4.830   4.592  0.3723 -1.2909  0.3508
  115OSM   H12T11950   6.799   4.845   4.664 -0.9803 -4.4538 -1.5801
  115OSM   C13S11951   6.758   4.977   4.487 -0.4699 -0.1576 -0.1046
  115OSM   H13S11952   6.855   5.030   4.503 -0.1172 -0.4047 -1.3091
  115OSM   H13T11953   6.678   5.051   4.469 -0.7140 -0.2126  0.7024
  115OSM   C14S11954   6.771   4.880   4.365 -0.6675  0.3273 -0.1276
  115OSM   H14S11955   6.684   4.812   4.356  1.1580 -2.0856 -0.3236
  115OSM   H14T11956   6.857   4.813   4.383 -0.2554  0.4496 -1.5272
  115OSM   C15S11957   6.790   4.949   4.228 -0.1965 -0.3248  0.5873
  115OSM   H15S11958   6.885   5.004   4.243 -1.3789  1.8392  0.5845
  115OSM   H15T11959   6.707   5.021   4.208 -0.2987 -0.6995 -0.4213
  115OSM   C16S11960   6.809   4.855   4.108  0.6463  0.2145 -0.1379
  115OSM   H16S11961   6.723   4.786   4.107 -0.2109  1.2103 -2.9517
  115OSM   H16T11962   6.901   4.796   4.129 -0.6687 -1.3190  1.6687
  115OSM   C17S11963   6.811   4.935   3.973  0.5739 -0.4287  0.7233
  115OSM   H17S11964   6.909   4.986   3.958  0.5963 -0.8462 -0.6479
  115OSM   H17T11965   6.747   5.026   3.972  0.0902 -0.7616 -1.2937
  115OSM   C18S11966   6.789   4.848   3.855  1.0438  0.7594  0.1269
  115OSM   H18S11967   6.806   4.740   3.876 -2.0977 -0.2024 -1.5645
  115OSM   H18T11968   6.864   4.852   3.773 -0.2162 -1.1548 -1.2119
  115OSM   H18U11969   6.683   4.849   3.821  0.8294 -0.9190  0.6434
  115OSM    C1F11970   6.067   4.765   5.386  0.0055 -0.5727  0.1587
  115OSM     OF11971   5.986   4.842   5.446 -0.0279  0.2458 -0.0592
  115OSM    C2F11972   6.017   4.685   5.269  0.1356  0.8576 -0.0699
  115OSM    H2F11973   5.953   4.602   5.307  0.1877 -0.7334 -3.1322
  115OSM    H2G11974   6.098   4.635   5.213 -1.1499  0.5900 -1.7911
  115OSM    C3F11975   5.944   4.774   5.170  1.0337  1.0777  0.6559
  115OSM    H3F11976   5.836   4.776   5.193  0.8530  0.4583 -0.1215
  115OSM    H3G11977   5.941   4.721   5.073  0.2628  3.2347 -0.5595
  115OSM    C4F11978   6.008   4.909   5.121  0.1104  0.0785  0.1647
  115OSM    H4F11979   6.013   4.974   5.210  0.9707 -2.0543  1.7735
  115OSM    H4G11980   5.935   4.961   5.056  1.1468 -0.4929 -1.5155
  115OSM    C5F11981   6.153   4.909   5.063 -0.2316  0.1013 -0.1457
  115OSM    H5F11982   6.200   4.828   5.123  0.4285  0.8440  0.3659
  115OSM    H5G11983   6.198   5.007   5.088 -3.2151  1.2701  1.1488
  115OSM    C6F11984   6.164   4.865   4.922  0.5451  0.6653  0.0756
  115OSM    H6F11985   6.097   4.778   4.906  0.4308  1.0635 -1.8908
  115OSM    H6G11986   6.266   4.832   4.892  0.1585 -0.8579  0.3444
  115OSM    C7F11987   6.136   4.970   4.820 -0.3058 -0.0738 -0.3463
  115OSM    H7F11988   6.189   5.060   4.857 -0.3955 -1.1378  2.6066
  115OSM    H7G11989   6.029   4.997   4.833 -0.4057 -1.0537  1.0313
  115OSM    C8F11990   6.159   4.930   4.680  0.5582  0.0465  1.0641
  115OSM    H8F11991   6.113   5.005   4.612  1.8337  0.1644  0.3128
  115OSM    H8G11992   6.123   4.829   4.648  4.7156 -1.0092 -0.8954
  115OSM    C9F11993   6.298   4.951   4.630 -0.0612 -0.1647 -0.0177
  115OSM    H9F11994   6.373   4.968   4.708  0.3201 -0.9390 -0.2058
  115OSM   C10F11995   6.341   4.931   4.506 -0.8391  0.7493 -0.3437
  115OSM   H10F11996   6.449   4.942   4.492 -0.4426 -1.1063  0.9774
  115OSM   C11F11997   6.261   4.884   4.390 -0.4636 -0.1725 -0.1903
  115OSM   H11F11998   6.157   4.865   4.426 -1.8329  2.4387 -2.3846
  115OSM   H11G11999   6.306   4.795   4.341  1.2769  0.3754  0.3517
  115OSM   C12F12000   6.239   5.003   4.290 -0.4586  0.2176 -0.1160
  115OSM   H12F12001   6.224   5.098   4.346 -0.3146 -0.0984  0.4602
  115OSM   H12G12002   6.146   4.986   4.231  0.0428 -3.6107 -0.0389
  115OSM   C13F12003   6.347   5.016   4.180 -0.2197 -0.4296 -0.9429
  115OSM   H13F12004   6.446   4.983   4.217 -1.2677 -1.4679  1.1197
  115OSM   H13G12005   6.349   5.125   4.157  0.4899  0.5077  2.7974
  115OSM   C14F12006   6.310   4.923   4.062  1.3111 -0.9801 -0.3989
  115OSM   H14F12007   6.205   4.943   4.034  1.4235  2.3694  1.0911
  115OSM   H14G12008   6.308   4.820   4.102  1.7815  0.1837  3.0021
  115OSM   C15F12009   6.405   4.931   3.946  0.9665 -0.1287 -0.1247
  115OSM   H15F12010   6.381   4.831   3.905 -2.4727  1.2021 -1.7819
  115OSM   H15G12011   6.514   4.932   3.968  1.0653 -1.5040 -0.4730
  115OSM   C16F12012   6.365   5.038   3.841 -0.2616  0.1595  0.3287
  115OSM   H16F12013   6.370   5.143   3.879  0.1330 -0.3190  1.6675
  115OSM   H16G12014   6.261   5.018   3.807  0.2538  1.0404 -1.9518
  115OSM   C17F12015   6.458   5.029   3.717  0.4507  0.4633 -0.3111
  115OSM   H17F12016   6.459   4.934   3.660  1.0777 -0.2327  0.8290
  115OSM   H17G12017   6.564   5.024   3.750 -0.2667 -1.3156  2.0125
  115OSM   C18F12018   6.441   5.142   3.617  1.2145 -0.6909  0.6701
  115OSM   H18F12019   6.333   5.159   3.600  1.2179 -0.9378  0.3958
  115OSM   H18G12020   6.491   5.114   3.521 -2.1326 -2.0474 -0.8267
  115OSM   H18H12021   6.485   5.237   3.654  0.6663 -0.0342 -0.3255
  116OSM      N12022   6.005   1.678   6.396 -0.3569 -0.0656  0.4610
  116OSM    C1512023   6.043   1.832   6.398 -0.3788  0.0674 -0.5592
  116OSM   H15A12024   6.058   1.870   6.497  0.5497 -0.2011 -0.5879
  116OSM   H15B12025   5.972   1.891   6.342  0.2192  1.6602  0.3225
  116OSM   H15C12026   6.138   1.854   6.352 -0.2108  1.1842  0.2943
  116OSM    C1412027   6.122   1.607   6.441 -0.2968  0.3435  0.0111
  116OSM   H14A12028   6.211   1.622   6.382 -0.0816 -1.5709 -0.1938
  116OSM   H14B12029   6.093   1.505   6.422  0.7435  0.6605 -4.2908
  116OSM   H14C12030   6.152   1.624   6.543  2.0370 -1.8423 -0.2364
  116OSM    C1312031   5.901   1.647   6.501  0.2331 -0.4723 -0.6726
  116OSM   H13A12032   5.933   1.701   6.589 -3.7448  0.2577  0.5275
  116OSM   H13B12033   5.899   1.543   6.531  1.8310 -0.2925  0.2065
  116OSM   H13C12034   5.814   1.705   6.475 -0.1516 -0.8618 -0.2501
  116OSM    C1212035   5.967   1.638   6.256 -0.1704 -0.0770 -0.1362
  116OSM   H12A12036   5.908   1.724   6.226 -2.4102 -1.2836  0.6309
  116OSM   H12B12037   5.900   1.554   6.256 -0.2071 -0.0537 -0.6269
  116OSM    C1112038   6.070   1.600   6.142  0.8043  0.7267 -0.0362
  116OSM   H11A12039   6.015   1.581   6.047 -0.4225  1.7078  0.4502
  116OSM   H11B12040   6.109   1.500   6.170  0.2705  0.7827  0.9499
  116OSM      P12041   6.142   1.833   6.061  0.1940  0.0107 -0.2167
  116OSM    O1312042   6.004   1.880   6.083  0.3389  0.0103 -0.0937
  116OSM    O1412043   6.244   1.934   6.094  0.4989 -0.2165 -0.3158
  116OSM    O1112044   6.156   1.812   5.908 -0.2446  0.5392  0.2737
  116OSM    O1212045   6.172   1.694   6.130 -0.0204  0.4531  0.1748
  116OSM    C1S12046   6.274   1.739   5.873 -0.2250 -0.3226 -0.0529
  116OSM    H1S12047   6.280   1.638   5.919 -4.5935 -1.3712 -1.3093
  116OSM    H1T12048   6.369   1.791   5.897  0.2142 -0.4794 -1.3674
  116OSM     NF12049   6.380   1.625   5.681 -0.5203  0.8811  0.6242
  116OSM    HNF12050   6.469   1.663   5.657 -0.5784 -0.1167 -1.3812
  116OSM    C2S12051   6.278   1.716   5.714  0.5864 -1.3722  0.2114
  116OSM    H2S12052   6.177   1.682   5.683 -0.3159 -0.1386  1.6237
  116OSM    C3S12053   6.285   1.858   5.649 -0.0982 -1.2786  0.1227
  116OSM    H3S12054   6.386   1.893   5.679  0.9485 -2.1544 -2.1013
  116OSM     O312055   6.188   1.956   5.691  0.3363 -0.2809  0.1031
  116OSM    HO312056   6.151   1.908   5.765 -1.1231  0.4916 -0.0976
  116OSM    C4S12057   6.284   1.863   5.501  0.3699 -0.3745  0.8438
  116OSM    H4S12058   6.203   1.804   5.455 -0.5796  1.8801 -0.4878
  116OSM    C5S12059   6.370   1.922   5.414  0.1339  0.6896 -0.4121
  116OSM    H5S12060   6.465   1.970   5.441  1.2530 -1.3594 -0.4864
  116OSM    C6S12061   6.360   1.915   5.264  0.0811  0.4229 -0.1352
  116OSM    H6S12062   6.450   1.863   5.224  0.1132 -0.0645  0.5682
  116OSM    H6T12063   6.362   2.022   5.233 -0.1199  0.4192 -0.1582
  116OSM    C7S12064   6.238   1.847   5.219  0.3055 -0.2341 -0.4355
  116OSM    H7S12065   6.146   1.895   5.260  0.7485 -0.5333  0.9663
  116OSM    H7T12066   6.243   1.740   5.251 -1.2074  0.2309  1.5407
  116OSM    C8S12067   6.222   1.840   5.064  0.0952  0.2320 -0.6479
  116OSM    H8S12068   6.307   1.775   5.034  0.7305  0.6847  0.1466
  116OSM    H8T12069   6.235   1.934   5.007  1.0492 -0.2702 -1.2694
  116OSM    C9S12070   6.086   1.772   5.035 -0.1905  0.0677  1.2080
  116OSM    H9S12071   6.012   1.835   5.088 -0.8596  0.5030 -0.1840
  116OSM    H9T12072   6.089   1.665   5.066  0.1317 -0.3145 -0.0498
  116OSM   C10S12073   6.044   1.772   4.885 -0.1512  0.3183 -0.0978
  116OSM   H10S12074   6.061   1.872   4.839  5.7689 -1.6735 -3.2194
  116OSM   H10T12075   5.935   1.753   4.877  0.2440 -2.3477 -0.0262
  116OSM   C11S12076   6.112   1.672   4.794  0.2591 -0.4620 -0.2167
  116OSM   H11S12077   6.097   1.566   4.823  1.9446  0.1078  3.2626
  116OSM   H11T12078   6.222   1.677   4.806  0.0638 -1.5205  2.7802
  116OSM   C12S12079   6.070   1.698   4.645 -0.7239  0.3721 -0.0060
  116OSM   H12S12080   6.106   1.800   4.618 -0.7559 -0.7142 -5.4081
  116OSM   H12T12081   5.962   1.697   4.620 -0.3772  0.0212 -1.6632
  116OSM   C13S12082   6.139   1.606   4.543  0.8122 -0.3657  0.4248
  116OSM   H13S12083   6.122   1.500   4.572  1.6657 -0.9393 -1.0769
  116OSM   H13T12084   6.245   1.638   4.550  0.8984 -0.1235 -1.4752
  116OSM   C14S12085   6.111   1.634   4.394  0.4824  0.1816 -0.8474
  116OSM   H14S12086   6.145   1.735   4.360 -0.4058  0.4646 -0.9213
  116OSM   H14T12087   6.002   1.636   4.374  0.2869 -3.0450 -0.5036
  116OSM   C15S12088   6.182   1.532   4.305  0.9554 -0.5266  0.0791
  116OSM   H15S12089   6.145   1.429   4.321 -0.0871 -0.4387 -1.5775
  116OSM   H15T12090   6.290   1.529   4.332  1.0999 -0.5726 -0.4852
  116OSM   C16S12091   6.153   1.568   4.160  0.0309 -0.2655 -0.2202
  116OSM   H16S12092   6.187   1.673   4.148 -0.5052 -0.1266 -0.5670
  116OSM   H16T12093   6.044   1.575   4.137 -0.0488  1.8712  0.6202
  116OSM   C17S12094   6.219   1.469   4.054 -0.6476  0.4340 -0.0753
  116OSM   H17S12095   6.173   1.369   4.070  0.1373 -0.0708 -0.9309
  116OSM   H17T12096   6.329   1.462   4.064 -0.6009  0.5158 -0.4998
  116OSM   C18S12097   6.189   1.494   3.905  0.2945  0.7412 -0.0547
  116OSM   H18S12098   6.080   1.508   3.887  0.3432  0.2317 -0.8214
  116OSM   H18T12099   6.214   1.409   3.838  2.6416  0.9131  0.5198
  116OSM   H18U12100   6.232   1.594   3.881 -1.0962  1.6565  1.1507
  116OSM    C1F12101   6.374   1.499   5.706  0.2901  0.4366 -0.6659
  116OSM     OF12102   6.273   1.451   5.757 -0.2851 -0.6227 -0.6357
  116OSM    C2F12103   6.490   1.415   5.671  0.3982  0.4229  0.0335
  116OSM    H2F12104   6.462   1.308   5.661  0.4730  0.3153  0.9357
  116OSM    H2G12105   6.566   1.440   5.748 -1.2638 -0.2268  1.9787
  116OSM    C3F12106   6.556   1.460   5.541 -0.2609 -0.0495  0.3818
  116OSM    H3F12107   6.637   1.385   5.524 -1.2143 -0.9920 -0.1457
  116OSM    H3G12108   6.597   1.563   5.536 -2.3795  0.9003  1.2513
  116OSM    C4F12109   6.469   1.460   5.415  0.2577  0.1049  0.0181
  116OSM    H4F12110   6.381   1.527   5.423  0.8644  1.2425 -2.1793
  116OSM    H4G12111   6.436   1.355   5.396 -0.1854  0.1765  0.3608
  116OSM    C5F12112   6.539   1.513   5.288  0.2953 -0.0620 -0.1499
  116OSM    H5F12113   6.621   1.439   5.276 -1.5457 -2.3103  0.4426
  116OSM    H5G12114   6.572   1.618   5.298  2.6077  0.2100 -6.1136
  116OSM    C6F12115   6.455   1.491   5.159  0.3527  0.0811 -0.6793
  116OSM    H6F12116   6.356   1.541   5.165  1.6724  3.0030 -1.4181
  116OSM    H6G12117   6.441   1.383   5.137  1.9569 -0.0815 -1.0856
  116OSM    C7F12118   6.520   1.563   5.037  0.0590 -0.0012 -0.6751
  116OSM    H7F12119   6.628   1.580   5.056 -0.3647  0.5758  1.5638
  116OSM    H7G12120   6.476   1.665   5.043 -2.7407 -1.0720 -1.5548
  116OSM    C8F12121   6.486   1.507   4.897  0.3297  0.3471 -0.1692
  116OSM    H8F12122   6.493   1.596   4.831 -0.5860  1.5116  1.2312
  116OSM    H8G12123   6.380   1.473   4.897 -0.6667  3.0533 -2.3595
  116OSM    C9F12124   6.582   1.393   4.869 -0.4244  0.0099 -0.5181
  116OSM    H9F12125   6.579   1.300   4.928  2.0109 -0.1338 -0.5205
  116OSM   C10F12126   6.660   1.389   4.761 -0.2822 -0.5007 -0.3168
  116OSM   H10F12127   6.713   1.295   4.740  0.9113  0.5579 -2.4909
  116OSM   C11F12128   6.678   1.486   4.648 -0.2454 -0.6548  0.4152
  116OSM   H11F12129   6.785   1.483   4.617  0.2787  1.8866  1.7050
  116OSM   H11G12130   6.665   1.591   4.679 -1.9089 -1.2550  1.8662
  116OSM   C12F12131   6.575   1.485   4.529 -0.6147 -0.4794 -0.6211
  116OSM   H12F12132   6.608   1.563   4.457 -2.2054  0.3866 -0.4685
  116OSM   H12G12133   6.472   1.517   4.558 -0.0736  0.1721  0.6292
  116OSM   C13F12134   6.575   1.345   4.464  0.2942 -0.3515 -0.4028
  116OSM   H13F12135   6.496   1.347   4.386  0.9515  1.5805 -1.0898
  116OSM   H13G12136   6.543   1.279   4.547 -0.6684  0.4006 -0.1619
  116OSM   C14F12137   6.703   1.289   4.416 -0.1096 -0.3873 -0.0156
  116OSM   H14F12138   6.785   1.317   4.486 -0.6484 -1.4809  1.0980
  116OSM   H14G12139   6.735   1.338   4.322  1.6585 -1.8966 -0.2618
  116OSM   C15F12140   6.715   1.137   4.398  0.5216 -0.5944  0.0483
  116OSM   H15F12141   6.661   1.116   4.303  2.6734  0.5063 -1.5236
  116OSM   H15G12142   6.668   1.071   4.474 -1.1118  0.3767 -0.0679
  116OSM   C16F12143   6.855   1.097   4.374  0.4812  0.9964  0.4921
  116OSM   H16F12144   6.897   1.089   4.476 -0.1115 -0.5991  0.6300
  116OSM   H16G12145   6.909   1.178   4.320 -2.0301  1.5918 -1.3755
  116OSM   C17F12146   6.856   0.969   4.289 -1.1269 -0.1855  0.1042
  116OSM   H17F12147   6.834   0.998   4.184  1.3373 -0.7763 -0.6270
  116OSM   H17G12148   6.796   0.884   4.329 -0.7511 -0.7524 -0.5231
  116OSM   C18F12149   6.999   0.908   4.291 -0.1718 -0.4096 -0.3319
  116OSM   H18F12150   7.039   0.891   4.394  3.0698  0.6459 -1.2876
  116OSM   H18G12151   7.079   0.976   4.254  0.5014 -0.5762  0.7660
  116OSM   H18H12152   7.001   0.810   4.239 -2.6765 -1.0016  0.5591
  117OSM      N12153   0.698   5.568   6.459 -0.4694 -0.8745  0.4499
  117OSM    C1512154   0.651   5.688   6.525  0.4207 -0.0446 -0.0065
  117OSM   H15A12155   0.728   5.722   6.593  0.4967 -0.0122 -0.1089
  117OSM   H15B12156   0.558   5.671   6.577 -0.7311 -0.0600 -1.9663
  117OSM   H15C12157   0.629   5.774   6.464  2.7311  1.3732  1.0359
  117OSM    C1412158   0.828   5.600   6.385 -0.4367 -0.0637 -0.5339
  117OSM   H14A12159   0.907   5.630   6.453  1.0604  1.1027 -2.6751
  117OSM   H14B12160   0.823   5.685   6.319 -0.3120 -1.2052 -2.0708
  117OSM   H14C12161   0.860   5.510   6.334 -1.4995 -0.4262 -0.5877
  117OSM    C1312162   0.728   5.459   6.558 -0.6524  0.0306 -0.3536
  117OSM   H13A12163   0.758   5.374   6.499 -1.2585 -0.0483 -0.5587
  117OSM   H13B12164   0.640   5.422   6.608  0.6409 -3.0838 -0.1067
  117OSM   H13C12165   0.807   5.481   6.627 -0.5813  2.4856 -1.1006
  117OSM    C1212166   0.596   5.524   6.356  1.2027 -0.2097  0.8616
  117OSM   H12A12167   0.600   5.602   6.282  1.0852 -1.0956 -0.1004
  117OSM   H12B12168   0.497   5.518   6.399  0.5560 -1.8343 -0.7187
  117OSM    C1112169   0.630   5.392   6.282 -0.2685  0.4729  0.6712
  117OSM   H11A12170   0.551   5.389   6.203 -0.7028  1.8323  1.0228
  117OSM   H11B12171   0.621   5.300   6.344 -2.9342  1.2319  1.5398
  117OSM      P12172   0.847   5.271   6.214  0.2496 -0.1009  0.6320
  117OSM    O1312173   0.910   5.277   6.347  0.2404 -0.6124 -0.3477
  117OSM    O1412174   0.777   5.149   6.171  0.1335  0.6580 -0.3680
  117OSM    O1112175   0.956   5.300   6.108 -0.2198 -0.0602 -0.0403
  117OSM    O1212176   0.753   5.400   6.205  0.5233  0.0224 -0.6703
  117OSM    C1S12177   0.983   5.230   5.986  0.1622 -0.1543  0.4316
  117OSM    H1S12178   0.951   5.124   5.990  2.0177 -0.6988  2.3204
  117OSM    H1T12179   1.090   5.243   5.958  0.1807  1.4618  1.1619
  117OSM     NF12180   0.912   5.211   5.755 -0.5908 -0.4717  0.2348
  117OSM    HNF12181   0.987   5.221   5.690  0.6777 -2.6432  1.2735
  117OSM    C2S12182   0.903   5.300   5.870 -0.4190  0.6296 -0.4310
  117OSM    H2S12183   0.795   5.310   5.894 -0.2772  1.5467 -0.1361
  117OSM    C3S12184   0.963   5.443   5.848 -0.1683  0.2356  0.1554
  117OSM    H3S12185   1.071   5.436   5.824  0.0362  0.1887  1.0620
  117OSM     O312186   0.952   5.533   5.959 -0.0355 -0.2427 -0.3474
  117OSM    HO312187   0.909   5.483   6.029 -1.2585  1.2803  0.0549
  117OSM    C4S12188   0.901   5.509   5.717  0.5089 -0.2635  0.3674
  117OSM    H4S12189   0.952   5.494   5.621 -0.1569 -2.5155  0.3226
  117OSM    C5S12190   0.784   5.583   5.723 -0.4630 -0.0305 -0.3078
  117OSM    H5S12191   0.736   5.606   5.820  1.5593  2.8201  0.1514
  117OSM    C6S12192   0.712   5.666   5.617  0.6990 -0.3056  0.3647
  117OSM    H6S12193   0.672   5.764   5.651  1.2946  0.1366 -0.1917
  117OSM    H6T12194   0.621   5.608   5.591  0.4939  0.3812 -0.4897
  117OSM    C7S12195   0.798   5.706   5.498 -0.2827  0.1540 -0.1859
  117OSM    H7S12196   0.818   5.610   5.445  1.0027 -0.6546  1.6803
  117OSM    H7T12197   0.892   5.759   5.523 -0.3008 -0.1529  0.5391
  117OSM    C8S12198   0.721   5.798   5.403  0.3967 -0.7967  0.1892
  117OSM    H8S12199   0.694   5.896   5.448  0.1624  0.0872 -1.7693
  117OSM    H8T12200   0.622   5.760   5.366  1.3157 -2.8914 -0.2782
  117OSM    C9S12201   0.803   5.826   5.276 -0.0390  0.7158  0.1972
  117OSM    H9S12202   0.836   5.725   5.241  0.3297  0.1428  2.0791
  117OSM    H9T12203   0.905   5.866   5.296  0.0664 -0.2819  1.9266
  117OSM   C10S12204   0.729   5.905   5.168  0.6727  0.1667  0.7487
  117OSM   H10S12205   0.703   6.008   5.200 -0.3902 -0.3837  1.7249
  117OSM   H10T12206   0.639   5.843   5.151  1.1127 -0.3990  0.4328
  117OSM   C11S12207   0.811   5.893   5.041  0.0906 -0.1635 -0.3754
  117OSM   H11S12208   0.816   5.784   5.022  0.3898 -0.2216  0.0344
  117OSM   H11T12209   0.916   5.921   5.065 -0.8148  1.3827  2.2174
  117OSM   C12S12210   0.759   5.958   4.905 -0.3631 -0.5143  0.2317
  117OSM   H12S12211   0.846   5.959   4.837 -1.2896  0.8758 -0.9985
  117OSM   H12T12212   0.720   6.062   4.916 -0.9544 -0.5303 -1.5242
  117OSM   C13S12213   0.652   5.870   4.838 -0.7159 -0.6881 -0.4807
  117OSM   H13S12214   0.569   5.875   4.912  0.9031  2.4203  1.3309
  117OSM   H13T12215   0.688   5.765   4.840  1.5554  0.0361 -0.5677
  117OSM   C14S12216   0.607   5.919   4.703  0.2652 -0.3172 -0.2792
  117OSM   H14S12217   0.559   6.019   4.717  1.6026  0.5185 -1.3952
  117OSM   H14T12218   0.519   5.859   4.671 -0.6289  1.0355 -0.4608
  117OSM   C15S12219   0.717   5.928   4.595 -0.8960  0.4467 -0.0559
  117OSM   H15S12220   0.779   6.013   4.632 -2.0512  0.1122  2.9066
  117OSM   H15T12221   0.657   5.952   4.505 -3.0288 -2.4682  0.4501
  117OSM   C16S12222   0.794   5.798   4.558  0.0799 -0.0305  0.6225
  117OSM   H16S12223   0.714   5.721   4.564  1.7448 -1.9906 -1.0866
  117OSM   H16T12224   0.865   5.773   4.640  1.0726  0.8342  0.0455
  117OSM   C17S12225   0.863   5.807   4.423  0.0615 -0.3193 -0.0801
  117OSM   H17S12226   0.786   5.840   4.349  0.7950  0.3500 -0.5670
  117OSM   H17T12227   0.918   5.711   4.412  0.5935 -0.5366  3.4143
  117OSM   C18S12228   0.965   5.916   4.426 -0.1736  0.2822 -0.1153
  117OSM   H18S12229   1.020   5.923   4.330  0.7394 -1.5646  0.2115
  117OSM   H18T12230   1.033   5.908   4.514 -0.1331  1.1037 -0.0628
  117OSM   H18U12231   0.921   6.017   4.438  2.5684  1.3258  2.6851
  117OSM    C1F12232   0.842   5.103   5.744 -0.5500  0.1123  0.1794
  117OSM     OF12233   0.767   5.068   5.832 -0.3023  0.1611 -0.0141
  117OSM    C2F12234   0.866   5.017   5.624 -0.4884  0.3733  0.2908
  117OSM    H2F12235   0.919   4.925   5.657 -0.4545 -0.0316 -0.8465
  117OSM    H2G12236   0.934   5.065   5.550 -1.3587 -1.8030 -2.0620
  117OSM    C3F12237   0.742   4.961   5.557 -0.2988  0.1513  0.4377
  117OSM    H3F12238   0.730   4.861   5.603  4.1658 -0.7476  0.1456
  117OSM    H3G12239   0.763   4.947   5.449  0.5377  2.0537  0.3123
  117OSM    C4F12240   0.619   5.053   5.550 -0.7823 -0.8633 -0.5702
  117OSM    H4F12241   0.589   5.100   5.647  1.1994 -1.6884  0.4981
  117OSM    H4G12242   0.536   4.995   5.506  0.5673 -0.7782 -3.4512
  117OSM    C5F12243   0.634   5.175   5.455  0.3279  0.6144 -1.2859
  117OSM    H5F12244   0.721   5.144   5.393  0.1801  0.0782 -1.2295
  117OSM    H5G12245   0.667   5.266   5.509 -0.0520  0.5914 -1.0155
  117OSM    C6F12246   0.517   5.216   5.372 -0.2076 -0.8708  0.7014
  117OSM    H6F12247   0.445   5.265   5.442  2.2421  1.2577  1.9005
  117OSM    H6G12248   0.469   5.132   5.318 -1.0856  0.2415 -0.2886
  117OSM    C7F12249   0.562   5.325   5.275  0.1405 -0.4714 -0.4170
  117OSM    H7F12250   0.653   5.291   5.220  0.9771  0.3980  0.3936
  117OSM    H7G12251   0.590   5.412   5.337  2.7687  0.0266 -2.1343
  117OSM    C8F12252   0.457   5.385   5.185 -0.0353  0.3232  0.5530
  117OSM    H8F12253   0.357   5.377   5.234 -0.7771  0.1110 -0.9321
  117OSM    H8G12254   0.443   5.324   5.093 -4.8088  0.0584  1.1837
  117OSM    C9F12255   0.467   5.529   5.135  0.0034  0.2707 -0.1550
  117OSM    H9F12256   0.409   5.589   5.205  0.8677  1.0204 -0.0578
  117OSM   C10F12257   0.510   5.581   5.022 -0.3716  0.6868 -0.4030
  117OSM   H10F12258   0.500   5.690   5.007 -2.9706  0.5864  0.1123
  117OSM   C11F12259   0.569   5.505   4.904 -0.2825 -0.0087 -1.1259
  117OSM   H11F12260   0.590   5.397   4.920 -1.6599  0.1273  2.9294
  117OSM   H11G12261   0.664   5.554   4.875  1.0955 -0.8022  1.6660
  117OSM   C12F12262   0.468   5.516   4.793 -0.7213  0.3677 -0.5024
  117OSM   H12F12263   0.437   5.622   4.776 -1.5869 -0.2492 -3.2710
  117OSM   H12G12264   0.380   5.453   4.815 -0.8808  0.3216 -1.2520
  117OSM   C13F12265   0.537   5.472   4.653 -0.0455 -0.5610 -0.0413
  117OSM   H13F12266   0.559   5.364   4.661  2.5341 -0.3352 -2.5624
  117OSM   H13G12267   0.638   5.513   4.636  0.2300 -1.4915 -0.7134
  117OSM   C14F12268   0.432   5.484   4.534  0.8535  0.1537 -0.2413
  117OSM   H14F12269   0.419   5.593   4.513  0.1427 -0.0276 -0.7654
  117OSM   H14G12270   0.329   5.451   4.558  0.6425 -0.3960 -1.7935
  117OSM   C15F12271   0.473   5.407   4.402 -0.1200 -0.1943  0.6397
  117OSM   H15F12272   0.462   5.297   4.415  1.4425 -0.2633  1.5545
  117OSM   H15G12273   0.573   5.437   4.364  0.0692 -0.5530  0.8524
  117OSM   C16F12274   0.385   5.461   4.283  0.1452 -0.5237 -0.1199
  117OSM   H16F12275   0.418   5.558   4.241 -0.5431  0.0325  0.6027
  117OSM   H16G12276   0.281   5.470   4.319  0.5323  1.2225  0.6993
  117OSM   C17F12277   0.366   5.354   4.170 -0.0571  0.7926  0.3210
  117OSM   H17F12278   0.291   5.406   4.107  1.3636  3.0147  0.3305
  117OSM   H17G12279   0.329   5.253   4.197 -1.2454  0.6384 -1.7259
  117OSM   C18F12280   0.489   5.317   4.082 -0.0861  0.1459 -0.5512
  117OSM   H18F12281   0.572   5.270   4.140 -2.0618 -2.2515  0.5538
  117OSM   H18G12282   0.523   5.413   4.038  0.0639  0.0131 -0.7234
  117OSM   H18H12283   0.472   5.245   3.999  4.8336 -0.9502 -0.9140
  118OSM      N12284   0.477   3.562   6.068  0.3569  0.4956 -0.3605
  118OSM    C1512285   0.554   3.494   5.957  0.2418 -0.5810  0.6058
  118OSM   H15A12286   0.533   3.388   5.947  0.6372 -0.5621 -0.6766
  118OSM   H15B12287   0.657   3.504   5.986  0.7838  0.2308 -1.4051
  118OSM   H15C12288   0.539   3.524   5.854 -0.9410 -0.5592  0.7653
  118OSM    C1412289   0.493   3.492   6.198 -0.5941  0.0449 -0.1668
  118OSM   H14A12290   0.446   3.553   6.274  1.7432  1.3135  0.3516
  118OSM   H14B12291   0.596   3.473   6.223 -0.9199  0.4100  1.5952
  118OSM   H14C12292   0.447   3.394   6.196 -1.2721  0.3646 -1.1974
  118OSM    C1312293   0.535   3.697   6.090 -0.5052 -0.2358 -0.0975
  118OSM   H13A12294   0.466   3.752   6.153 -0.0940  2.4434 -1.8194
  118OSM   H13B12295   0.552   3.748   5.996 -0.8771 -0.2851 -0.1926
  118OSM   H13C12296   0.630   3.689   6.141 -1.7155 -0.3276  2.2954
  118OSM    C1212297   0.335   3.565   6.023 -0.3944  0.1036  0.0580
  118OSM   H12A12298   0.298   3.465   6.005  0.0320  0.2547 -1.8287
  118OSM   H12B12299   0.329   3.617   5.929  3.5900 -2.8626 -2.1154
  118OSM    C1112300   0.238   3.632   6.124  0.3504 -0.4940  0.0845
  118OSM   H11A12301   0.242   3.585   6.225 -2.4016 -0.2939  0.3663
  118OSM   H11B12302   0.131   3.618   6.099 -0.0463 -2.4197  2.4513
  118OSM      P12303   0.188   3.888   6.089  0.0018  0.0567  0.0125
  118OSM    O1312304   0.127   3.932   6.217  0.6608 -0.3866 -0.5357
  118OSM    O1412305   0.292   3.974   6.023  0.2081 -0.3579  0.0639
  118OSM    O1112306   0.067   3.837   5.998  0.0183 -0.4700  0.2604
  118OSM    O1212307   0.271   3.763   6.131  0.1331 -0.1016 -0.2588
  118OSM    C1S12308  -0.034   3.927   5.945 -0.5364 -0.1148 -0.2679
  118OSM    H1S12309  -0.031   4.027   5.994  2.5122 -0.0468 -0.4034
  118OSM    H1T12310  -0.136   3.885   5.957 -0.5758  0.1597  0.4203
  118OSM     NF12311  -0.116   4.056   5.745 -0.0131 -0.6092  0.4910
  118OSM    HNF12312  -0.206   4.041   5.706 -0.4577 -0.6847  1.5144
  118OSM    C2S12313  -0.024   3.945   5.789 -0.3826 -0.3571  0.1807
  118OSM    H2S12314   0.078   3.981   5.764 -0.5270  0.2712  0.4766
  118OSM    C3S12315  -0.040   3.818   5.698  0.0091 -0.2223 -0.3794
  118OSM    H3S12316  -0.147   3.787   5.701  0.0541 -0.3041  1.2084
  118OSM     O312317   0.035   3.711   5.748 -0.1619  0.5084  0.1453
  118OSM    HO312318   0.052   3.747   5.835 -2.9171 -0.0312  1.0210
  118OSM    C4S12319  -0.006   3.847   5.547  0.8350 -0.3064 -0.5106
  118OSM    H4S12320  -0.088   3.893   5.490  1.3196 -0.4677 -1.3473
  118OSM    C5S12321   0.113   3.830   5.487  0.1730  0.1235  0.5896
  118OSM    H5S12322   0.188   3.767   5.538 -1.7168 -1.4160  1.6133
  118OSM    C6S12323   0.150   3.863   5.345  0.5820  0.6836  0.0602
  118OSM    H6S12324   0.076   3.923   5.288  0.1267  1.0970  1.0495
  118OSM    H6T12325   0.167   3.767   5.290  2.3927  1.7976 -1.4469
  118OSM    C7S12326   0.289   3.935   5.338  0.3999 -0.0684 -0.2568
  118OSM    H7S12327   0.374   3.869   5.363 -0.3931 -0.8880  0.3256
  118OSM    H7T12328   0.283   4.024   5.405 -2.4123  1.0633 -1.8110
  118OSM    C8S12329   0.324   4.004   5.203  0.2517  0.1590 -0.0278
  118OSM    H8S12330   0.414   4.066   5.218 -0.2666  0.8658  0.2002
  118OSM    H8T12331   0.237   4.066   5.173  2.2294  2.2633 -1.7627
  118OSM    C9S12332   0.355   3.903   5.097  0.2092 -0.7242  0.3501
  118OSM    H9S12333   0.264   3.841   5.084 -0.7531  0.7519 -0.1806
  118OSM    H9T12334   0.435   3.838   5.138 -0.3976 -1.2004  0.7941
  118OSM   C10S12335   0.413   3.977   4.968  0.8197  0.1452  0.0917
  118OSM   H10S12336   0.490   4.045   5.010 -0.9665  1.7479  0.8774
  118OSM   H10T12337   0.340   4.034   4.907  1.8285 -0.6457 -1.9591
  118OSM   C11S12338   0.480   3.880   4.866  0.5497 -0.8319 -0.1334
  118OSM   H11S12339   0.403   3.805   4.837  1.3417 -1.7762  0.1628
  118OSM   H11T12340   0.555   3.826   4.926 -1.3158 -1.2760  1.9325
  118OSM   C12S12341   0.543   3.955   4.747  0.3550  0.1008  0.0911
  118OSM   H12S12342   0.650   3.975   4.770  0.2211  1.2573 -0.2365
  118OSM   H12T12343   0.493   4.049   4.713 -1.3014 -1.2617 -1.4104
  118OSM   C13S12344   0.530   3.871   4.614 -0.0594 -0.0820 -0.1688
  118OSM   H13S12345   0.423   3.865   4.586 -0.5305 -5.2025  1.5884
  118OSM   H13T12346   0.572   3.769   4.630 -0.6795 -0.1782  0.9299
  118OSM   C14S12347   0.610   3.931   4.499  0.1745  0.0858 -0.5784
  118OSM   H14S12348   0.595   3.874   4.405 -1.3673 -1.1813  0.3992
  118OSM   H14T12349   0.717   3.925   4.530  0.4272  0.5057 -1.3286
  118OSM   C15S12350   0.590   4.081   4.475 -0.4121 -0.0843  0.3690
  118OSM   H15S12351   0.624   4.149   4.556 -0.9518  0.3680  0.2240
  118OSM   H15T12352   0.482   4.106   4.471 -0.7408 -1.3195  1.1637
  118OSM   C16S12353   0.651   4.129   4.339  0.0888 -0.4033  0.0012
  118OSM   H16S12354   0.613   4.055   4.264  0.6348  2.3148 -3.2045
  118OSM   H16T12355   0.762   4.124   4.327  0.2676 -4.9394  1.3560
  118OSM   C17S12356   0.600   4.262   4.286  0.1378  0.3683 -0.5783
  118OSM   H17S12357   0.648   4.337   4.353  0.4087  0.0348 -0.3995
  118OSM   H17T12358   0.491   4.275   4.298 -0.1487 -2.5525  0.7972
  118OSM   C18S12359   0.636   4.304   4.142 -0.0984  0.2710  0.3264
  118OSM   H18S12360   0.595   4.222   4.080  0.5762 -0.2432  0.5523
  118OSM   H18T12361   0.745   4.290   4.127  0.4255  2.6278  1.4449
  118OSM   H18U12362   0.596   4.407   4.129  1.5554  0.7009 -2.1162
  118OSM    C1F12363  -0.096   4.192   5.771 -0.9652  0.6374  0.3354
  118OSM     OF12364   0.010   4.227   5.829 -0.2626 -0.5754  0.0960
  118OSM    C2F12365  -0.195   4.286   5.718  0.3208 -0.3949  0.3308
  118OSM    H2F12366  -0.261   4.324   5.799  1.4687 -0.2641  1.2215
  118OSM    H2G12367  -0.271   4.237   5.654  0.2042 -0.4193  0.4852
  118OSM    C3F12368  -0.139   4.410   5.650 -0.6945 -0.2941 -0.6186
  118OSM    H3F12369  -0.078   4.471   5.721 -1.4766 -1.1903  0.8840
  118OSM    H3G12370  -0.226   4.472   5.623 -0.5090 -0.4632 -1.6372
  118OSM    C4F12371  -0.058   4.381   5.520  0.2787 -0.4724 -0.3313
  118OSM    H4F12372   0.037   4.344   5.564 -0.4653 -1.1123  0.7719
  118OSM    H4G12373  -0.034   4.477   5.469 -0.5492  0.2246  0.5422
  118OSM    C5F12374  -0.119   4.283   5.422 -0.6642 -0.7727  0.0259
  118OSM    H5F12375  -0.212   4.339   5.399  0.2222  2.0621  2.5962
  118OSM    H5G12376  -0.142   4.188   5.475 -2.4209  0.6238  1.9279
  118OSM    C6F12377  -0.035   4.254   5.303  0.6109  0.0307  0.4579
  118OSM    H6F12378   0.064   4.208   5.323 -0.4511 -2.7710 -0.2595
  118OSM    H6G12379  -0.025   4.345   5.240 -0.1253 -1.4393 -1.9090
  118OSM    C7F12380  -0.104   4.156   5.208  0.3352 -0.3962 -0.2929
  118OSM    H7F12381  -0.200   4.204   5.177  0.9034 -0.1635 -1.7556
  118OSM    H7G12382  -0.120   4.063   5.268  0.9985  0.0487  0.6100
  118OSM    C8F12383  -0.043   4.132   5.066 -0.4442  0.2652 -0.4593
  118OSM    H8F12384   0.060   4.091   5.066 -0.0255  1.2343  1.3001
  118OSM    H8G12385  -0.025   4.233   5.024  1.4556 -0.3011 -1.0997
  118OSM    C9F12386  -0.148   4.066   4.983 -0.5471  0.0506 -0.1800
  118OSM    H9F12387  -0.241   4.123   4.973 -0.2126  0.5951 -0.2446
  118OSM   C10F12388  -0.132   3.950   4.918  0.2555 -0.4365  0.6799
  118OSM   H10F12389  -0.221   3.896   4.881 -0.2910  1.4748 -0.9780
  118OSM   C11F12390  -0.009   3.867   4.925  0.3320  0.3373  0.4590
  118OSM   H11F12391  -0.017   3.778   4.991  4.0554 -0.4402  0.0995
  118OSM   H11G12392   0.071   3.924   4.976 -0.5147  1.1094  0.9615
  118OSM   C12F12393   0.030   3.826   4.779  0.1387  0.3814  0.4801
  118OSM   H12F12394  -0.050   3.764   4.732  0.2696  0.5420  0.0383
  118OSM   H12G12395   0.118   3.760   4.794  0.7978  0.2690 -2.9676
  118OSM   C13F12396   0.074   3.938   4.691  0.1274  0.2084  0.3849
  118OSM   H13F12397   0.164   3.973   4.746  0.1596  0.0870  0.4100
  118OSM   H13G12398  -0.002   4.017   4.673  1.7652  1.5308 -1.2253
  118OSM   C14F12399   0.104   3.873   4.550  0.4441 -0.2529  0.3762
  118OSM   H14F12400   0.011   3.843   4.497  0.3316 -2.3682  1.6659
  118OSM   H14G12401   0.177   3.790   4.559 -0.5612 -1.1887  0.1356
  118OSM   C15F12402   0.170   3.981   4.456  0.7609  0.0547  0.5842
  118OSM   H15F12403   0.264   4.017   4.503  0.8591 -0.6116  0.9151
  118OSM   H15G12404   0.114   4.077   4.454  1.7738  0.6808  1.5961
  118OSM   C16F12405   0.197   3.930   4.316  0.5076  0.4349 -0.0827
  118OSM   H16F12406   0.110   3.877   4.272  0.6904 -0.9940  1.1922
  118OSM   H16G12407   0.275   3.851   4.325  1.4894  1.3886 -0.0485
  118OSM   C17F12408   0.259   4.033   4.222 -0.5142 -0.2216 -0.5760
  118OSM   H17F12409   0.254   3.986   4.122 -0.5137 -2.1489  0.2966
  118OSM   H17G12410   0.366   4.040   4.253  0.0022 -1.7149 -1.8788
  118OSM   C18F12411   0.210   4.179   4.221  0.3717  0.3398  0.0118
  118OSM   H18F12412   0.115   4.180   4.163 -0.2225  1.6521  0.9589
  118OSM   H18G12413   0.283   4.247   4.171 -0.6544 -0.8111 -3.3750
  118OSM   H18H12414   0.181   4.215   4.322  3.3487 -2.0133  1.8719
  119OSM      N12415   3.012   0.135   6.171 -0.4301 -0.2758 -0.4469
  119OSM    C1512416   3.143   0.181   6.229  0.1410  0.4070 -0.0162
  119OSM   H15A12417   3.168   0.139   6.326  0.5176 -0.8858 -0.6411
  119OSM   H15B12418   3.146   0.288   6.240  1.9240  0.4453 -0.4793
  119OSM   H15C12419   3.228   0.157   6.167 -0.5640 -3.4731  0.2633
  119OSM    C1412420   3.018  -0.013   6.153 -0.1279  0.6511  0.2757
  119OSM   H14A12421   3.023  -0.062   6.249 -0.5292 -0.7718 -0.4143
  119OSM   H14B12422   3.104  -0.058   6.107 -1.7605 -2.5130  0.0431
  119OSM   H14C12423   2.924  -0.055   6.120  0.5180  0.0802 -0.8954
  119OSM    C1312424   2.892   0.185   6.247 -0.5094  0.0265 -0.2338
  119OSM   H13A12425   2.796   0.175   6.198 -0.4340  0.2609 -0.4290
  119OSM   H13B12426   2.904   0.289   6.272 -2.0592  0.1441  0.1621
  119OSM   H13C12427   2.875   0.130   6.339  0.6423  0.3064  0.1580
  119OSM    C1212428   3.007   0.204   6.031  0.2565 -0.1721  0.0805
  119OSM   H12A12429   2.983   0.307   6.053  0.7236 -0.3593  1.6420
  119OSM   H12B12430   2.924   0.154   5.984 -0.6633  0.7817  0.6408
  119OSM    C1112431   3.130   0.210   5.941  0.0897 -0.3181  0.8563
  119OSM   H11A12432   3.108   0.261   5.844 -0.0964 -2.5988 -0.3913
  119OSM   H11B12433   3.155   0.109   5.902  0.4516 -0.5313  1.6257
  119OSM      P12434   3.288   0.424   5.982 -0.0127  0.1301  0.1015
  119OSM    O1312435   3.173   0.501   6.026 -0.3450  0.4696 -0.4689
  119OSM    O1412436   3.417   0.454   6.046 -0.5654 -0.6189  0.3697
  119OSM    O1112437   3.301   0.450   5.825 -0.7482  0.1390  0.0657
  119OSM    O1212438   3.247   0.270   6.001  0.1433 -0.0986  0.3742
  119OSM    C1S12439   3.406   0.377   5.752 -0.6815 -0.8491  1.3882
  119OSM    H1S12440   3.389   0.268   5.753 -0.1131 -0.9829 -0.1019
  119OSM    H1T12441   3.505   0.422   5.777  0.5145  0.3453 -4.0431
  119OSM     NF12442   3.482   0.327   5.510 -0.5962  0.0589 -0.0009
  119OSM    HNF12443   3.560   0.373   5.469 -0.5329  0.8095  0.9323
  119OSM    C2S12444   3.402   0.415   5.592  0.0647 -0.1464  0.0557
  119OSM    H2S12445   3.296   0.399   5.561 -0.2199  1.0692  0.3607
  119OSM    C3S12446   3.436   0.565   5.567 -0.1302  0.4376 -0.9157
  119OSM    H3S12447   3.542   0.582   5.593 -0.3776 -0.1419  0.5369
  119OSM     O312448   3.362   0.643   5.656  0.6895  0.3361 -0.5571
  119OSM    HO312449   3.317   0.576   5.708  0.9607  0.7365  0.2124
  119OSM    C4S12450   3.382   0.599   5.434 -0.1605 -0.2442 -0.6407
  119OSM    H4S12451   3.284   0.649   5.437 -0.5883 -1.1180  1.2821
  119OSM    C5S12452   3.451   0.596   5.319 -0.3698 -0.4885 -0.1589
  119OSM    H5S12453   3.558   0.571   5.327 -0.2772  0.0578  0.4262
  119OSM    C6S12454   3.412   0.634   5.182  0.0887 -0.5341 -0.4461
  119OSM    H6S12455   3.446   0.737   5.159  1.6428 -0.9806 -0.2172
  119OSM    H6T12456   3.301   0.637   5.170  0.0399  2.6097 -0.0457
  119OSM    C7S12457   3.485   0.543   5.084 -0.4412  0.6460 -0.0315
  119OSM    H7S12458   3.446   0.441   5.102  0.5841  0.1983 -0.2311
  119OSM    H7T12459   3.593   0.534   5.111 -0.3630 -1.2632 -0.8402
  119OSM    C8S12460   3.462   0.577   4.933 -0.1724 -0.9766  0.1752
  119OSM    H8S12461   3.490   0.684   4.922 -0.8090 -0.8391 -0.1522
  119OSM    H8T12462   3.356   0.567   4.904 -0.2925 -1.9235  0.8718
  119OSM    C9S12463   3.552   0.493   4.840 -0.5126  0.4683  0.8629
  119OSM    H9S12464   3.518   0.388   4.852 -2.0506  0.7631 -0.6268
  119OSM    H9T12465   3.655   0.511   4.877  0.6873  0.1560 -2.0404
  119OSM   C10S12466   3.535   0.528   4.690 -0.8463  0.0729  0.0183
  119OSM   H10S12467   3.575   0.628   4.662 -0.6916  0.0274  0.0742
  119OSM   H10T12468   3.426   0.546   4.680 -1.1275 -1.1315  0.7259
  119OSM   C11S12469   3.580   0.419   4.597 -1.1289 -0.7483 -0.8813
  119OSM   H11S12470   3.546   0.447   4.495  0.8138  0.2788 -1.2989
  119OSM   H11T12471   3.539   0.321   4.630 -1.7921 -0.3353 -0.4693
  119OSM   C12S12472   3.731   0.387   4.613  0.6435  0.3073  0.6497
  119OSM   H12S12473   3.745   0.280   4.586 -1.7964 -0.3004  1.5236
  119OSM   H12T12474   3.756   0.393   4.720  0.0649 -0.0338  0.8097
  119OSM   C13S12475   3.832   0.473   4.525 -0.2585  0.7293  0.1871
  119OSM   H13S12476   3.931   0.427   4.546  0.6832  2.3157 -0.4867
  119OSM   H13T12477   3.821   0.579   4.557 -0.1036  1.1589 -1.1180
  119OSM   C14S12478   3.807   0.474   4.376 -0.0789 -0.4897  0.0344
  119OSM   H14S12479   3.713   0.524   4.343 -0.3775 -1.2994 -0.3836
  119OSM   H14T12480   3.785   0.368   4.349 -2.1981 -0.0761 -0.0173
  119OSM   C15S12481   3.932   0.527   4.298 -0.0291 -0.4220 -0.8045
  119OSM   H15S12482   4.020   0.481   4.348  0.2748 -0.9265 -1.7746
  119OSM   H15T12483   3.949   0.637   4.292  1.5629 -0.6722 -1.3176
  119OSM   C16S12484   3.941   0.481   4.154 -0.3434  0.0813  0.3372
  119OSM   H16S12485   3.872   0.553   4.105 -0.2612 -0.6697 -0.9297
  119OSM   H16T12486   3.912   0.376   4.134 -2.3243  0.8508 -1.3027
  119OSM   C17S12487   4.080   0.506   4.088  0.0206 -0.1676  0.5498
  119OSM   H17S12488   4.151   0.471   4.165 -0.3193 -1.7600  0.1773
  119OSM   H17T12489   4.098   0.614   4.074 -2.1501  0.5702  2.8153
  119OSM   C18S12490   4.094   0.414   3.969  0.4771 -0.4659  0.1302
  119OSM   H18S12491   4.001   0.375   3.923  0.9340  0.6501 -1.8439
  119OSM   H18T12492   4.155   0.322   3.982 -1.5698 -1.7883  0.9785
  119OSM   H18U12493   4.146   0.472   3.891 -0.6490  1.4451  0.7086
  119OSM    C1F12494   3.465   0.197   5.492 -0.4686  0.5813  0.2365
  119OSM     OF12495   3.354   0.145   5.511  0.3380  0.0499  0.3753
  119OSM    C2F12496   3.586   0.116   5.435  0.5057  0.4447 -0.7704
  119OSM    H2F12497   3.652   0.074   5.514  0.7941 -1.8652 -2.1539
  119OSM    H2G12498   3.646   0.191   5.379  0.6419  0.1943 -0.9602
  119OSM    C3F12499   3.550   0.006   5.334 -0.1259 -0.3419 -0.0329
  119OSM    H3F12500   3.509  -0.080   5.390 -1.2434 -2.2329 -3.4371
  119OSM    H3G12501   3.651  -0.023   5.296 -0.2157 -1.3639  0.4807
  119OSM    C4F12502   3.465   0.043   5.213 -0.3913  0.2368 -1.1693
  119OSM    H4F12503   3.519   0.120   5.155 -1.4228  1.0083 -1.1293
  119OSM    H4G12504   3.364   0.083   5.235 -1.2023 -0.9960 -2.4565
  119OSM    C5F12505   3.420  -0.074   5.128 -0.2020 -0.2930 -0.6398
  119OSM    H5F12506   3.374  -0.149   5.197 -1.1680  0.4910 -0.3926
  119OSM    H5G12507   3.510  -0.116   5.079  1.0073  0.8369  0.5337
  119OSM    C6F12508   3.310  -0.034   5.021  0.4501  0.3881 -0.2667
  119OSM    H6F12509   3.244   0.045   5.063 -0.6249 -1.2011  1.1719
  119OSM    H6G12510   3.250  -0.125   5.002  0.4367  0.6220 -1.4008
  119OSM    C7F12511   3.375   0.020   4.894  0.2497  0.0780 -0.4215
  119OSM    H7F12512   3.391  -0.072   4.835  2.3060 -2.0248  3.0457
  119OSM    H7G12513   3.479   0.054   4.913 -0.1101  2.2206 -1.9731
  119OSM    C8F12514   3.293   0.125   4.809 -0.7070  0.4168  0.5528
  119OSM    H8F12515   3.353   0.154   4.720  0.2980 -1.8666  0.4230
  119OSM    H8G12516   3.280   0.224   4.859 -1.5072  1.3450 -1.4131
  119OSM    C9F12517   3.155   0.088   4.761  0.5712  0.3199  0.3109
  119OSM    H9F12518   3.081   0.108   4.840  0.9997  2.8986  0.1664
  119OSM   C10F12519   3.118   0.070   4.641  0.5026  0.3867 -0.4272
  119OSM   H10F12520   3.012   0.049   4.620  0.9843 -0.5494 -2.0864
  119OSM   C11F12521   3.202   0.073   4.514  0.2917  0.0395  0.4362
  119OSM   H11F12522   3.179  -0.017   4.452 -0.9087  1.6481 -1.6072
  119OSM   H11G12523   3.310   0.077   4.538 -0.0782 -0.1888  2.2293
  119OSM   C12F12524   3.185   0.186   4.409 -0.3995  0.0068 -0.9815
  119OSM   H12F12525   3.079   0.215   4.395  0.0519  2.3693  0.0170
  119OSM   H12G12526   3.230   0.148   4.315  0.3728  0.8412 -0.9611
  119OSM   C13F12527   3.266   0.317   4.455  0.8820  0.3293 -0.2734
  119OSM   H13F12528   3.367   0.282   4.484  1.2713 -0.1491 -2.0442
  119OSM   H13G12529   3.218   0.354   4.548  0.0467  0.5777 -0.7867
  119OSM   C14F12530   3.264   0.430   4.354  0.5378  0.4913  0.3443
  119OSM   H14F12531   3.309   0.518   4.405 -0.1595 -0.2662  2.3808
  119OSM   H14G12532   3.163   0.468   4.327 -0.7042 -1.3572  2.0999
  119OSM   C15F12533   3.334   0.382   4.223  0.7025 -0.0090 -0.2652
  119OSM   H15F12534   3.271   0.303   4.178  1.9943 -1.8956  1.0858
  119OSM   H15G12535   3.426   0.320   4.235 -0.0204 -1.6529 -2.4764
  119OSM   C16F12536   3.371   0.495   4.127  0.8041 -0.6335  0.1824
  119OSM   H16F12537   3.325   0.588   4.166 -1.5331 -1.0113 -1.4821
  119OSM   H16G12538   3.331   0.468   4.027  0.4621 -1.2359  0.4732
  119OSM   C17F12539   3.527   0.520   4.118 -0.3744 -0.2159 -0.2248
  119OSM   H17F12540   3.576   0.422   4.139  0.1285  0.0848  0.0226
  119OSM   H17G12541   3.558   0.583   4.204  1.0095  2.3969 -2.4596
  119OSM   C18F12542   3.565   0.587   3.990 -0.3779 -0.4546 -0.2101
  119OSM   H18F12543   3.549   0.506   3.916  1.3386 -0.5983 -0.4479
  119OSM   H18G12544   3.666   0.631   3.982 -1.0731  1.6541  1.5151
  119OSM   H18H12545   3.504   0.680   3.979  1.8178  1.2320  0.9594
  120OSM      N12546   5.857   5.336   5.992  0.8103  0.2088  0.3770
  120OSM    C1512547   5.951   5.234   6.043  0.2944 -0.6838 -0.4920
  120OSM   H15A12548   5.899   5.148   6.082  1.3299 -0.7905  0.7087
  120OSM   H15B12549   6.008   5.278   6.123  0.9492  0.4781 -1.5544
  120OSM   H15C12550   6.013   5.207   5.959  2.3873  0.7552  0.5214
  120OSM    C1412551   5.751   5.271   5.915 -0.3561  0.3444 -0.5638
  120OSM   H14A12552   5.714   5.190   5.977  1.0884  0.7528  0.9114
  120OSM   H14B12553   5.795   5.233   5.824 -0.4694 -0.1737 -0.4096
  120OSM   H14C12554   5.671   5.339   5.890 -0.2690  0.6480 -0.0285
  120OSM    C1312555   5.782   5.391   6.116  0.2652  0.3812  0.0555
  120OSM   H13A12556   5.763   5.313   6.188 -0.0709 -0.1033 -0.5497
  120OSM   H13B12557   5.685   5.426   6.084 -0.8088 -1.7925  0.6750
  120OSM   H13C12558   5.845   5.462   6.168  0.6978 -0.3324  0.5380
  120OSM    C1212559   5.922   5.452   5.913  0.1432 -0.0693 -0.4643
  120OSM   H12A12560   5.985   5.508   5.980  2.4509 -1.7947 -1.0533
  120OSM   H12B12561   5.849   5.524   5.880  0.8514  0.8376 -0.0818
  120OSM    C1112562   6.002   5.420   5.789  0.6872 -0.0977 -0.4760
  120OSM   H11A12563   6.039   5.517   5.750  0.4098 -0.1187 -0.7986
  120OSM   H11B12564   5.936   5.394   5.703 -0.4447  4.3332 -1.2304
  120OSM      P12565   6.114   5.188   5.732  0.2816  0.0104 -0.1731
  120OSM    O1312566   6.233   5.115   5.779  0.0206  0.5449 -0.0394
  120OSM    O1412567   5.985   5.125   5.751 -0.2280 -0.1273 -0.0943
  120OSM    O1112568   6.136   5.237   5.583 -0.1064  0.2042  0.0368
  120OSM    O1212569   6.110   5.326   5.810 -0.1545  0.5431  0.4760
  120OSM    C1S12570   6.233   5.340   5.560  0.6864 -0.1326  0.3052
  120OSM    H1S12571   6.322   5.332   5.627  0.2468 -1.7699  0.7354
  120OSM    H1T12572   6.188   5.440   5.572  1.0307  0.2522 -1.4586
  120OSM     NF12573   6.369   5.449   5.384  0.1987 -0.1315  0.3182
  120OSM    HNF12574   6.319   5.530   5.353  0.9943 -0.6850 -2.7776
  120OSM    C2S12575   6.286   5.330   5.407  0.3074 -0.0416 -0.2504
  120OSM    H2S12576   6.348   5.238   5.403 -0.3597 -0.5575  0.9035
  120OSM    C3S12577   6.164   5.309   5.309  0.2373  0.1507  0.5064
  120OSM    H3S12578   6.107   5.404   5.313  0.4252  0.2361  1.4653
  120OSM     O312579   6.081   5.197   5.334  0.5115  0.4009 -0.5933
  120OSM    HO312580   6.089   5.193   5.430 -0.2711  1.0061 -0.4927
  120OSM    C4S12581   6.216   5.289   5.169  0.2797  0.0115 -0.1986
  120OSM    H4S12582   6.278   5.200   5.150  0.0837 -0.3538  0.7990
  120OSM    C5S12583   6.219   5.385   5.079  0.8123 -0.1990 -0.1127
  120OSM    H5S12584   6.178   5.485   5.102  0.2259 -0.1237 -1.3746
  120OSM    C6S12585   6.275   5.370   4.942 -0.0337 -0.0257  0.2387
  120OSM    H6S12586   6.187   5.371   4.873 -1.5033 -1.3945  1.9983
  120OSM    H6T12587   6.323   5.270   4.935 -1.4916 -0.7256 -0.1861
  120OSM    C7S12588   6.373   5.481   4.929  0.2274 -0.3595 -0.1982
  120OSM    H7S12589   6.425   5.456   4.834 -1.7712  1.4638 -1.8684
  120OSM    H7T12590   6.454   5.489   5.004  0.5465  0.5765 -0.6375
  120OSM    C8S12591   6.313   5.621   4.892 -0.4117  0.7286 -0.4630
  120OSM    H8S12592   6.250   5.653   4.977  1.1123  1.5114  0.4171
  120OSM    H8T12593   6.247   5.613   4.803 -1.0277 -1.2419  0.1166
  120OSM    C9S12594   6.424   5.730   4.880  0.1022 -0.0795  0.1239
  120OSM    H9S12595   6.495   5.706   4.798 -1.1690 -0.1519 -0.9849
  120OSM    H9T12596   6.475   5.731   4.979 -1.3203  0.7977  0.8769
  120OSM   C10S12597   6.383   5.876   4.860  1.0622  0.2148 -0.0763
  120OSM   H10S12598   6.462   5.940   4.814 -0.6761  0.8391 -2.3743
  120OSM   H10T12599   6.346   5.920   4.955 -1.6958  1.1773 -1.5123
  120OSM   C11S12600   6.268   5.882   4.752 -0.2461  0.4414 -0.3901
  120OSM   H11S12601   6.185   5.818   4.788  0.9849 -0.1332  1.5476
  120OSM   H11T12602   6.298   5.835   4.655  0.4674  0.2477 -0.0847
  120OSM   C12S12603   6.218   6.025   4.714  1.1012  0.5180 -0.1602
  120OSM   H12S12604   6.292   6.079   4.651 -0.5653 -0.6906 -3.3485
  120OSM   H12T12605   6.192   6.080   4.807  0.3172 -0.2335  0.0796
  120OSM   C13S12606   6.081   6.011   4.637  0.3500  0.2409 -0.7179
  120OSM   H13S12607   6.015   6.100   4.653  0.3899  0.2534 -0.6265
  120OSM   H13T12608   6.027   5.928   4.687 -0.8685  2.6149  2.2067
  120OSM   C14S12609   6.098   5.975   4.484 -0.2600 -0.3267 -0.4672
  120OSM   H14S12610   6.180   5.901   4.470  0.0623 -0.6804  2.5372
  120OSM   H14T12611   6.144   6.063   4.435  0.0638  1.4619  2.7238
  120OSM   C15S12612   5.968   5.907   4.422 -0.7493 -0.1431  0.0256
  120OSM   H15S12613   5.890   5.985   4.410  0.5579  0.8621 -2.9343
  120OSM   H15T12614   5.939   5.825   4.490  2.2559 -0.6781  0.8012
  120OSM   C16S12615   5.994   5.868   4.269  0.0697 -0.4235 -1.0426
  120OSM   H16S12616   6.073   5.790   4.265  0.3398 -0.4132  1.6922
  120OSM   H16T12617   6.032   5.961   4.223  1.4295 -0.7483 -0.6355
  120OSM   C17S12618   5.865   5.808   4.223  0.2500  0.5171 -0.2676
  120OSM   H17S12619   5.779   5.878   4.221 -1.2794 -1.2391  0.9473
  120OSM   H17T12620   5.831   5.728   4.292 -1.3840 -0.2699 -1.9274
  120OSM   C18S12621   5.893   5.752   4.083 -0.0621 -0.1593 -0.5465
  120OSM   H18S12622   5.940   5.652   4.089 -0.3996 -0.2362  2.2966
  120OSM   H18T12623   5.944   5.825   4.016  2.4328 -2.5333 -1.3922
  120OSM   H18U12624   5.793   5.727   4.042 -0.5037 -0.1485  0.4958
  120OSM    C1F12625   6.484   5.469   5.442 -0.4890 -0.5259 -0.2971
  120OSM     OF12626   6.531   5.387   5.526  0.1408 -0.6809  0.6332
  120OSM    C2F12627   6.556   5.598   5.423 -0.6505  0.2001  0.5287
  120OSM    H2F12628   6.555   5.657   5.517 -1.6064  2.5316 -0.8569
  120OSM    H2G12629   6.503   5.656   5.344 -0.1598 -2.1081 -1.6496
  120OSM    C3F12630   6.712   5.573   5.402 -0.2436  0.0372 -0.2547
  120OSM    H3F12631   6.754   5.518   5.489  0.6588 -0.2285 -0.8460
  120OSM    H3G12632   6.781   5.659   5.399  0.0830 -0.0956  1.7020
  120OSM    C4F12633   6.735   5.481   5.281  0.1421  0.1087 -0.2957
  120OSM    H4F12634   6.675   5.388   5.289 -1.3155  1.1562  1.6721
  120OSM    H4G12635   6.838   5.441   5.293  0.7522  1.7972  0.4628
  120OSM    C5F12636   6.724   5.539   5.140 -0.2611 -0.3240 -0.5142
  120OSM    H5F12637   6.800   5.619   5.130 -0.4071 -0.2491 -1.0660
  120OSM    H5G12638   6.625   5.588   5.131  0.3106  1.4318  1.8082
  120OSM    C6F12639   6.744   5.440   5.021  0.4205 -0.9626  0.1517
  120OSM    H6F12640   6.658   5.371   5.005  0.8647 -1.7470  1.0330
  120OSM    H6G12641   6.834   5.383   5.054  0.6692  0.2860  1.7725
  120OSM    C7F12642   6.780   5.516   4.890 -0.2705 -0.1822 -0.2045
  120OSM    H7F12643   6.862   5.589   4.903 -0.0780 -0.5123  0.4922
  120OSM    H7G12644   6.690   5.573   4.858 -0.1436 -0.1568 -0.5175
  120OSM    C8F12645   6.826   5.419   4.775 -0.2270  0.5141 -0.0665
  120OSM    H8F12646   6.767   5.326   4.788  0.1476  0.0248 -1.6799
  120OSM    H8G12647   6.926   5.395   4.817 -0.5624  0.9059  0.9876
  120OSM    C9F12648   6.818   5.476   4.633 -0.1016 -0.2148  0.1900
  120OSM    H9F12649   6.889   5.559   4.621  0.4972 -0.8849 -1.2447
  120OSM   C10F12650   6.726   5.445   4.547  0.6960 -0.2517 -0.1807
  120OSM   H10F12651   6.739   5.499   4.452  1.9124 -0.9879 -0.4445
  120OSM   C11F12652   6.611   5.343   4.562  0.5287 -0.1613 -0.9024
  120OSM   H11F12653   6.605   5.303   4.666  1.3707  1.5852 -0.1401
  120OSM   H11G12654   6.623   5.258   4.492 -0.8772 -1.1527  0.0168
  120OSM   C12F12655   6.469   5.406   4.552  0.3389  0.3669  0.9105
  120OSM   H12F12656   6.455   5.450   4.450  0.1309 -1.3985  0.1347
  120OSM   H12G12657   6.465   5.485   4.630  2.4212 -0.8641  2.3345
  120OSM   C13F12658   6.356   5.308   4.569 -0.3915  0.1894 -0.1894
  120OSM   H13F12659   6.351   5.260   4.669 -1.7034 -0.2778 -0.4593
  120OSM   H13G12660   6.357   5.229   4.491 -1.2626 -0.2036  0.1798
  120OSM   C14F12661   6.222   5.377   4.549  0.4156  0.3662 -0.0379
  120OSM   H14F12662   6.213   5.412   4.444  0.4017 -0.2915 -0.2615
  120OSM   H14G12663   6.214   5.464   4.619  0.5254 -0.3163  0.8437
  120OSM   C15F12664   6.107   5.281   4.579  0.3999 -0.5036 -0.0000
  120OSM   H15F12665   6.118   5.219   4.670 -2.0510 -0.5982  0.2945
  120OSM   H15G12666   6.090   5.221   4.487  0.8537  1.0895 -1.1638
  120OSM   C16F12667   5.972   5.364   4.592  0.2002  0.0876  0.0426
  120OSM   H16F12668   5.928   5.389   4.493 -4.3811  0.9275  2.0155
  120OSM   H16G12669   5.998   5.463   4.636  0.0170  0.6964 -1.1603
  120OSM   C17F12670   5.869   5.295   4.683 -0.1225 -0.3568 -0.3342
  120OSM   H17F12671   5.782   5.365   4.686  0.0062 -0.1717 -0.8290
  120OSM   H17G12672   5.907   5.284   4.787 -0.0641 -1.3451 -0.4506
  120OSM   C18F12673   5.826   5.155   4.631 -0.2183 -1.1689 -0.1453
  120OSM   H18F12674   5.752   5.174   4.550 -1.6086 -2.8417  0.6698
  120OSM   H18G12675   5.779   5.110   4.720 -0.1792  0.6845  0.8653
  120OSM   H18H12676   5.911   5.103   4.581 -1.2922 -1.8452 -1.3350
  121OSM      N12677   5.823   6.777   6.031 -0.5490 -0.3531 -0.0590
  121OSM    C1512678   5.748   6.859   6.130  0.0603  0.2151  0.2107
  121OSM   H15A12679   5.643   6.875   6.111 -0.2470 -2.7568 -1.1560
  121OSM   H15B12680   5.783   6.958   6.157  2.6479 -0.4445 -0.4675
  121OSM   H15C12681   5.735   6.804   6.222 -2.4974  0.4526  0.0665
  121OSM    C1412682   5.965   6.770   6.077  0.4780 -0.4966  0.4853
  121OSM   H14A12683   6.032   6.708   6.019  2.2532  3.3072 -1.9007
  121OSM   H14B12684   5.977   6.721   6.173  3.1997 -3.3611 -1.1265
  121OSM   H14C12685   6.013   6.866   6.086 -0.6220  0.2479 -1.1642
  121OSM    C1312686   5.776   6.628   6.037  0.1589 -0.4158 -0.1454
  121OSM   H13A12687   5.672   6.613   6.012  0.2834  0.3545 -1.2001
  121OSM   H13B12688   5.793   6.580   6.132 -1.9310 -0.6095  0.1629
  121OSM   H13C12689   5.828   6.564   5.967  0.8676 -0.0053 -0.0040
  121OSM    C1212690   5.824   6.841   5.888 -0.1167  0.8632  0.1432
  121OSM   H12A12691   5.726   6.832   5.844 -0.7000  0.5207  1.4550
  121OSM   H12B12692   5.888   6.779   5.827 -1.1620  0.5382 -0.6519
  121OSM    C1112693   5.872   6.991   5.882 -0.8282  0.4207 -0.2022
  121OSM   H11A12694   5.873   7.013   5.773 -0.6414 -0.1640 -0.3182
  121OSM   H11B12695   5.981   6.994   5.902 -0.8338  2.5579 -0.2258
  121OSM      P12696   5.670   7.154   5.913 -0.3621 -0.0100 -0.0208
  121OSM    O1312697   5.560   7.062   5.906 -0.0968  0.2145  0.2634
  121OSM    O1412698   5.650   7.276   6.000 -0.3808  0.2538 -0.5865
  121OSM    O1112699   5.689   7.209   5.765 -0.2641  0.5467  0.0606
  121OSM    O1212700   5.804   7.085   5.954  0.1539 -0.4929 -0.2738
  121OSM    C1S12701   5.650   7.342   5.732 -0.4573 -0.4475  0.4300
  121OSM    H1S12702   5.702   7.416   5.796  0.8017  1.1144 -2.2338
  121OSM    H1T12703   5.541   7.363   5.737 -0.5037 -0.8609  1.6232
  121OSM     NF12704   5.710   7.544   5.571  0.2081  0.0919 -0.1331
  121OSM    HNF12705   5.649   7.584   5.502 -0.0829  2.1668  1.2525
  121OSM    C2S12706   5.707   7.396   5.591  0.6084  0.5249  0.2351
  121OSM    H2S12707   5.814   7.369   5.582  0.4080 -0.0793 -0.4833
  121OSM    C3S12708   5.636   7.320   5.480  0.3862  0.0230  0.3649
  121OSM    H3S12709   5.536   7.363   5.506 -0.0104 -1.5818  1.6662
  121OSM     O312710   5.634   7.174   5.495 -0.4859  0.1736 -0.2982
  121OSM    HO312711   5.660   7.154   5.586  2.2184  0.8464 -0.8416
  121OSM    C4S12712   5.670   7.373   5.344 -0.6645  0.7083  1.3608
  121OSM    H4S12713   5.590   7.441   5.311 -1.9629 -1.8626 -1.3132
  121OSM    C5S12714   5.767   7.314   5.268  0.2644  0.0899 -0.2834
  121OSM    H5S12715   5.833   7.237   5.311 -0.0449 -0.8518 -1.4023
  121OSM    C6S12716   5.799   7.344   5.117 -0.5845  0.0936 -0.8489
  121OSM    H6S12717   5.784   7.248   5.063 -1.1851 -0.0271 -0.4757
  121OSM    H6T12718   5.909   7.361   5.119 -0.0007 -2.7742  3.0360
  121OSM    C7S12719   5.736   7.442   5.033  0.0785  0.6093 -0.0812
  121OSM    H7S12720   5.782   7.540   5.057 -0.4050  1.0952 -1.0903
  121OSM    H7T12721   5.630   7.449   5.065  0.9664 -0.1253  3.5192
  121OSM    C8S12722   5.740   7.421   4.879  0.8600 -0.2151  0.0154
  121OSM    H8S12723   5.687   7.325   4.861  1.7368 -1.0676  1.8094
  121OSM    H8T12724   5.842   7.414   4.836 -0.5897  1.3111 -4.2433
  121OSM    C9S12725   5.646   7.523   4.805  0.0306 -0.6892 -0.1594
  121OSM    H9S12726   5.679   7.625   4.832 -1.0366 -1.3202  4.2933
  121OSM    H9T12727   5.539   7.518   4.836 -0.1129 -3.4759 -0.8279
  121OSM   C10S12728   5.653   7.497   4.657 -0.1355 -0.1546 -0.4247
  121OSM   H10S12729   5.612   7.399   4.624 -0.3263 -0.0887 -0.3805
  121OSM   H10T12730   5.760   7.487   4.629 -0.0717  0.4617 -0.4281
  121OSM   C11S12731   5.592   7.615   4.574  0.8194  0.0581  0.3879
  121OSM   H11S12732   5.650   7.708   4.592  1.0554  0.3991 -1.9029
  121OSM   H11T12733   5.486   7.632   4.603  0.4594  0.6540 -1.1875
  121OSM   C12S12734   5.579   7.592   4.421 -0.0594  0.4530  0.3045
  121OSM   H12S12735   5.505   7.510   4.408 -2.4542  2.4652  0.4979
  121OSM   H12T12736   5.676   7.549   4.389 -0.4474 -0.4894  0.3736
  121OSM   C13S12737   5.550   7.724   4.344  0.0659 -0.6466  0.2110
  121OSM   H13S12738   5.636   7.793   4.343 -0.9440  0.6431  0.0161
  121OSM   H13T12739   5.468   7.775   4.399 -0.6943 -0.9822 -0.5927
  121OSM   C14S12740   5.517   7.680   4.204  0.0552 -0.3054  0.6077
  121OSM   H14S12741   5.411   7.648   4.194 -0.8137  1.3223  3.4497
  121OSM   H14T12742   5.582   7.595   4.178  1.8299  1.0244  0.5135
  121OSM   C15S12743   5.527   7.794   4.097 -0.6154 -0.2247  0.0985
  121OSM   H15S12744   5.633   7.825   4.109 -0.7765 -0.2607  1.7229
  121OSM   H15T12745   5.457   7.874   4.130  0.4839  0.8621 -0.1538
  121OSM   C16S12746   5.498   7.750   3.953 -0.9884  0.4744 -0.2155
  121OSM   H16S12747   5.490   7.837   3.885 -0.1461  0.5301 -0.2532
  121OSM   H16T12748   5.408   7.684   3.956 -0.0303 -0.8745 -0.0016
  121OSM   C17S12749   5.617   7.663   3.893 -0.9331 -0.0024 -0.7711
  121OSM   H17S12750   5.630   7.574   3.958 -1.5379  1.4961  1.5158
  121OSM   H17T12751   5.710   7.723   3.887 -0.9046  0.1244  0.7030
  121OSM   C18S12752   5.595   7.609   3.754 -0.6400 -0.4160  0.0414
  121OSM   H18S12753   5.502   7.550   3.743 -1.1809  0.3366  0.4618
  121OSM   H18T12754   5.678   7.538   3.732  2.1925  1.9411  2.3070
  121OSM   H18U12755   5.592   7.689   3.677 -2.3766 -0.4718  0.0137
  121OSM    C1F12756   5.803   7.627   5.631 -0.1704 -0.1605 -0.1293
  121OSM     OF12757   5.883   7.580   5.707 -0.1048  0.1694 -0.5981
  121OSM    C2F12758   5.803   7.770   5.602 -0.6745 -0.3358 -0.2599
  121OSM    H2F12759   5.745   7.825   5.680  1.1434 -0.4054  1.2161
  121OSM    H2G12760   5.739   7.792   5.513 -1.4911 -0.6468  0.2382
  121OSM    C3F12761   5.930   7.843   5.569  0.5269  0.2742  0.8619
  121OSM    H3F12762   5.988   7.863   5.662 -0.0038 -1.0558  1.5073
  121OSM    H3G12763   5.903   7.948   5.547  0.7702  0.6940  2.4648
  121OSM    C4F12764   6.020   7.770   5.469  0.2562  0.0171 -0.3525
  121OSM    H4F12765   6.059   7.675   5.512 -0.4580  0.1374  0.5963
  121OSM    H4G12766   6.110   7.830   5.446  0.7306 -0.8766 -0.8954
  121OSM    C5F12767   5.931   7.734   5.340 -0.1258  0.7125  0.3480
  121OSM    H5F12768   5.850   7.666   5.375  0.2207 -0.9970 -1.9248
  121OSM    H5G12769   5.997   7.683   5.266 -0.3122  1.4553 -0.3476
  121OSM    C6F12770   5.887   7.858   5.266  0.1422  0.1286  0.3862
  121OSM    H6F12771   5.969   7.933   5.267 -0.2664  0.6055  2.5651
  121OSM    H6G12772   5.802   7.896   5.326  0.6159 -1.3302  2.0870
  121OSM    C7F12773   5.831   7.834   5.124  0.4065  0.6128 -0.1135
  121OSM    H7F12774   5.798   7.935   5.095 -1.7757  0.2451  0.8652
  121OSM    H7G12775   5.742   7.769   5.139 -1.1940  2.9231  0.8276
  121OSM    C8F12776   5.913   7.782   5.006  0.2789  0.5205 -0.7575
  121OSM    H8F12777   5.840   7.774   4.923  1.1831  1.8966 -1.7345
  121OSM    H8G12778   5.946   7.678   5.029 -2.0474  0.0162  0.6123
  121OSM    C9F12779   6.029   7.872   4.984 -0.7527 -0.6312 -0.4674
  121OSM    H9F12780   6.119   7.840   5.037  0.0468  0.6846 -0.9679
  121OSM   C10F12781   6.025   7.982   4.910  0.4151  0.3578  0.3333
  121OSM   H10F12782   6.115   8.043   4.899 -0.5459  1.7753  0.1112
  121OSM   C11F12783   5.904   8.039   4.846  0.5708  0.6418 -0.7007
  121OSM   H11F12784   5.875   8.131   4.902  0.7979  1.5325 -2.0110
  121OSM   H11G12785   5.820   7.967   4.842  3.6257 -3.3021 -0.2860
  121OSM   C12F12786   5.925   8.096   4.702 -0.0495  0.0139  0.3942
  121OSM   H12F12787   5.951   8.013   4.632 -2.4119 -0.9456  0.5455
  121OSM   H12G12788   5.999   8.178   4.694 -0.3375  0.1745 -0.7718
  121OSM   C13F12789   5.799   8.165   4.641 -0.8264  0.3067  0.2418
  121OSM   H13F12790   5.782   8.254   4.707 -0.3959 -0.8424  1.9724
  121OSM   H13G12791   5.713   8.100   4.670 -0.8303  0.5324  0.7639
  121OSM   C14F12792   5.829   8.197   4.487 -0.0034 -0.2917  0.0833
  121OSM   H14F12793   5.927   8.248   4.481 -1.0065  2.3728  3.3294
  121OSM   H14G12794   5.756   8.264   4.436 -1.7517 -1.6917  0.6335
  121OSM   C15F12795   5.844   8.072   4.398  0.1614  0.3119  0.0832
  121OSM   H15F12796   5.758   8.007   4.427 -1.2976  1.4710 -1.4423
  121OSM   H15G12797   5.935   8.012   4.415 -0.8458 -1.7328 -1.3814
  121OSM   C16F12798   5.809   8.097   4.245 -0.5265 -0.6530  0.0880
  121OSM   H16F12799   5.707   8.139   4.233  0.5370  1.9133 -0.6211
  121OSM   H16G12800   5.800   7.999   4.193 -1.0004 -0.6137  0.0902
  121OSM   C17F12801   5.917   8.189   4.174 -0.5874  0.5307  0.4198
  121OSM   H17F12802   6.018   8.149   4.195  0.4904  1.5014 -2.4467
  121OSM   H17G12803   5.917   8.290   4.220  0.1411  1.1092 -0.8008
  121OSM   C18F12804   5.912   8.193   4.019  0.7057  0.2587 -1.0555
  121OSM   H18F12805   5.897   8.090   3.981  1.8746 -0.1690 -0.4121
  121OSM   H18G12806   6.006   8.236   3.977  1.3149  1.0541  1.0097
  121OSM   H18H12807   5.822   8.247   3.981  0.5655 -0.1639 -1.3365
  122OSM      N12808   0.826   5.913   5.981  0.3618 -0.5559  0.3688
  122OSM    C1512809   0.869   6.046   6.042 -0.2853 -0.0178 -0.0198
  122OSM   H15A12810   0.823   6.063   6.138  0.1982  5.4412 -0.4311
  122OSM   H15B12811   0.851   6.128   5.974  2.4863  1.2373  0.6000
  122OSM   H15C12812   0.976   6.035   6.054 -0.5178 -0.7095  1.6320
  122OSM    C1412813   0.908   5.892   5.863 -0.1653 -0.0825  0.1622
  122OSM   H14A12814   0.900   5.788   5.834 -1.0334 -0.3182  1.1747
  122OSM   H14B12815   1.007   5.922   5.894  0.5239 -2.5281  0.5087
  122OSM   H14C12816   0.876   5.963   5.788 -0.7224  0.3001  0.7516
  122OSM    C1312817   0.852   5.805   6.082  0.2898 -0.1019 -0.1443
  122OSM   H13A12818   0.949   5.818   6.128 -1.8080  3.3019  3.9369
  122OSM   H13B12819   0.859   5.708   6.034  1.3028  0.1983 -0.6361
  122OSM   H13C12820   0.794   5.810   6.172  1.2591 -1.0230  0.5672
  122OSM    C1212821   0.676   5.909   5.943  0.4688 -0.0484 -0.0717
  122OSM   H12A12822   0.619   5.930   6.033 -2.2892 -2.3886 -1.1248
  122OSM   H12B12823   0.651   5.810   5.909  2.3485 -0.4336 -0.4698
  122OSM    C1112824   0.631   6.011   5.837  0.4434  0.3118  0.1143
  122OSM   H11A12825   0.533   5.977   5.797  1.2449 -1.1821 -0.6428
  122OSM   H11B12826   0.696   6.015   5.747  1.8268  0.8957  1.1092
  122OSM      P12827   0.497   6.191   5.980 -0.2409  0.3691  0.2360
  122OSM    O1312828   0.472   6.084   6.083  0.3964 -0.0726  0.3282
  122OSM    O1412829   0.506   6.322   6.036 -0.2136 -0.4003  0.1829
  122OSM    O1112830   0.366   6.178   5.883  0.0655 -0.4638 -0.1112
  122OSM    O1212831   0.627   6.143   5.895  0.1299  0.1021 -0.4109
  122OSM    C1S12832   0.344   6.273   5.781  0.8559 -0.5802  0.4091
  122OSM    H1S12833   0.419   6.355   5.796  0.2684  0.2049 -0.7576
  122OSM    H1T12834   0.243   6.317   5.796  1.1343  0.8554 -1.4499
  122OSM     NF12835   0.375   6.331   5.544  1.0411  0.0113  0.4508
  122OSM    HNF12836   0.293   6.364   5.497 -0.1664 -3.6017 -0.2838
  122OSM    C2S12837   0.355   6.221   5.639 -1.0689 -0.7774  0.2541
  122OSM    H2S12838   0.449   6.162   5.631 -0.7622 -0.1010 -2.0151
  122OSM    C3S12839   0.234   6.125   5.612 -0.5098 -0.1254 -0.0710
  122OSM    H3S12840   0.141   6.183   5.631 -0.0584 -0.0174  2.1749
  122OSM     O312841   0.236   6.010   5.700 -0.3980  0.3983  0.0835
  122OSM    HO312842   0.304   6.035   5.762  0.1733  0.2495 -0.4673
  122OSM    C4S12843   0.240   6.076   5.474  0.1634  0.6779 -0.2324
  122OSM    H4S12844   0.183   6.142   5.407 -1.3095 -0.1518  0.1590
  122OSM    C5S12845   0.301   5.959   5.426 -0.0793 -0.3230  0.1129
  122OSM    H5S12846   0.344   5.883   5.492  1.3154  1.4678  1.3623
  122OSM    C6S12847   0.299   5.914   5.276  0.0109 -0.0162  0.3030
  122OSM    H6S12848   0.226   5.831   5.267 -0.2210  0.3546 -1.9157
  122OSM    H6T12849   0.399   5.871   5.253  0.5609  0.1546  2.1989
  122OSM    C7S12850   0.262   6.031   5.174 -0.1377 -0.0839 -0.2282
  122OSM    H7S12851   0.355   6.091   5.175  0.2435 -0.6182 -1.3737
  122OSM    H7T12852   0.167   6.085   5.195 -0.4487 -0.1015 -1.4781
  122OSM    C8S12853   0.249   5.983   5.024 -0.2363  0.9377 -0.2570
  122OSM    H8S12854   0.181   5.896   5.015 -0.2615  0.9476 -0.1708
  122OSM    H8T12855   0.353   5.961   4.992  0.4387  2.9166  0.3624
  122OSM    C9S12856   0.187   6.090   4.929  0.4377 -0.0043 -0.0201
  122OSM    H9S12857   0.231   6.191   4.942 -0.8500  1.2315 -3.8148
  122OSM    H9T12858   0.080   6.101   4.957  0.1936 -0.5595 -0.7017
  122OSM   C10S12859   0.202   6.053   4.781  0.1326  0.1484  0.7476
  122OSM   H10S12860   0.135   5.970   4.748  1.0264  0.0737 -0.9958
  122OSM   H10T12861   0.307   6.019   4.773  0.5086  0.2402  3.9510
  122OSM   C11S12862   0.164   6.176   4.689 -0.2742 -0.1076  1.0001
  122OSM   H11S12863   0.242   6.250   4.717 -1.2986  1.8551 -1.0911
  122OSM   H11T12864   0.065   6.215   4.721 -1.0123 -0.6518 -0.5428
  122OSM   C12S12865   0.180   6.149   4.535  0.2048  0.9036 -0.8532
  122OSM   H12S12866   0.087   6.169   4.479  0.3717  2.0464 -0.7503
  122OSM   H12T12867   0.196   6.041   4.518 -3.1024  0.0527  0.7040
  122OSM   C13S12868   0.298   6.230   4.474  0.1252  0.1997 -0.4664
  122OSM   H13S12869   0.382   6.232   4.547  0.1326  1.7417 -0.4966
  122OSM   H13T12870   0.272   6.337   4.463  1.9358  1.0568  2.3466
  122OSM   C14S12871   0.343   6.168   4.342  0.2214  0.6442 -0.3541
  122OSM   H14S12872   0.257   6.191   4.275 -0.3081  1.5644  0.6197
  122OSM   H14T12873   0.348   6.057   4.356 -0.1116  0.9017  2.3600
  122OSM   C15S12874   0.479   6.223   4.291 -0.7059 -0.3892  0.2268
  122OSM   H15S12875   0.528   6.283   4.371  0.0863  0.5351 -0.9146
  122OSM   H15T12876   0.458   6.298   4.211  1.3025  1.1232  1.0339
  122OSM   C16S12877   0.584   6.130   4.229  0.3681  0.0001  0.3009
  122OSM   H16S12878   0.525   6.060   4.166  1.4470 -0.9635  0.3257
  122OSM   H16T12879   0.627   6.061   4.305 -1.9921 -1.0826  0.7665
  122OSM   C17S12880   0.697   6.218   4.166 -0.0111 -0.0554  0.7127
  122OSM   H17S12881   0.737   6.290   4.240  1.5912  0.7541 -0.8701
  122OSM   H17T12882   0.648   6.286   4.094 -0.6734  0.4638  1.6426
  122OSM   C18S12883   0.813   6.142   4.096  0.5078 -0.4704 -0.3524
  122OSM   H18S12884   0.888   6.117   4.174 -0.9542  1.1869  1.7289
  122OSM   H18T12885   0.861   6.198   4.013 -0.2752 -0.0937 -0.5651
  122OSM   H18U12886   0.774   6.056   4.039 -0.1234  0.4896 -1.4131
  122OSM    C1F12887   0.485   6.394   5.532 -0.3863  0.4634 -0.6307
  122OSM     OF12888   0.577   6.362   5.607  0.0183 -0.0751  0.3014
  122OSM    C2F12889   0.513   6.501   5.436  1.0746 -0.1967  0.1425
  122OSM    H2F12890   0.617   6.482   5.403  1.7201 -0.4838  2.1954
  122OSM    H2G12891   0.511   6.607   5.469 -2.9495 -0.6823  2.0929
  122OSM    C3F12892   0.427   6.488   5.308  0.3325  0.5263 -0.0212
  122OSM    H3F12893   0.326   6.531   5.325  0.4214  0.0589  1.9835
  122OSM    H3G12894   0.405   6.381   5.290 -1.9270  0.9012  0.2304
  122OSM    C4F12895   0.486   6.560   5.187  0.2665  0.1666 -0.2987
  122OSM    H4F12896   0.592   6.527   5.173 -0.6264 -3.8645  1.0614
  122OSM    H4G12897   0.481   6.669   5.205  2.7428  0.3055 -0.0376
  122OSM    C5F12898   0.409   6.534   5.054 -0.4613  0.6520 -0.3989
  122OSM    H5F12899   0.305   6.559   5.083  0.2296  0.3967  2.6883
  122OSM    H5G12900   0.402   6.427   5.022  0.6958  0.0267  1.3004
  122OSM    C6F12901   0.456   6.620   4.935  0.4955  0.2224 -0.6889
  122OSM    H6F12902   0.566   6.618   4.922  0.4380  2.7311 -2.3086
  122OSM    H6G12903   0.430   6.727   4.946 -1.6761 -0.0648 -2.3487
  122OSM    C7F12904   0.390   6.566   4.804  0.1004  0.5660 -0.4708
  122OSM    H7F12905   0.281   6.574   4.825  0.1645  1.6228 -0.4863
  122OSM    H7G12906   0.411   6.457   4.792  1.0004  0.5945  0.7416
  122OSM    C8F12907   0.435   6.645   4.678  0.4678  0.6582  0.1876
  122OSM    H8F12908   0.545   6.643   4.665  0.4172 -0.4968 -0.1242
  122OSM    H8G12909   0.401   6.749   4.700  1.9401  1.1976 -0.0328
  122OSM    C9F12910   0.358   6.598   4.562 -0.8410 -0.1979  0.4762
  122OSM    H9F12911   0.249   6.591   4.574 -0.9794  1.5961  0.5470
  122OSM   C10F12912   0.404   6.570   4.440 -0.1930  0.5979  0.2951
  122OSM   H10F12913   0.334   6.537   4.362 -0.3042  0.9451  0.2460
  122OSM   C11F12914   0.543   6.581   4.393  0.3239 -0.1660  0.7477
  122OSM   H11F12915   0.601   6.487   4.381  1.7687  0.8132 -0.2244
  122OSM   H11G12916   0.606   6.640   4.463  3.0544  0.2618 -1.8475
  122OSM   C12F12917   0.548   6.652   4.257 -0.0389  0.5164  0.9338
  122OSM   H12F12918   0.517   6.573   4.185  0.5126  0.6366  0.5570
  122OSM   H12G12919   0.651   6.684   4.231 -0.2578  0.0405 -0.6302
  122OSM   C13F12920   0.472   6.784   4.252 -0.1490 -0.1312  0.7247
  122OSM   H13F12921   0.519   6.855   4.324 -0.4238 -1.4408  2.2709
  122OSM   H13G12922   0.370   6.770   4.293  0.1588 -2.3020  0.8964
  122OSM   C14F12923   0.463   6.843   4.114 -0.6422 -0.0106  0.2185
  122OSM   H14F12924   0.404   6.777   4.048 -1.8357  1.2644 -0.0503
  122OSM   H14G12925   0.565   6.867   4.077 -1.7533  2.5573 -1.5401
  122OSM   C15F12926   0.378   6.982   4.118 -0.1862 -0.1487  0.3148
  122OSM   H15F12927   0.435   7.047   4.187  1.2587 -0.6848 -0.3340
  122OSM   H15G12928   0.280   6.945   4.155 -1.0384 -0.5587 -2.1489
  122OSM   C16F12929   0.365   7.046   3.978  0.8288 -0.0965  0.0945
  122OSM   H16F12930   0.331   6.963   3.912  0.5269  0.3988 -0.3809
  122OSM   H16G12931   0.460   7.091   3.940 -0.2429  2.1268 -0.1333
  122OSM   C17F12932   0.273   7.168   3.979  0.1970  0.2222 -0.2839
  122OSM   H17F12933   0.301   7.223   3.887  0.3340  0.9371  0.1840
  122OSM   H17G12934   0.297   7.239   4.061 -3.4322 -0.3681  1.5222
  122OSM   C18F12935   0.124   7.135   3.980 -0.2361  0.6685  0.4333
  122OSM   H18F12936   0.108   7.087   4.079  0.9768  2.2101  1.4251
  122OSM   H18G12937   0.101   7.076   3.889  0.2189 -1.0365  1.3695
  122OSM   H18H12938   0.064   7.228   3.982 -0.5573  0.5704 -2.0018
  123OSM      N12939   3.425   3.598   1.569 -1.0489  0.3737  0.8388
  123OSM    C1512940   3.521   3.676   1.480  0.6461 -0.3340 -0.3013
  123OSM   H15A12941   3.616   3.624   1.479 -0.3122 -2.1574  0.2949
  123OSM   H15B12942   3.531   3.780   1.509  0.1245 -0.5296  0.6145
  123OSM   H15C12943   3.487   3.675   1.377 -0.3504 -1.1609  0.0224
  123OSM    C1412944   3.437   3.446   1.546 -0.5574  0.2380 -0.0696
  123OSM   H14A12945   3.531   3.406   1.581 -1.1855 -2.0164 -0.8126
  123OSM   H14B12946   3.428   3.425   1.441  0.1475  0.0288 -0.0917
  123OSM   H14C12947   3.361   3.393   1.601  1.4124 -1.2747  1.3265
  123OSM    C1312948   3.464   3.630   1.705  0.1488 -0.3827  0.1290
  123OSM   H13A12949   3.460   3.737   1.719  2.6869 -0.4508  2.2961
  123OSM   H13B12950   3.570   3.615   1.723 -0.0400 -0.4443  1.2360
  123OSM   H13C12951   3.400   3.587   1.780 -1.8799  0.3665 -1.0906
  123OSM    C1212952   3.283   3.647   1.533  0.1337  0.6672  0.1460
  123OSM   H12A12953   3.219   3.584   1.594  0.6325 -0.7208 -0.7184
  123OSM   H12B12954   3.268   3.617   1.431  0.8957 -2.4363  0.8421
  123OSM    C1112955   3.253   3.800   1.555  0.0218  0.1760  1.0415
  123OSM   H11A12956   3.152   3.810   1.510 -0.0286  1.6479  1.4495
  123OSM   H11B12957   3.324   3.863   1.498 -0.1390  0.8770  1.6030
  123OSM      P12958   3.150   3.910   1.758 -0.2423  0.0757 -0.1642
  123OSM    O1312959   3.147   4.044   1.702 -0.4904  0.0554  0.3504
  123OSM    O1412960   3.029   3.831   1.742  0.3186  0.0900  0.5578
  123OSM    O1112961   3.180   3.907   1.916 -0.4286  0.1725 -0.2636
  123OSM    O1212962   3.272   3.830   1.694  0.2310  0.2490  0.0973
  123OSM    C1S12963   3.304   3.871   1.973  0.0238  0.6568 -0.3167
  123OSM    H1S12964   3.378   3.948   1.941 -0.6704  1.6877  0.4921
  123OSM    H1T12965   3.353   3.780   1.931 -0.2782 -1.4035  3.3841
  123OSM     NF12966   3.424   3.842   2.192  0.0550  0.1033  0.7231
  123OSM    HNF12967   3.470   3.754   2.203  0.5463  0.3484  0.6331
  123OSM    C2S12968   3.298   3.839   2.120 -0.0564 -0.2396 -0.3569
  123OSM    H2S12969   3.237   3.919   2.168  0.2019  0.4496 -1.1537
  123OSM    C3S12970   3.217   3.703   2.135  0.4337 -0.6271  0.0856
  123OSM    H3S12971   3.288   3.633   2.087  2.6633  1.5330  0.0224
  123OSM     O312972   3.098   3.708   2.066  0.2939  0.1086  0.2474
  123OSM    HO312973   3.105   3.789   2.015  1.7711 -1.5011 -2.3302
  123OSM    C4S12974   3.184   3.670   2.274 -0.3972 -0.4315  0.0107
  123OSM    H4S12975   3.106   3.736   2.313  0.5177  0.6512  0.0790
  123OSM    C5S12976   3.238   3.584   2.364 -0.2991 -0.1498  0.2723
  123OSM    H5S12977   3.333   3.535   2.337 -0.2397 -0.5214  1.1349
  123OSM    C6S12978   3.216   3.566   2.511  0.4901 -0.3166 -0.6232
  123OSM    H6S12979   3.270   3.472   2.536  0.0361 -0.3604  0.2048
  123OSM    H6T12980   3.107   3.552   2.526  0.8512 -0.7360  2.0888
  123OSM    C7S12981   3.262   3.675   2.619  0.4207  0.9151  0.0239
  123OSM    H7S12982   3.187   3.755   2.600 -0.2180 -0.1058 -2.0508
  123OSM    H7T12983   3.368   3.704   2.603  0.2267  0.3779 -2.9428
  123OSM    C8S12984   3.250   3.610   2.760  0.3388  0.0675 -0.7420
  123OSM    H8S12985   3.303   3.513   2.764 -0.7342 -0.4853  2.6341
  123OSM    H8T12986   3.146   3.576   2.775 -0.2152  0.8570 -2.4909
  123OSM    C9S12987   3.322   3.688   2.872  0.4070  0.1845 -0.2023
  123OSM    H9S12988   3.258   3.778   2.882  0.1250  0.1909 -1.7816
  123OSM    H9T12989   3.424   3.720   2.842  0.1183  1.8215  0.4880
  123OSM   C10S12990   3.338   3.606   3.005 -0.0392 -0.4629 -0.1910
  123OSM   H10S12991   3.348   3.498   2.982 -2.9097 -0.4159 -2.1423
  123OSM   H10T12992   3.246   3.612   3.067 -0.6909  0.9801 -1.2398
  123OSM   C11S12993   3.459   3.660   3.081  0.0115  0.4382 -0.3777
  123OSM   H11S12994   3.421   3.757   3.121 -1.3300 -0.1994 -0.0376
  123OSM   H11T12995   3.551   3.672   3.021  0.6766  0.3264  0.6001
  123OSM   C12S12996   3.488   3.578   3.208 -0.2818 -0.0167 -0.5889
  123OSM   H12S12997   3.571   3.630   3.260  0.7047  0.0307 -2.1573
  123OSM   H12T12998   3.521   3.474   3.188 -1.2679 -0.7743  1.4364
  123OSM   C13S12999   3.375   3.547   3.313 -0.4636  0.7069  0.1178
  123OSM   H13S13000   3.279   3.508   3.272 -2.0096  1.5924  2.6639
  123OSM   H13T13001   3.338   3.639   3.363  1.1948  1.5833 -0.2093
  123OSM   C14S13002   3.420   3.443   3.416 -0.3011  0.6433 -0.3387
  123OSM   H14S13003   3.495   3.485   3.486  0.6963 -2.9342  0.9409
  123OSM   H14T13004   3.474   3.362   3.362 -2.9560  0.1326 -2.4866
  123OSM   C15S13005   3.298   3.380   3.490 -0.1052  0.7029  0.8523
  123OSM   H15S13006   3.223   3.367   3.409 -0.0299  1.8167  0.5905
  123OSM   H15T13007   3.254   3.445   3.569  0.3911  3.0823 -0.7342
  123OSM   C16S13008   3.330   3.230   3.537 -0.0686 -0.3994 -0.6916
  123OSM   H16S13009   3.438   3.225   3.559 -0.2234 -0.3747  0.0985
  123OSM   H16T13010   3.309   3.164   3.450  1.8803 -1.7756 -0.1820
  123OSM   C17S13011   3.256   3.187   3.667 -0.4822  0.3836 -0.2978
  123OSM   H17S13012   3.149   3.167   3.648 -0.9492  1.7061  0.7683
  123OSM   H17T13013   3.268   3.262   3.748  0.2694 -2.8074  2.7951
  123OSM   C18S13014   3.320   3.061   3.729 -0.3957 -0.3959  0.1750
  123OSM   H18S13015   3.352   2.997   3.644 -1.1038  1.9843 -2.0296
  123OSM   H18T13016   3.237   3.024   3.793 -0.8698 -0.1225 -0.2720
  123OSM   H18U13017   3.409   3.096   3.786 -0.9406 -1.9018  2.0734
  123OSM    C1F13018   3.501   3.947   2.224  0.3949  0.0632 -0.5008
  123OSM     OF13019   3.458   4.058   2.204  0.3042  0.4812 -0.0959
  123OSM    C2F13020   3.638   3.913   2.275  0.9782  0.4124  0.3083
  123OSM    H2F13021   3.709   3.872   2.200  0.2499  0.0264 -0.1886
  123OSM    H2G13022   3.619   3.825   2.340 -1.6987  0.7097  0.0436
  123OSM    C3F13023   3.700   4.016   2.368 -0.5994 -0.2975  0.4567
  123OSM    H3F13024   3.631   4.070   2.436 -0.1325 -0.4936  1.0982
  123OSM    H3G13025   3.737   4.107   2.315 -0.8771 -0.3028  0.2529
  123OSM    C4F13026   3.811   3.959   2.470  0.5640 -0.0577  0.2106
  123OSM    H4F13027   3.873   4.044   2.504  2.1755 -0.8454 -0.6505
  123OSM    H4G13028   3.892   3.903   2.420  0.5593  1.1949 -1.2843
  123OSM    C5F13029   3.755   3.886   2.595 -0.5876 -0.4099  0.8433
  123OSM    H5F13030   3.703   3.791   2.572 -0.5081  0.2643 -2.6160
  123OSM    H5G13031   3.671   3.944   2.638 -1.4760 -0.2758 -0.9698
  123OSM    C6F13032   3.856   3.858   2.703 -0.6247 -0.1548  0.2746
  123OSM    H6F13033   3.923   3.947   2.707 -0.6346 -0.1820  1.5560
  123OSM    H6G13034   3.927   3.776   2.680 -1.7987 -1.7104  1.9813
  123OSM    C7F13035   3.792   3.825   2.836 -0.1443 -0.0911  0.0617
  123OSM    H7F13036   3.722   3.738   2.829 -0.2847  0.1397 -2.5281
  123OSM    H7G13037   3.738   3.921   2.852 -1.2574 -0.8737  1.2579
  123OSM    C8F13038   3.889   3.801   2.952 -0.5086  0.5763 -0.0695
  123OSM    H8F13039   3.836   3.770   3.044 -1.3500 -1.7210 -1.2676
  123OSM    H8G13040   3.940   3.899   2.967  0.2699  0.1439  0.1622
  123OSM    C9F13041   3.997   3.694   2.929  0.3065  0.3408 -0.2920
  123OSM    H9F13042   3.990   3.639   2.834  0.9892  1.2277 -0.8721
  123OSM   C10F13043   4.092   3.663   3.017  0.4936 -0.4801  0.0225
  123OSM   H10F13044   4.168   3.588   2.993 -1.1927 -2.0801 -0.6019
  123OSM   C11F13045   4.131   3.722   3.150 -0.3375  0.2901  0.0071
  123OSM   H11F13046   4.145   3.644   3.228 -1.1405 -1.0716 -1.1471
  123OSM   H11G13047   4.053   3.794   3.180 -0.0389  0.9953 -0.8616
  123OSM   C12F13048   4.264   3.804   3.151  0.9721 -0.0018 -0.2812
  123OSM   H12F13049   4.219   3.889   3.096  0.5218 -0.4594 -0.6254
  123OSM   H12G13050   4.346   3.762   3.088  1.4152  0.3969  0.0170
  123OSM   C13F13051   4.307   3.856   3.289 -0.5312 -0.2575  0.4589
  123OSM   H13F13052   4.216   3.889   3.343 -0.9857 -0.1804 -0.3382
  123OSM   H13G13053   4.377   3.941   3.276  0.2913 -1.1325 -1.2425
  123OSM   C14F13054   4.376   3.747   3.378 -0.1070 -0.2616  0.5531
  123OSM   H14F13055   4.472   3.722   3.327 -1.9267 -3.3920 -1.7061
  123OSM   H14G13056   4.310   3.660   3.400 -0.2725  0.0754  1.3891
  123OSM   C15F13057   4.407   3.807   3.517  1.1401  0.4931 -0.2775
  123OSM   H15F13058   4.311   3.849   3.552  0.1026 -1.5861 -0.4699
  123OSM   H15G13059   4.483   3.887   3.501  0.1229  1.5194 -0.0675
  123OSM   C16F13060   4.456   3.695   3.608  0.6814  0.2736  0.7242
  123OSM   H16F13061   4.558   3.662   3.580  1.4337  2.0016  1.2774
  123OSM   H16G13062   4.375   3.619   3.616  0.2841  0.5928 -0.1333
  123OSM   C17F13063   4.466   3.723   3.763 -0.2016  0.1637  0.2194
  123OSM   H17F13064   4.507   3.634   3.815 -0.9487 -0.2757  0.0684
  123OSM   H17G13065   4.375   3.749   3.821  0.0241 -0.4928  0.8862
  123OSM   C18F13066   4.571   3.843   3.791  0.6833  0.1179  0.3395
  123OSM   H18F13067   4.670   3.818   3.748  0.1579 -0.2418 -0.7092
  123OSM   H18G13068   4.585   3.857   3.901 -0.1196  0.3202  0.4239
  123OSM   H18H13069   4.542   3.934   3.735  0.0251 -0.5326 -0.4143
  124OSM      N13070   2.331   4.576   1.662 -1.2665  0.1453  0.6423
  124OSM    C1513071   2.196   4.511   1.694  0.4483  0.6543  0.2394
  124OSM   H15A13072   2.203   4.407   1.723 -1.6757  0.3229 -0.2303
  124OSM   H15B13073   2.129   4.507   1.609 -0.1936  0.8590  0.7250
  124OSM   H15C13074   2.147   4.565   1.774 -0.2509  1.4141 -0.6851
  124OSM    C1413075   2.417   4.490   1.581  0.1616 -0.2660  0.6244
  124OSM   H14A13076   2.517   4.530   1.576 -0.9626  2.5833 -2.3544
  124OSM   H14B13077   2.381   4.496   1.479  1.0700 -0.1627  0.3068
  124OSM   H14C13078   2.420   4.389   1.619  0.6476 -0.2521  0.6187
  124OSM    C1313079   2.302   4.699   1.585  0.0100 -0.3594  0.0249
  124OSM   H13A13080   2.225   4.750   1.641 -0.3427 -1.3734  0.4781
  124OSM   H13B13081   2.263   4.672   1.488 -2.3750 -0.7317  1.0084
  124OSM   H13C13082   2.384   4.768   1.570 -0.7325  0.3452 -0.9717
  124OSM    C1213083   2.409   4.602   1.787 -0.1003 -0.5222 -0.6980
  124OSM   H12A13084   2.510   4.627   1.755  0.6939 -2.9888 -0.3175
  124OSM   H12B13085   2.405   4.508   1.840 -0.9557 -0.3607 -0.4690
  124OSM    C1113086   2.356   4.707   1.887 -0.3332  0.1564  0.0755
  124OSM   H11A13087   2.406   4.696   1.986  3.3060  0.4930 -1.5833
  124OSM   H11B13088   2.247   4.694   1.905 -0.9073  1.9167 -1.6899
  124OSM      P13089   2.533   4.902   1.836  0.4389  0.1701  0.2258
  124OSM    O1313090   2.614   4.836   1.729 -0.3481 -0.2887 -0.2776
  124OSM    O1413091   2.521   5.047   1.825  0.1037 -0.1230  0.3564
  124OSM    O1113092   2.596   4.872   1.978 -0.2310 -0.7158  0.8758
  124OSM    O1213093   2.387   4.843   1.833  0.2306 -0.2005 -0.0576
  124OSM    C1S13094   2.737   4.905   1.993 -0.4559  0.4283 -0.0558
  124OSM    H1S13095   2.747   5.016   1.990 -2.1988  0.6552  0.8379
  124OSM    H1T13096   2.800   4.860   1.914  2.5301  0.0289  2.3730
  124OSM     NF13097   2.940   4.887   2.137  0.6285 -0.2182  0.5596
  124OSM    HNF13098   3.008   4.814   2.132 -1.0244 -1.7318 -1.9916
  124OSM    C2S13099   2.797   4.846   2.125  0.0591  0.3215  0.0331
  124OSM    H2S13100   2.734   4.877   2.211  1.0880 -1.2504  1.4263
  124OSM    C3S13101   2.796   4.691   2.113  0.5713 -0.0885  0.2801
  124OSM    H3S13102   2.856   4.661   2.024 -1.5814  1.4843 -1.8412
  124OSM     O313103   2.663   4.638   2.080  0.1209  0.7007 -0.7348
  124OSM    HO313104   2.626   4.723   2.055  0.0818  1.0613  0.5050
  124OSM    C4S13105   2.856   4.620   2.223 -0.2588  0.9745  0.3841
  124OSM    H4S13106   2.957   4.589   2.192 -0.7405 -0.4270  0.1494
  124OSM    C5S13107   2.805   4.585   2.345 -0.4796  0.4710 -0.1961
  124OSM    H5S13108   2.705   4.619   2.374 -1.2611 -1.8462  0.0466
  124OSM    C6S13109   2.893   4.517   2.449  0.6248  0.4567  0.3548
  124OSM    H6S13110   2.934   4.424   2.404  2.0373  1.2943 -0.1751
  124OSM    H6T13111   2.833   4.488   2.538  1.4695 -1.5598  0.3365
  124OSM    C7S13112   3.006   4.610   2.493 -0.4842 -0.4223  0.6650
  124OSM    H7S13113   2.958   4.705   2.523  0.3508 -0.5657  2.6246
  124OSM    H7T13114   3.071   4.618   2.404 -1.7046  2.5386 -0.0585
  124OSM    C8S13115   3.090   4.558   2.608  0.3966 -0.0459 -0.5863
  124OSM    H8S13116   3.146   4.469   2.573 -1.8450 -1.0945 -1.7666
  124OSM    H8T13117   3.035   4.516   2.695 -1.2623  0.7706 -1.1892
  124OSM    C9S13118   3.188   4.668   2.646 -0.2487 -0.3788 -0.1369
  124OSM    H9S13119   3.121   4.748   2.684  2.4676  1.5701  0.9319
  124OSM    H9T13120   3.241   4.691   2.551 -0.9607  1.0244 -0.2194
  124OSM   C10S13121   3.278   4.617   2.763  0.5383  0.3216 -0.0526
  124OSM   H10S13122   3.339   4.532   2.726  1.3976  1.3362 -1.0457
  124OSM   H10T13123   3.214   4.593   2.851  0.7117  2.5496  0.7489
  124OSM   C11S13124   3.388   4.718   2.807  0.7427 -0.5127  0.0941
  124OSM   H11S13125   3.347   4.796   2.875  0.8173  0.8036 -1.3076
  124OSM   H11T13126   3.428   4.764   2.714  0.7948 -0.9213 -0.0885
  124OSM   C12S13127   3.497   4.646   2.886 -0.9179  0.1615  0.1530
  124OSM   H12S13128   3.595   4.698   2.895  0.5770 -2.3573 -0.6276
  124OSM   H12T13129   3.523   4.548   2.841 -0.7015  0.0449  0.5223
  124OSM   C13S13130   3.447   4.612   3.017  0.1630 -0.3244 -0.4203
  124OSM   H13S13131   3.351   4.557   3.011 -0.5048  0.7435  0.2765
  124OSM   H13T13132   3.429   4.697   3.086  1.9484 -0.1142 -0.1605
  124OSM   C14S13133   3.546   4.525   3.094  0.2424 -0.5692  0.3887
  124OSM   H14S13134   3.646   4.573   3.100  0.4757 -0.8477 -1.0307
  124OSM   H14T13135   3.563   4.428   3.044  0.9152 -1.0641  1.5306
  124OSM   C15S13136   3.497   4.485   3.234 -0.0361  1.0521  0.3527
  124OSM   H15S13137   3.387   4.470   3.224  0.0699  0.9263 -0.7304
  124OSM   H15T13138   3.503   4.573   3.302 -0.4027  1.1799  0.2251
  124OSM   C16S13139   3.566   4.375   3.314  0.3044 -0.2585  0.1224
  124OSM   H16S13140   3.666   4.420   3.332  0.2877  0.2163 -0.8905
  124OSM   H16T13141   3.579   4.284   3.251  1.5485 -0.2916  0.3980
  124OSM   C17S13142   3.499   4.346   3.448 -0.5722 -0.8694 -0.1861
  124OSM   H17S13143   3.397   4.304   3.430 -0.1805 -1.0570 -2.2739
  124OSM   H17T13144   3.477   4.446   3.492  0.1200  0.4615 -2.6643
  124OSM   C18S13145   3.575   4.263   3.563 -0.2955 -0.1733 -0.0656
  124OSM   H18S13146   3.672   4.314   3.577  0.1454 -0.0693 -2.9000
  124OSM   H18T13147   3.593   4.156   3.536  0.9473  0.5973 -2.5905
  124OSM   H18U13148   3.511   4.277   3.653 -1.3189  1.6396 -1.0221
  124OSM    C1F13149   2.975   5.010   2.173  0.6949  0.5877 -0.4760
  124OSM     OF13150   2.901   5.109   2.162 -0.3024 -0.0635  0.2252
  124OSM    C2F13151   3.101   5.025   2.248  0.4345 -0.3026 -0.8708
  124OSM    H2F13152   3.137   5.128   2.224  0.4104 -0.2298 -0.5929
  124OSM    H2G13153   3.175   4.955   2.205  0.2464 -0.3674 -1.0945
  124OSM    C3F13154   3.082   5.007   2.405 -0.7640 -0.2005 -0.3669
  124OSM    H3F13155   3.173   5.021   2.467 -1.5720 -1.6120  1.2556
  124OSM    H3G13156   3.056   4.904   2.440  0.7010 -0.2080  0.8029
  124OSM    C4F13157   2.984   5.109   2.468  0.5824  0.2737  0.3414
  124OSM    H4F13158   2.887   5.094   2.416  1.5144 -1.4588 -1.0246
  124OSM    H4G13159   3.022   5.212   2.451  2.4168 -0.3897  0.2030
  124OSM    C5F13160   2.968   5.089   2.615 -0.5502 -0.3466  0.4404
  124OSM    H5F13161   2.953   5.185   2.667 -0.2349  1.7248 -2.9642
  124OSM    H5G13162   3.062   5.048   2.658 -0.2591  1.9883  2.2075
  124OSM    C6F13163   2.862   4.989   2.651  0.5012  0.2224  0.0249
  124OSM    H6F13164   2.872   4.900   2.585  0.5844  0.2992 -0.0657
  124OSM    H6G13165   2.763   5.026   2.617 -0.7375 -4.1001 -1.7720
  124OSM    C7F13166   2.847   4.951   2.804 -0.7658  0.6034 -0.3504
  124OSM    H7F13167   2.795   4.855   2.785  3.1911 -1.9257  0.5126
  124OSM    H7G13168   2.769   5.015   2.850 -0.7933  0.1610  0.2213
  124OSM    C8F13169   2.978   4.934   2.884 -0.2989 -0.1649  0.5774
  124OSM    H8F13170   3.021   5.029   2.921  0.4591 -0.4107  0.3595
  124OSM    H8G13171   3.052   4.900   2.808 -1.1110 -0.3529 -0.1556
  124OSM    C9F13172   2.973   4.841   3.003 -0.2079  0.7377  0.7762
  124OSM    H9F13173   2.976   4.739   2.962  1.1815  1.4942 -1.1206
  124OSM   C10F13174   2.945   4.863   3.133 -0.3174  0.2967 -0.1413
  124OSM   H10F13175   2.928   4.775   3.198  0.5156 -0.0176 -0.3361
  124OSM   C11F13176   2.928   4.992   3.202 -0.9660 -0.2534  0.0461
  124OSM   H11F13177   2.861   5.063   3.149 -1.4406 -1.3324 -0.8341
  124OSM   H11G13178   3.030   5.036   3.209 -0.1736 -1.9584 -0.0966
  124OSM   C12F13179   2.870   4.989   3.348 -0.3527  0.2921 -0.1119
  124OSM   H12F13180   2.950   4.982   3.425 -1.2659  0.3535  0.8500
  124OSM   H12G13181   2.802   4.904   3.372 -0.0926  0.3571  0.8789
  124OSM   C13F13182   2.773   5.107   3.384 -0.3152 -0.1773 -0.7848
  124OSM   H13F13183   2.717   5.133   3.291  0.5636  2.6633 -0.6218
  124OSM   H13G13184   2.829   5.203   3.395 -0.5213  0.0309 -1.4669
  124OSM   C14F13185   2.684   5.084   3.506  0.0119  0.3524 -1.2076
  124OSM   H14F13186   2.753   5.057   3.589  0.4575  0.8569 -1.4078
  124OSM   H14G13187   2.618   4.995   3.494  1.2688 -0.8431  0.1889
  124OSM   C15F13188   2.602   5.206   3.546 -0.1670  0.0301  0.4781
  124OSM   H15F13189   2.564   5.258   3.455  1.0357  1.0115  0.5095
  124OSM   H15G13190   2.651   5.277   3.615  0.1739 -0.7711  1.0754
  124OSM   C16F13191   2.476   5.155   3.628 -0.3625 -0.0657  0.3996
  124OSM   H16F13192   2.507   5.146   3.734 -1.7081  2.6491  1.0855
  124OSM   H16G13193   2.440   5.056   3.593 -2.7807 -0.0868  2.6508
  124OSM   C17F13194   2.368   5.249   3.602 -0.2375 -0.0579  0.5306
  124OSM   H17F13195   2.355   5.283   3.497  1.5924  0.1125  0.3325
  124OSM   H17G13196   2.393   5.346   3.651 -0.5897  0.6506 -0.6667
  124OSM   C18F13197   2.242   5.210   3.660  0.3072  0.2543  0.0003
  124OSM   H18F13198   2.224   5.105   3.627  3.6131 -0.5012  0.2828
  124OSM   H18G13199   2.154   5.273   3.633 -0.3318 -0.5452  0.1965
  124OSM   H18H13200   2.252   5.227   3.769  1.1524 -0.6717  0.0745
  125OSM      N13201   4.014   3.127   1.734 -0.2411  0.1739  0.1895
  125OSM    C1513202   3.936   3.239   1.791  0.0387  0.1201 -0.5732
  125OSM   H15A13203   3.877   3.283   1.712  1.0386 -1.3127 -2.1754
  125OSM   H15B13204   4.006   3.306   1.838  0.9850 -1.6010  0.6161
  125OSM   H15C13205   3.864   3.215   1.869 -1.1657 -0.5917 -1.8590
  125OSM    C1413206   3.920   3.039   1.654 -0.5020  0.5872 -0.1784
  125OSM   H14A13207   3.982   2.964   1.607  1.2340  2.7117 -1.5359
  125OSM   H14B13208   3.877   3.097   1.573 -0.4839 -2.3892 -2.4761
  125OSM   H14C13209   3.840   3.004   1.716  0.3414  1.4911  1.4813
  125OSM    C1313210   4.118   3.184   1.644 -0.0432 -0.6781 -0.3897
  125OSM   H13A13211   4.078   3.251   1.569  1.1432  2.4318  1.5416
  125OSM   H13B13212   4.174   3.113   1.584  1.8780  2.2830 -2.3995
  125OSM   H13C13213   4.191   3.241   1.700 -1.0282 -0.6111  0.8701
  125OSM    C1213214   4.077   3.048   1.846 -0.3329 -0.3031  0.0286
  125OSM   H12A13215   4.138   3.115   1.905 -1.3483  1.3898 -0.7589
  125OSM   H12B13216   4.150   2.987   1.795 -0.3312 -1.8298  1.7654
  125OSM    C1113217   3.988   2.947   1.930 -0.1488  0.0979 -0.4647
  125OSM   H11A13218   3.906   3.002   1.981  0.0747 -0.4547  0.5311
  125OSM   H11B13219   4.051   2.899   2.009  0.2024 -2.3361 -2.1315
  125OSM      P13220   3.794   2.778   1.890  0.4920  0.0052 -0.5008
  125OSM    O1313221   3.691   2.839   1.808 -0.0405  0.0941 -0.6371
  125OSM    O1413222   3.798   2.633   1.869 -1.1754  0.5434 -0.1769
  125OSM    O1113223   3.765   2.807   2.042 -0.2804  0.1955 -0.6622
  125OSM    O1213224   3.934   2.841   1.860 -0.0487  0.0702  0.4288
  125OSM    C1S13225   3.648   2.753   2.109 -0.6024 -0.2688  0.1868
  125OSM    H1S13226   3.591   2.682   2.046  3.3517 -2.0707 -1.7066
  125OSM    H1T13227   3.577   2.829   2.148  0.4444  0.0262  1.5693
  125OSM     NF13228   3.552   2.620   2.304 -0.4216 -0.0484  0.3408
  125OSM    HNF13229   3.542   2.649   2.399  0.4018  3.4249 -0.4839
  125OSM    C2S13230   3.679   2.661   2.236  0.4606  0.4273 -0.2056
  125OSM    H2S13231   3.733   2.572   2.197  0.4956  0.4563 -0.2228
  125OSM    C3S13232   3.775   2.731   2.337 -0.2511  0.0371 -0.0949
  125OSM    H3S13233   3.721   2.806   2.398 -0.2437 -1.3187  1.6506
  125OSM     O313234   3.886   2.801   2.279 -0.2831  0.2613  0.0033
  125OSM    HO313235   3.844   2.818   2.194  0.8973 -0.5476 -0.7615
  125OSM    C4S13236   3.834   2.624   2.436 -0.0223 -0.4466 -0.7186
  125OSM    H4S13237   3.918   2.566   2.395 -0.0080 -0.9381 -0.0157
  125OSM    C5S13238   3.794   2.604   2.564 -0.2854 -0.2975 -0.2356
  125OSM    H5S13239   3.736   2.684   2.613 -1.4488 -0.2600 -1.5866
  125OSM    C6S13240   3.860   2.498   2.650  0.5647 -1.4575 -0.3393
  125OSM    H6S13241   3.894   2.544   2.745  0.3683  0.1938 -1.0341
  125OSM    H6T13242   3.944   2.457   2.591  1.7435  0.9058 -0.4288
  125OSM    C7S13243   3.765   2.378   2.666  0.1938  0.3163 -0.4201
  125OSM    H7S13244   3.735   2.339   2.567  1.3378 -1.0235 -0.2583
  125OSM    H7T13245   3.682   2.405   2.735  2.9049  0.5367  3.0247
  125OSM    C8S13246   3.827   2.266   2.749  0.1387  0.3919 -1.0893
  125OSM    H8S13247   3.921   2.242   2.695  0.1984  0.9582 -1.2431
  125OSM    H8T13248   3.766   2.173   2.750  0.3154  0.1039  3.6350
  125OSM    C9S13249   3.844   2.295   2.900 -0.8471  0.0506 -0.7535
  125OSM    H9S13250   3.743   2.307   2.946 -0.7190 -1.9930  0.1884
  125OSM    H9T13251   3.909   2.384   2.903  0.3671 -0.7066 -2.5906
  125OSM   C10S13252   3.905   2.184   2.989  0.0369  0.1339 -0.1176
  125OSM   H10S13253   4.000   2.141   2.949 -0.3269  1.6433 -2.8739
  125OSM   H10T13254   3.829   2.103   2.987 -1.4654  1.5085 -0.7005
  125OSM   C11S13255   3.934   2.243   3.128  0.3602 -0.5117 -0.2128
  125OSM   H11S13256   3.835   2.265   3.173  0.8915 -1.4803  1.5001
  125OSM   H11T13257   3.983   2.342   3.114 -1.3908  0.1824 -2.0497
  125OSM   C12S13258   4.021   2.147   3.206  0.3986  0.9664 -0.3192
  125OSM   H12S13259   4.062   2.205   3.291  0.9240 -2.1176  1.7258
  125OSM   H12T13260   4.108   2.117   3.144 -0.4829  2.3568 -2.3262
  125OSM   C13S13261   3.954   2.006   3.246  0.3817 -0.3127 -0.3216
  125OSM   H13S13262   3.943   1.930   3.166  0.3645 -0.1947 -0.4308
  125OSM   H13T13263   3.851   2.032   3.280 -0.8087  1.1979 -4.4345
  125OSM   C14S13264   4.030   1.925   3.355 -0.5213 -0.2090 -0.7430
  125OSM   H14S13265   4.080   2.004   3.415 -2.1237  0.4322 -0.1880
  125OSM   H14T13266   4.106   1.861   3.307 -0.1116  0.0552 -0.4478
  125OSM   C15S13267   3.936   1.857   3.452  0.1369  0.3709 -0.5448
  125OSM   H15S13268   3.866   1.787   3.402 -1.6802  1.6265  0.1418
  125OSM   H15T13269   3.875   1.938   3.497  0.3498  0.1303  0.2087
  125OSM   C16S13270   4.026   1.784   3.551 -0.5501 -0.2373 -0.1639
  125OSM   H16S13271   4.096   1.859   3.594 -0.8392  0.9882 -1.7481
  125OSM   H16T13272   4.097   1.723   3.491  0.0118  0.8614 -0.6479
  125OSM   C17S13273   3.962   1.711   3.658  0.8515  0.0333  0.3281
  125OSM   H17S13274   4.036   1.652   3.716 -1.7077 -4.1980 -0.2557
  125OSM   H17T13275   3.899   1.624   3.631  0.8560 -0.3877  1.5781
  125OSM   C18S13276   3.870   1.794   3.749  0.7793  0.2869 -0.1297
  125OSM   H18S13277   3.789   1.845   3.692  1.1088 -0.2735 -1.1400
  125OSM   H18T13278   3.925   1.876   3.800  1.6069 -0.9222  0.9499
  125OSM   H18U13279   3.807   1.728   3.812  0.0135  1.2184  0.1106
  125OSM    C1F13280   3.475   2.535   2.252 -0.2510  0.1435  0.1227
  125OSM     OF13281   3.517   2.477   2.153  0.3144 -0.0526  0.0562
  125OSM    C2F13282   3.342   2.508   2.325 -0.2421 -0.2096  0.1699
  125OSM    H2F13283   3.331   2.398   2.329 -0.0373 -0.2432 -0.1270
  125OSM    H2G13284   3.254   2.538   2.263 -0.8340 -0.7808  0.7167
  125OSM    C3F13285   3.323   2.572   2.463  0.3651  0.1543  0.1567
  125OSM    H3F13286   3.215   2.545   2.473  0.5914 -0.8135  0.0683
  125OSM    H3G13287   3.346   2.680   2.450  1.9640 -0.0780  0.8746
  125OSM    C4F13288   3.402   2.511   2.575  0.3130 -0.5211  0.1870
  125OSM    H4F13289   3.508   2.541   2.579  0.2812 -0.5178  1.3103
  125OSM    H4G13290   3.389   2.401   2.564  0.3913 -0.5385  0.2711
  125OSM    C5F13291   3.332   2.527   2.712 -0.5492  0.7289  0.6576
  125OSM    H5F13292   3.243   2.460   2.714 -1.2750  1.4486 -2.6028
  125OSM    H5G13293   3.283   2.626   2.721 -0.1370  1.1826 -1.6551
  125OSM    C6F13294   3.419   2.506   2.841  0.7337 -0.1580  0.3143
  125OSM    H6F13295   3.513   2.563   2.824 -0.0946  1.1472 -0.0842
  125OSM    H6G13296   3.437   2.397   2.849  1.0966 -0.1498 -0.3246
  125OSM    C7F13297   3.363   2.563   2.971  0.0094 -0.2994  0.4139
  125OSM    H7F13298   3.280   2.500   3.008 -0.4629 -0.6669 -1.1666
  125OSM    H7G13299   3.321   2.664   2.952 -0.5000 -0.7885 -1.2695
  125OSM    C8F13300   3.473   2.565   3.084  0.0386 -0.1421  0.5649
  125OSM    H8F13301   3.520   2.465   3.088 -0.7994 -0.6880 -1.5989
  125OSM    H8G13302   3.407   2.575   3.173 -0.5065 -2.2524  0.4362
  125OSM    C9F13303   3.575   2.676   3.089 -0.0488  0.6982  0.0047
  125OSM    H9F13304   3.664   2.657   3.026  1.3079 -1.0503  2.2932
  125OSM   C10F13305   3.563   2.796   3.152 -0.2100  0.5204  0.5964
  125OSM   H10F13306   3.653   2.858   3.148  1.4023 -1.5663  2.0344
  125OSM   C11F13307   3.450   2.836   3.246  0.2349 -0.1669  0.7109
  125OSM   H11F13308   3.396   2.743   3.274  2.4845 -1.6232  0.4230
  125OSM   H11G13309   3.389   2.913   3.194  1.1630 -0.4792 -0.9194
  125OSM   C12F13310   3.485   2.890   3.388  0.1492 -0.4007  0.3533
  125OSM   H12F13311   3.394   2.879   3.450 -1.1632  2.4748 -0.8425
  125OSM   H12G13312   3.490   3.001   3.383  0.6936 -0.4574 -0.7501
  125OSM   C13F13313   3.612   2.838   3.449  0.0885 -0.2232  0.0213
  125OSM   H13F13314   3.701   2.882   3.399 -0.0737 -3.2897 -3.4367
  125OSM   H13G13315   3.632   2.729   3.434  1.6516 -0.2159  1.7575
  125OSM   C14F13316   3.611   2.865   3.604 -0.2958  0.0644 -0.2169
  125OSM   H14F13317   3.525   2.814   3.653 -0.5101  1.8500  1.3861
  125OSM   H14G13318   3.592   2.974   3.619  0.9491  0.1725  0.7350
  125OSM   C15F13319   3.741   2.828   3.678  0.7500  0.3805 -0.0559
  125OSM   H15F13320   3.821   2.895   3.641  1.8031 -0.5276  0.5244
  125OSM   H15G13321   3.784   2.728   3.660  3.6445  1.4050  0.7312
  125OSM   C16F13322   3.742   2.859   3.832 -0.9607 -0.7383 -0.2540
  125OSM   H16F13323   3.654   2.832   3.894  0.1534  0.6606  2.0612
  125OSM   H16G13324   3.732   2.967   3.857  2.0890 -0.8142  1.8019
  125OSM   C17F13325   3.873   2.808   3.893 -0.7423  0.2074 -0.1097
  125OSM   H17F13326   3.869   2.698   3.909  2.4766  0.2393  1.8133
  125OSM   H17G13327   3.871   2.860   3.991  0.2620  3.1055 -1.5153
  125OSM   C18F13328   4.006   2.832   3.821  0.2468 -0.4121  0.4702
  125OSM   H18F13329   4.014   2.763   3.735  0.6449  1.7657 -1.3371
  125OSM   H18G13330   4.091   2.809   3.889 -0.5661 -2.1048  0.9563
  125OSM   H18H13331   4.002   2.928   3.764 -1.0089 -1.2592 -0.9421
  126OSM      N13332   2.049   2.980   1.849 -0.2927  0.2877 -0.1795
  126OSM    C1513333   2.105   3.096   1.930  0.9549  1.2268  0.8350
  126OSM   H15A13334   2.195   3.070   1.984  1.7221  1.5947 -0.2362
  126OSM   H15B13335   2.024   3.129   1.993 -1.4360  0.1311 -1.4901
  126OSM   H15C13336   2.132   3.175   1.862 -2.6162  1.1467 -0.9323
  126OSM    C1413337   1.917   3.010   1.783  0.7198 -0.3291  0.0139
  126OSM   H14A13338   1.872   2.936   1.718 -1.9828 -1.2521  2.6985
  126OSM   H14B13339   1.927   3.102   1.728  0.1075  0.3582  1.0362
  126OSM   H14C13340   1.840   3.025   1.857 -0.2195 -0.8637 -0.8153
  126OSM    C1313341   2.152   2.949   1.753 -0.5024  0.3091  0.7806
  126OSM   H13A13342   2.123   2.860   1.699  0.7491  0.3439  0.0256
  126OSM   H13B13343   2.247   2.916   1.794  0.5429  1.2246 -0.7897
  126OSM   H13C13344   2.173   3.038   1.696 -2.8706  0.1568 -0.4442
  126OSM    C1213345   2.027   2.862   1.942 -0.1633 -0.0595 -0.1236
  126OSM   H12A13346   1.963   2.886   2.026  0.2767  0.1739  0.1463
  126OSM   H12B13347   2.120   2.841   1.993 -0.5730  0.4526  0.8691
  126OSM    C1113348   1.971   2.731   1.882 -0.1305  0.4030  0.1556
  126OSM   H11A13349   1.884   2.750   1.816  0.9905  4.1361 -0.4868
  126OSM   H11B13350   1.945   2.676   1.975  1.0707  0.1928  0.3873
  126OSM      P13351   2.101   2.519   1.835  0.1314 -0.1894 -0.3169
  126OSM    O1313352   1.984   2.446   1.781  0.0996 -0.0065 -0.1203
  126OSM    O1413353   2.234   2.485   1.776  0.3207 -0.3872  0.1310
  126OSM    O1113354   2.118   2.494   1.994  0.6614 -0.0849  0.2564
  126OSM    O1213355   2.075   2.671   1.814 -0.1558  0.3169  0.2732
  126OSM    C1S13356   2.220   2.564   2.068  0.4100 -0.3042 -0.0678
  126OSM    H1S13357   2.245   2.658   2.015 -0.8131  1.2123  1.9092
  126OSM    H1T13358   2.308   2.497   2.078  1.0089 -0.1585 -3.2753
  126OSM     NF13359   2.279   2.656   2.285 -0.8262 -0.8570 -0.0035
  126OSM    HNF13360   2.328   2.606   2.355  1.8626  0.2688 -0.9385
  126OSM    C2S13361   2.166   2.595   2.209  0.0170  0.7803 -0.3073
  126OSM    H2S13362   2.080   2.665   2.214 -1.0006 -0.5246  1.7379
  126OSM    C3S13363   2.125   2.459   2.284  0.3373  0.6680 -0.0471
  126OSM    H3S13364   2.213   2.391   2.282 -0.9140 -1.2034  2.6743
  126OSM     O313365   2.011   2.387   2.226 -0.3569 -0.2479  0.4554
  126OSM    HO313366   1.981   2.440   2.151  1.3475  0.7593  0.4236
  126OSM    C4S13367   2.101   2.481   2.430  0.2121  0.5873  0.2818
  126OSM    H4S13368   2.193   2.473   2.489 -0.3469 -1.0991  0.9807
  126OSM    C5S13369   1.988   2.511   2.497  0.0951 -0.6907 -0.6789
  126OSM    H5S13370   1.890   2.512   2.447  0.4561 -1.1148 -1.4204
  126OSM    C6S13371   1.977   2.548   2.647  0.1938  0.4296 -0.5332
  126OSM    H6S13372   1.877   2.533   2.692  1.0839  1.7929  2.0649
  126OSM    H6T13373   1.993   2.658   2.650 -0.8542  0.6862 -2.4720
  126OSM    C7S13374   2.072   2.472   2.750 -0.0340  0.3301 -0.8135
  126OSM    H7S13375   2.181   2.481   2.732  0.6431  0.6941  2.6466
  126OSM    H7T13376   2.059   2.363   2.733 -1.3478  0.6012 -1.7590
  126OSM    C8S13377   2.038   2.502   2.898 -0.5840  0.0365  0.1594
  126OSM    H8S13378   1.928   2.510   2.917 -0.6093 -2.6216  1.5964
  126OSM    H8T13379   2.080   2.599   2.931 -1.1713 -0.4152  2.3559
  126OSM    C9S13380   2.088   2.397   2.995  0.0023  0.6506 -0.9641
  126OSM    H9S13381   2.189   2.362   2.964  0.2935  0.1407  0.4816
  126OSM    H9T13382   2.022   2.309   2.982 -1.4546  1.5340  0.1219
  126OSM   C10S13383   2.081   2.435   3.145 -0.7757 -0.2542  0.1270
  126OSM   H10S13384   1.981   2.473   3.174 -0.5425  1.4620 -1.1161
  126OSM   H10T13385   2.143   2.526   3.161 -2.2607  0.2193  4.2467
  126OSM   C11S13386   2.118   2.329   3.243  0.0463 -0.4581 -0.6722
  126OSM   H11S13387   2.203   2.262   3.219 -0.2208 -1.6843  1.5505
  126OSM   H11T13388   2.031   2.260   3.242  0.0511 -0.4685 -0.3844
  126OSM   C12S13389   2.130   2.375   3.384  0.0268  0.1046  0.1909
  126OSM   H12S13390   2.084   2.296   3.446  1.3076  2.1316  4.0579
  126OSM   H12T13391   2.077   2.472   3.393 -1.2785 -0.5797  0.0684
  126OSM   C13S13392   2.283   2.383   3.416 -0.5250  0.5392  0.2377
  126OSM   H13S13393   2.339   2.437   3.338 -0.2454  1.0864  0.8128
  126OSM   H13T13394   2.327   2.281   3.415  3.0828  1.9441 -1.7791
  126OSM   C14S13395   2.326   2.429   3.555  0.7008  0.2902 -0.5667
  126OSM   H14S13396   2.435   2.417   3.570  0.9145 -0.0092 -2.1818
  126OSM   H14T13397   2.274   2.365   3.629  0.1558  2.1764  0.7629
  126OSM   C15S13398   2.300   2.579   3.580 -0.6874 -0.7117 -0.0551
  126OSM   H15S13399   2.189   2.584   3.584 -0.6187  0.5759  0.7391
  126OSM   H15T13400   2.345   2.645   3.502  0.1156  0.0314  1.0058
  126OSM   C16S13401   2.346   2.619   3.718  0.0806 -0.2614 -0.4668
  126OSM   H16S13402   2.448   2.578   3.736  0.5403  1.5322  1.5165
  126OSM   H16T13403   2.272   2.562   3.778  0.0349 -0.6480 -0.8820
  126OSM   C17S13404   2.337   2.768   3.743 -0.2953 -0.3016 -0.3911
  126OSM   H17S13405   2.326   2.774   3.853  0.8747 -0.1853 -0.2686
  126OSM   H17T13406   2.239   2.807   3.708  0.2649  1.6266  0.0803
  126OSM   C18S13407   2.457   2.843   3.702  0.5919 -0.1373  0.3487
  126OSM   H18S13408   2.450   2.953   3.710  1.4571  0.1041 -1.7101
  126OSM   H18T13409   2.494   2.823   3.599  1.6707 -0.8361  0.8588
  126OSM   H18U13410   2.538   2.803   3.766  0.7499  1.4293  1.1625
  126OSM    C1F13411   2.317   2.783   2.256  0.1799  0.5194 -0.6558
  126OSM     OF13412   2.249   2.846   2.174 -0.0110  0.0959 -0.3976
  126OSM    C2F13413   2.440   2.837   2.319  0.2419 -0.6346 -0.1726
  126OSM    H2F13414   2.538   2.821   2.270  2.0025  1.3130  2.3957
  126OSM    H2G13415   2.454   2.793   2.420  0.1332 -0.5948 -0.1398
  126OSM    C3F13416   2.422   2.988   2.325  0.3434 -0.0662 -0.0235
  126OSM    H3F13417   2.323   3.026   2.355 -0.4696 -2.0611 -0.0167
  126OSM    H3G13418   2.448   3.038   2.229  2.4726  2.6387  1.8090
  126OSM    C4F13419   2.522   3.042   2.425 -0.3158  0.0775  0.6092
  126OSM    H4F13420   2.542   3.149   2.402 -0.0551 -0.3179 -1.1382
  126OSM    H4G13421   2.622   2.996   2.410 -1.1613 -1.1139 -1.7235
  126OSM    C5F13422   2.489   3.028   2.569 -0.2722  0.3637  0.2960
  126OSM    H5F13423   2.504   2.919   2.585  0.3023  0.1976 -1.1549
  126OSM    H5G13424   2.384   3.061   2.587 -0.9238 -1.5408  0.2297
  126OSM    C6F13425   2.586   3.103   2.661 -0.0147 -0.2660  0.2454
  126OSM    H6F13426   2.570   3.213   2.660 -2.0700 -0.5282 -1.4298
  126OSM    H6G13427   2.686   3.082   2.618  0.6902  1.0960  1.1184
  126OSM    C7F13428   2.564   3.063   2.807  0.3017  0.0276  0.2644
  126OSM    H7F13429   2.542   2.954   2.806 -0.9620  0.2752 -0.2660
  126OSM    H7G13430   2.471   3.115   2.836  1.3868  2.0345  0.3419
  126OSM    C8F13431   2.680   3.092   2.908  0.9383  0.8390 -0.1201
  126OSM    H8F13432   2.766   3.028   2.878 -0.1650 -0.0096 -1.5709
  126OSM    H8G13433   2.650   3.056   3.009  0.9209 -2.8594 -1.2815
  126OSM    C9F13434   2.693   3.241   2.903 -1.2649 -0.0604  0.2263
  126OSM    H9F13435   2.731   3.262   2.802 -1.3878 -4.1405 -0.8439
  126OSM   C10F13436   2.676   3.338   2.998  0.4837 -0.1433 -0.4524
  126OSM   H10F13437   2.695   3.445   2.979 -0.6458 -0.0114 -0.9175
  126OSM   C11F13438   2.646   3.321   3.145 -0.0857  0.0930  0.3768
  126OSM   H11F13439   2.675   3.224   3.191 -1.6891 -0.6028  0.0198
  126OSM   H11G13440   2.535   3.319   3.144 -0.1704 -1.3575 -3.2352
  126OSM   C12F13441   2.687   3.441   3.233  0.3349  0.1336  0.1335
  126OSM   H12F13442   2.636   3.423   3.329 -0.4945 -0.6722 -0.4436
  126OSM   H12G13443   2.654   3.539   3.191 -1.1500 -1.0178 -1.5144
  126OSM   C13F13444   2.840   3.461   3.248 -0.3131  0.4652  0.1977
  126OSM   H13F13445   2.889   3.461   3.148 -2.5668  4.1965 -1.1074
  126OSM   H13G13446   2.883   3.371   3.297  0.6392  0.0698 -1.2923
  126OSM   C14F13447   2.875   3.587   3.328 -0.2607  0.2787 -0.6319
  126OSM   H14F13448   2.819   3.676   3.293  0.5499  0.1321 -2.4685
  126OSM   H14G13449   2.981   3.613   3.307  0.1548 -1.6481 -1.1814
  126OSM   C15F13450   2.857   3.565   3.478  0.1402  0.6709 -0.0407
  126OSM   H15F13451   2.889   3.464   3.510 -3.0169 -0.2178  0.6411
  126OSM   H15G13452   2.748   3.572   3.499  0.0815 -2.3963  1.1678
  126OSM   C16F13453   2.927   3.673   3.557  0.6314 -0.3752  0.0328
  126OSM   H16F13454   2.881   3.770   3.528  0.9689 -0.3012 -0.2660
  126OSM   H16G13455   3.033   3.683   3.524  0.6809  0.2654  0.3628
  126OSM   C17F13456   2.907   3.655   3.710  0.5868 -0.3877  0.0154
  126OSM   H17F13457   2.937   3.553   3.743 -1.1988 -0.8445  0.3357
  126OSM   H17G13458   2.801   3.661   3.743  0.4013 -0.0391 -0.6211
  126OSM   C18F13459   2.992   3.757   3.789 -0.1064  0.1261  0.2294
  126OSM   H18F13460   3.091   3.771   3.741 -0.0415 -0.7012  0.1016
  126OSM   H18G13461   3.003   3.727   3.896  1.0317  0.0730  0.1053
  126OSM   H18H13462   2.939   3.854   3.780  0.0629  0.1338 -0.7822
  127OSM      N13463   1.534   4.717   1.595 -0.2806  0.8847  0.3561
  127OSM    C1513464   1.415   4.719   1.506 -0.3713  0.6044  0.4236
  127OSM   H15A13465   1.408   4.813   1.454  0.6236 -0.4288 -1.7321
  127OSM   H15B13466   1.322   4.691   1.553 -0.1786  2.6009  2.1001
  127OSM   H15C13467   1.425   4.645   1.427  1.7162  1.0971  0.1651
  127OSM    C1413468   1.566   4.569   1.620  0.4556  0.3694 -0.4253
  127OSM   H14A13469   1.566   4.516   1.526  2.2799 -0.8620  0.2107
  127OSM   H14B13470   1.492   4.526   1.686  2.0110 -0.6955  0.6868
  127OSM   H14C13471   1.663   4.552   1.664 -0.6299 -1.1008  1.5715
  127OSM    C1313472   1.639   4.768   1.509  0.2454 -0.0513 -0.0842
  127OSM   H13A13473   1.732   4.765   1.565  1.4603 -1.4772 -2.0475
  127OSM   H13B13474   1.641   4.873   1.483 -0.7031  0.3430  1.3166
  127OSM   H13C13475   1.655   4.706   1.422 -0.0689  0.2186 -0.3327
  127OSM    C1213476   1.508   4.801   1.725  0.0999  0.4278  0.1160
  127OSM   H12A13477   1.433   4.757   1.790  0.7314  1.5798  1.6985
  127OSM   H12B13478   1.461   4.890   1.685  1.0854 -0.1114 -2.3673
  127OSM    C1113479   1.632   4.834   1.806 -0.8835 -0.2030  0.6647
  127OSM   H11A13480   1.696   4.744   1.814  0.8806  0.9994  0.6837
  127OSM   H11B13481   1.587   4.852   1.907 -1.0314 -0.5595  0.6620
  127OSM      P13482   1.705   5.083   1.834 -0.0342  0.2780 -0.1146
  127OSM    O1313483   1.764   5.184   1.744  0.2428  0.5095 -0.2146
  127OSM    O1413484   1.562   5.099   1.870  0.1095  0.5669 -0.1007
  127OSM    O1113485   1.787   5.071   1.972  0.2334 -0.2558  0.6356
  127OSM    O1213486   1.711   4.945   1.756 -0.1247 -0.3510 -0.2064
  127OSM    C1S13487   1.903   4.995   1.990 -0.3651 -0.5046 -0.0744
  127OSM    H1S13488   1.980   5.072   1.967 -3.8255  2.4458 -2.9719
  127OSM    H1T13489   1.918   4.900   1.933  3.4050  0.5843 -1.1971
  127OSM     NF13490   2.070   4.911   2.160 -0.5332 -0.5175 -0.7680
  127OSM    HNF13491   2.094   4.817   2.180  1.2044 -0.7832 -3.5919
  127OSM    C2S13492   1.925   4.949   2.140 -0.6234 -0.2567 -0.2344
  127OSM    H2S13493   1.908   5.040   2.201  0.1343 -0.0724 -0.2825
  127OSM    C3S13494   1.820   4.842   2.187 -0.1154 -0.3587 -0.3207
  127OSM    H3S13495   1.845   4.743   2.143  0.4112 -1.9334  3.2008
  127OSM     O313496   1.682   4.867   2.148 -0.2982 -0.0471 -0.5434
  127OSM    HO313497   1.684   4.940   2.086  0.6273  0.2988 -0.1329
  127OSM    C4S13498   1.839   4.822   2.342  1.0134  0.6898  0.3909
  127OSM    H4S13499   1.925   4.756   2.359  1.9023  1.8601  0.5259
  127OSM    C5S13500   1.770   4.874   2.440 -0.1979  0.0881 -0.0462
  127OSM    H5S13501   1.692   4.949   2.420  0.7653  0.8329 -1.0989
  127OSM    C6S13502   1.815   4.841   2.582 -0.4337  0.1661 -0.3940
  127OSM    H6S13503   1.799   4.734   2.607 -0.7631  0.2952 -0.0445
  127OSM    H6T13504   1.758   4.905   2.652 -2.3491 -2.2373  0.4102
  127OSM    C7S13505   1.961   4.861   2.615  0.1190 -0.6767 -0.2449
  127OSM    H7S13506   2.022   4.789   2.555 -0.1668 -0.5040 -0.7440
  127OSM    H7T13507   1.990   4.839   2.720  0.1046  1.8315  0.3294
  127OSM    C8S13508   2.005   5.005   2.593  0.0890  0.2509  0.2676
  127OSM    H8S13509   1.945   5.081   2.646 -1.3013 -1.3070  1.0271
  127OSM    H8T13510   2.029   5.025   2.486  4.3665 -1.0478  0.7790
  127OSM    C9S13511   2.142   5.038   2.646 -0.1205  0.0821 -0.3958
  127OSM    H9S13512   2.203   5.095   2.572  0.0252 -2.0974 -2.0419
  127OSM    H9T13513   2.199   4.943   2.654 -2.8249 -1.6387  0.0121
  127OSM   C10S13514   2.165   5.103   2.779  0.0293  0.1238  0.0459
  127OSM   H10S13515   2.109   5.046   2.857  1.0806  0.1205  0.8229
  127OSM   H10T13516   2.104   5.196   2.789  1.0923  0.8987 -0.5454
  127OSM   C11S13517   2.307   5.141   2.807 -0.1032 -0.3172 -0.3688
  127OSM   H11S13518   2.353   5.189   2.718  0.0637 -1.1189 -0.7310
  127OSM   H11T13519   2.372   5.052   2.822  1.3416  0.9607  1.2289
  127OSM   C12S13520   2.324   5.233   2.928 -0.7102 -0.2445 -0.4918
  127OSM   H12S13521   2.241   5.307   2.929  1.4559  2.3374  1.1995
  127OSM   H12T13522   2.426   5.274   2.915  0.2156 -2.0113  0.7053
  127OSM   C13S13523   2.325   5.149   3.054  0.2194  0.3005 -0.1817
  127OSM   H13S13524   2.412   5.080   3.063  0.1433  0.3149  0.7601
  127OSM   H13T13525   2.235   5.084   3.058  0.9042 -0.8001 -1.6372
  127OSM   C14S13526   2.309   5.238   3.177  0.3955 -0.0515 -0.4199
  127OSM   H14S13527   2.367   5.332   3.186 -2.5401  1.8768 -0.1509
  127OSM   H14T13528   2.322   5.173   3.266  0.3285 -1.3000 -1.2964
  127OSM   C15S13529   2.171   5.294   3.179  0.8024 -0.5932 -0.5227
  127OSM   H15S13530   2.099   5.217   3.146 -0.1425  0.6620 -1.4625
  127OSM   H15T13531   2.156   5.377   3.107 -3.0594 -0.5014  0.1884
  127OSM   C16S13532   2.120   5.333   3.319 -0.1675  0.5892 -0.5890
  127OSM   H16S13533   2.193   5.402   3.367 -1.1516  0.1974  1.5854
  127OSM   H16T13534   2.126   5.238   3.375  1.2534  1.1431  0.2510
  127OSM   C17S13535   1.977   5.393   3.325  0.1588 -0.1308 -0.2758
  127OSM   H17S13536   1.909   5.321   3.274 -0.4855 -0.5449  1.1169
  127OSM   H17T13537   1.971   5.497   3.287  2.8522  0.4558  0.7063
  127OSM   C18S13538   1.917   5.389   3.466  0.3833 -0.0865 -0.2382
  127OSM   H18S13539   1.971   5.452   3.540 -1.2867  0.2540  0.7372
  127OSM   H18T13540   1.936   5.284   3.497  1.8326  0.1556 -0.2280
  127OSM   H18U13541   1.808   5.406   3.474  0.5200  0.3507  0.9289
  127OSM    C1F13542   2.164   5.003   2.173 -0.0393 -0.2949 -0.2491
  127OSM     OF13543   2.126   5.121   2.171  0.3010 -0.5768  0.1104
  127OSM    C2F13544   2.308   4.962   2.204  0.4677 -0.3276  0.7027
  127OSM    H2F13545   2.362   4.973   2.108 -3.7795  1.1628 -1.8253
  127OSM    H2G13546   2.294   4.853   2.222  2.6748 -0.7468  0.1490
  127OSM    C3F13547   2.366   5.029   2.334 -0.0171  0.4665  0.7290
  127OSM    H3F13548   2.294   5.015   2.417 -0.1663 -0.6967  0.4143
  127OSM    H3G13549   2.360   5.140   2.326 -0.3073  0.4846  1.1390
  127OSM    C4F13550   2.501   4.980   2.368 -0.4423 -0.0913  0.6649
  127OSM    H4F13551   2.569   5.055   2.414 -1.2577  0.2124  1.4101
  127OSM    H4G13552   2.550   4.948   2.274 -1.8194  2.2667 -0.9441
  127OSM    C5F13553   2.486   4.869   2.471  0.5491  0.8111  0.5075
  127OSM    H5F13554   2.465   4.922   2.566  1.2323  1.4947  0.2805
  127OSM    H5G13555   2.591   4.837   2.486  0.8001  0.5033 -1.5902
  127OSM    C6F13556   2.387   4.745   2.446  0.4091 -0.3403  0.0313
  127OSM    H6F13557   2.408   4.687   2.354 -0.1590  0.2528 -0.4843
  127OSM    H6G13558   2.285   4.790   2.445  2.1653  4.2717 -0.4943
  127OSM    C7F13559   2.392   4.651   2.561  0.5758  0.4275  0.6280
  127OSM    H7F13560   2.310   4.578   2.545  1.5891 -1.0470  1.8997
  127OSM    H7G13561   2.368   4.701   2.657  2.1775  1.8675  0.3273
  127OSM    C8F13562   2.523   4.580   2.589 -0.2686  0.4242  0.3900
  127OSM    H8F13563   2.602   4.653   2.617  1.3031 -0.9015 -0.3931
  127OSM    H8G13564   2.559   4.525   2.499  1.5399  1.1194  0.6369
  127OSM    C9F13565   2.505   4.493   2.715 -0.4637  0.1525 -0.1366
  127OSM    H9F13566   2.446   4.400   2.711 -1.0357  0.4167  1.3770
  127OSM   C10F13567   2.552   4.520   2.842 -0.3851  0.3953  0.4023
  127OSM   H10F13568   2.543   4.446   2.923 -0.7703 -4.4334 -3.5488
  127OSM   C11F13569   2.619   4.650   2.884  0.3415 -0.4838 -0.5177
  127OSM   H11F13570   2.558   4.737   2.851  0.5121  0.9819  2.6691
  127OSM   H11G13571   2.718   4.671   2.837 -0.6576  1.6483 -1.7951
  127OSM   C12F13572   2.617   4.681   3.039 -0.3505  1.0117  0.2418
  127OSM   H12F13573   2.700   4.754   3.049  1.3737 -0.9757  1.1680
  127OSM   H12G13574   2.647   4.595   3.103 -0.7920  1.7085  1.4189
  127OSM   C13F13575   2.490   4.735   3.091 -0.1719  0.7083 -0.0601
  127OSM   H13F13576   2.405   4.663   3.083  1.4474 -1.1810 -0.8610
  127OSM   H13G13577   2.455   4.811   3.018  2.1661  1.8687 -0.0444
  127OSM   C14F13578   2.511   4.790   3.231 -0.3920 -0.4978 -0.1962
  127OSM   H14F13579   2.594   4.863   3.219 -1.7560  0.9085 -1.4506
  127OSM   H14G13580   2.551   4.717   3.305  1.7774 -0.3266 -1.1118
  127OSM   C15F13581   2.383   4.859   3.293 -0.8028 -0.0068  0.8220
  127OSM   H15F13582   2.325   4.912   3.215  1.9513  2.3161  0.1803
  127OSM   H15G13583   2.420   4.933   3.367  0.2499 -0.5474  0.8661
  127OSM   C16F13584   2.301   4.761   3.367 -0.5388  0.3182 -0.5670
  127OSM   H16F13585   2.357   4.700   3.441 -1.8211 -0.4777 -0.2152
  127OSM   H16G13586   2.251   4.692   3.296  2.3071 -0.8187 -1.6264
  127OSM   C17F13587   2.189   4.830   3.447  0.1630  0.2303  0.1892
  127OSM   H17F13588   2.137   4.898   3.376  1.7893  1.5011  0.1633
  127OSM   H17G13589   2.241   4.894   3.522  1.6747  0.8969 -1.3533
  127OSM   C18F13590   2.090   4.729   3.519  0.0214 -0.5419  0.5763
  127OSM   H18F13591   2.027   4.795   3.582  2.2514  0.9589  1.3710
  127OSM   H18G13592   2.146   4.666   3.591  1.6083  1.3246  1.0714
  127OSM   H18H13593   2.025   4.674   3.448  0.9515 -0.9334  0.0190
  128OSM      N13594   1.604   4.068   1.875 -0.1737 -0.0027 -0.0049
  128OSM    C1513595   1.562   4.207   1.821 -0.6701 -0.0545 -0.6218
  128OSM   H15A13596   1.641   4.265   1.776 -1.5980  1.2021 -0.6828
  128OSM   H15B13597   1.519   4.272   1.897 -0.7044  0.0918 -0.7651
  128OSM   H15C13598   1.480   4.184   1.754 -0.7869  1.1679 -0.9240
  128OSM    C1413599   1.661   4.089   2.015  0.0259 -0.2313 -0.2858
  128OSM   H14A13600   1.696   4.003   2.071 -1.0271 -0.2289  0.3988
  128OSM   H14B13601   1.591   4.142   2.078  0.5386 -0.0481  0.1379
  128OSM   H14C13602   1.748   4.153   2.009 -0.1019 -0.1399 -1.2389
  128OSM    C1313603   1.472   3.995   1.887 -0.2942 -0.3361  0.7539
  128OSM   H13A13604   1.485   3.895   1.924 -1.2043 -0.8791 -0.3109
  128OSM   H13B13605   1.422   3.986   1.791 -0.8677  0.5868  0.9510
  128OSM   H13C13606   1.406   4.051   1.952  0.8867  2.5903 -0.3779
  128OSM    C1213607   1.703   3.994   1.790 -0.2544 -0.2692  0.2732
  128OSM   H12A13608   1.664   3.969   1.693  2.2549 -0.9770 -0.6280
  128OSM   H12B13609   1.733   3.903   1.841  0.0684  0.6447  1.7937
  128OSM    C1113610   1.852   4.052   1.764  0.2418  0.3221 -0.1241
  128OSM   H11A13611   1.842   4.158   1.731  0.0551  0.4336  0.2839
  128OSM   H11B13612   1.895   4.001   1.675 -0.0592  1.4258 -0.9282
  128OSM      P13613   2.014   3.922   1.917 -0.3929  0.2159 -0.2817
  128OSM    O1313614   1.929   3.803   1.911 -0.2310  0.1107  0.1136
  128OSM    O1413615   2.131   3.922   1.825 -0.4663 -0.2568 -0.4322
  128OSM    O1113616   2.074   3.944   2.062 -0.1676 -0.2589  0.1197
  128OSM    O1213617   1.940   4.050   1.879 -0.4388  0.1347  0.2840
  128OSM    C1S13618   2.047   4.070   2.128 -0.1810  0.5869 -0.1515
  128OSM    H1S13619   1.944   4.102   2.099 -0.0336  0.4408 -0.8515
  128OSM    H1T13620   2.113   4.149   2.086 -0.1027  1.5060  1.6073
  128OSM     NF13621   2.049   4.198   2.322  0.0372  0.2205 -0.4421
  128OSM    HNF13622   2.120   4.263   2.345 -0.9218 -0.1105  4.6180
  128OSM    C2S13623   2.086   4.069   2.276 -0.5398 -0.3043 -0.1783
  128OSM    H2S13624   2.021   3.993   2.324  0.1832 -1.5890 -1.1559
  128OSM    C3S13625   2.229   4.030   2.307  0.3015  0.1914 -0.5138
  128OSM    H3S13626   2.299   4.103   2.260 -1.2328  2.2181  0.2090
  128OSM     O313627   2.268   3.903   2.252  0.9213 -0.1285 -0.2250
  128OSM    HO313628   2.205   3.908   2.180 -1.7279  2.2609  2.0531
  128OSM    C4S13629   2.258   4.034   2.460 -0.5050 -0.7544  0.0486
  128OSM    H4S13630   2.264   4.141   2.484 -1.1175 -0.8753  0.7843
  128OSM    C5S13631   2.282   3.950   2.561  0.3636  0.1110 -0.5086
  128OSM    H5S13632   2.290   3.844   2.532 -0.9100 -0.6530  1.6970
  128OSM    C6S13633   2.320   3.976   2.708  0.9548 -0.0584  0.0190
  128OSM    H6S13634   2.405   3.907   2.732  1.0224 -0.5936 -1.6573
  128OSM    H6T13635   2.239   3.939   2.775  0.0914 -0.8283 -1.4117
  128OSM    C7S13636   2.329   4.121   2.765 -0.5947 -0.1127  0.0370
  128OSM    H7S13637   2.235   4.173   2.734  0.3498  0.1398 -2.6470
  128OSM    H7T13638   2.414   4.166   2.709 -0.0770 -1.7706 -0.5483
  128OSM    C8S13639   2.354   4.138   2.913 -0.7912 -0.0732  0.2486
  128OSM    H8S13640   2.281   4.090   2.981 -1.1110  0.1436  0.0606
  128OSM    H8T13641   2.347   4.247   2.935 -1.3594  0.1881 -1.1213
  128OSM    C9S13642   2.489   4.072   2.964 -0.1849  0.5326 -0.4860
  128OSM    H9S13643   2.573   4.100   2.898 -0.0473  0.2898 -0.4148
  128OSM    H9T13644   2.476   3.962   2.955  0.9850  0.3644 -0.2900
  128OSM   C10S13645   2.519   4.102   3.110 -0.1390 -0.3318  0.4368
  128OSM   H10S13646   2.607   4.041   3.137  1.6035  1.9704  0.2819
  128OSM   H10T13647   2.433   4.068   3.171 -1.5926  0.0369 -1.3155
  128OSM   C11S13648   2.549   4.252   3.147  0.5979  0.3229  0.8150
  128OSM   H11S13649   2.467   4.321   3.119  0.3934 -0.1092  0.3296
  128OSM   H11T13650   2.633   4.289   3.083  0.4005  2.1154  1.5355
  128OSM   C12S13651   2.574   4.286   3.294  0.0412 -0.0878 -0.0709
  128OSM   H12S13652   2.611   4.390   3.301 -0.1536 -0.1021  1.5004
  128OSM   H12T13653   2.657   4.226   3.338  0.1060  1.5790  2.2386
  128OSM   C13S13654   2.450   4.301   3.385  0.0495  0.0308 -0.1607
  128OSM   H13S13655   2.388   4.209   3.382 -0.4769  0.4060 -1.0044
  128OSM   H13T13656   2.385   4.380   3.343  0.2861 -0.1116 -0.8086
  128OSM   C14S13657   2.494   4.320   3.535  0.3564  0.6023  0.1458
  128OSM   H14S13658   2.543   4.420   3.531  0.2880  0.6356  0.1187
  128OSM   H14T13659   2.571   4.248   3.568  0.9062  0.8293 -0.6206
  128OSM   C15S13660   2.373   4.310   3.623  0.0875  0.5909 -0.6447
  128OSM   H15S13661   2.337   4.205   3.616  1.1301 -0.0548  2.3523
  128OSM   H15T13662   2.296   4.377   3.579 -1.3354 -1.5577 -1.6080
  128OSM   C16S13663   2.394   4.347   3.775 -0.1801 -0.2353  0.0825
  128OSM   H16S13664   2.432   4.451   3.786  1.0450 -0.5175 -1.1657
  128OSM   H16T13665   2.457   4.267   3.817  0.8169 -0.7841 -2.2863
  128OSM   C17S13666   2.258   4.335   3.852  0.3422 -0.1620  0.0929
  128OSM   H17S13667   2.288   4.334   3.959  0.7092  0.7013  0.0025
  128OSM   H17T13668   2.223   4.232   3.830  0.8537 -0.0122 -1.5805
  128OSM   C18S13669   2.148   4.431   3.812  0.1710 -0.2409 -0.3262
  128OSM   H18S13670   2.105   4.408   3.712 -1.6793  2.4068 -0.2551
  128OSM   H18T13671   2.188   4.535   3.815 -0.3190 -0.0667  0.2616
  128OSM   H18U13672   2.064   4.434   3.884 -1.1515 -0.3973 -1.8155
  128OSM    C1F13673   1.927   4.243   2.330 -0.4242 -0.9895  0.5462
  128OSM     OF13674   1.825   4.176   2.335  0.0814  0.3118 -0.5997
  128OSM    C2F13675   1.916   4.390   2.340 -1.3196 -0.4605  0.5980
  128OSM    H2F13676   1.838   4.430   2.271 -0.3161 -0.3032 -0.4886
  128OSM    H2G13677   2.012   4.436   2.307 -0.0643 -1.5688  2.5704
  128OSM    C3F13678   1.890   4.426   2.488  0.0009 -0.7039 -0.1550
  128OSM    H3F13679   1.793   4.390   2.529  0.3984  0.0912  1.5606
  128OSM    H3G13680   1.884   4.537   2.495 -1.4802 -0.7727  0.0178
  128OSM    C4F13681   2.000   4.395   2.579  0.4385  0.2831  0.0404
  128OSM    H4F13682   2.100   4.432   2.550  1.1988 -0.6130  1.4477
  128OSM    H4G13683   2.014   4.285   2.580 -1.6240 -0.0202  1.0911
  128OSM    C5F13684   1.972   4.454   2.717  0.1156  0.4060 -0.2852
  128OSM    H5F13685   1.869   4.434   2.753 -0.2482 -0.5413 -1.8148
  128OSM    H5G13686   1.982   4.565   2.716 -4.1417  0.9977  0.8145
  128OSM    C6F13687   2.067   4.397   2.821 -0.3361 -0.2238 -0.1867
  128OSM    H6F13688   2.169   4.437   2.803 -0.6354  1.7059  1.9357
  128OSM    H6G13689   2.060   4.286   2.813  0.4666 -0.5167  2.2014
  128OSM    C7F13690   2.026   4.432   2.966  0.1974 -0.5394 -0.1042
  128OSM    H7F13691   1.934   4.379   3.000  2.1590 -3.3545  1.2611
  128OSM    H7G13692   1.989   4.536   2.964 -0.9816 -0.8170  2.5568
  128OSM    C8F13693   2.139   4.411   3.067  0.0001  0.4067  0.1655
  128OSM    H8F13694   2.227   4.456   3.016  0.7443 -1.4145 -0.2599
  128OSM    H8G13695   2.158   4.301   3.075 -1.4449  0.0314 -1.1186
  128OSM    C9F13696   2.101   4.478   3.198 -0.2983  0.4702 -0.1084
  128OSM    H9F13697   2.100   4.588   3.196 -0.8640  0.4596 -0.7928
  128OSM   C10F13698   2.044   4.415   3.306  1.4510 -0.6362  0.1528
  128OSM   H10F13699   2.004   4.459   3.398  1.5988 -1.9356  0.8636
  128OSM   C11F13700   2.018   4.271   3.302  0.0892 -0.4958 -0.2577
  128OSM   H11F13701   2.106   4.219   3.261  0.2475 -0.8602  0.5331
  128OSM   H11G13702   1.930   4.247   3.239  0.2568  1.0318 -1.1338
  128OSM   C12F13703   2.021   4.202   3.437  0.0154  0.6783 -1.2124
  128OSM   H12F13704   1.921   4.224   3.481 -0.5117 -1.9794 -0.8991
  128OSM   H12G13705   2.090   4.258   3.504 -1.1322 -0.1730  0.7662
  128OSM   C13F13706   2.045   4.051   3.452 -0.0758 -0.2943  0.1325
  128OSM   H13F13707   2.141   4.014   3.411  0.7211  2.5222 -0.8014
  128OSM   H13G13708   1.965   4.010   3.387 -0.4720  1.3036 -0.4215
  128OSM   C14F13709   2.019   4.007   3.591 -0.3702 -0.0840  0.2524
  128OSM   H14F13710   1.951   4.078   3.641  1.8777  3.4212 -1.3119
  128OSM   H14G13711   2.119   4.006   3.640  0.2472 -2.9535 -0.8278
  128OSM   C15F13712   1.966   3.863   3.592 -0.1979  0.1750  0.4310
  128OSM   H15F13713   1.891   3.852   3.510 -0.4493 -0.9839  0.7948
  128OSM   H15G13714   1.915   3.843   3.689  1.4856 -1.4339  1.0325
  128OSM   C16F13715   2.070   3.748   3.574  0.1190  0.2880  0.0642
  128OSM   H16F13716   2.152   3.768   3.647  1.1263 -1.0857 -0.6435
  128OSM   H16G13717   2.121   3.757   3.475 -0.0485 -1.8107 -0.2441
  128OSM   C17F13718   2.024   3.605   3.584  0.4194 -0.6849 -0.0988
  128OSM   H17F13719   1.938   3.602   3.514  0.1603  1.3338  0.0608
  128OSM   H17G13720   1.996   3.590   3.690  1.8015  1.9995  0.7502
  128OSM   C18F13721   2.126   3.498   3.536 -0.3070 -0.1629 -0.3542
  128OSM   H18F13722   2.096   3.395   3.564 -0.1799 -0.7268 -2.1236
  128OSM   H18G13723   2.229   3.529   3.562 -0.4609  1.1796 -1.2468
  128OSM   H18H13724   2.115   3.485   3.426  1.1805 -1.7228 -0.3616
  129OSM      N13725   4.873   2.244   1.815  0.4370 -0.0273  0.0845
  129OSM    C1513726   4.826   2.266   1.676  0.2212  0.2865 -0.3653
  129OSM   H15A13727   4.740   2.330   1.684  0.8727  1.0804  0.4671
  129OSM   H15B13728   4.802   2.177   1.620  0.1487  0.4406 -0.5816
  129OSM   H15C13729   4.894   2.310   1.605 -0.1955 -0.4268 -1.2252
  129OSM    C1413730   5.005   2.163   1.802 -0.2566 -0.6342  0.6200
  129OSM   H14A13731   5.046   2.126   1.895  1.2000  0.5378  0.4773
  129OSM   H14B13732   5.079   2.212   1.741 -2.2426  0.1951 -1.2673
  129OSM   H14C13733   4.986   2.069   1.752  1.6923  0.0542 -1.5731
  129OSM    C1313734   4.899   2.378   1.872 -0.1937 -0.4143  0.2787
  129OSM   H13A13735   4.809   2.438   1.878  0.0833  0.2961 -1.7935
  129OSM   H13B13736   4.967   2.435   1.809  0.2963 -2.8447 -1.5296
  129OSM   H13C13737   4.942   2.369   1.970 -0.5870  2.9286  0.8855
  129OSM    C1213738   4.772   2.168   1.911 -0.3722 -0.1740  0.1798
  129OSM   H12A13739   4.738   2.079   1.861  0.9309 -2.1336  2.5897
  129OSM   H12B13740   4.686   2.232   1.926 -0.9474 -0.8103 -0.3881
  129OSM    C1113741   4.835   2.123   2.046  0.5944  0.2577 -0.1389
  129OSM   H11A13742   4.747   2.095   2.109  2.5269 -2.4255  1.5976
  129OSM   H11B13743   4.874   2.205   2.110 -0.4553  0.8091 -0.1816
  129OSM      P13744   4.876   1.870   2.004 -0.3956  0.5165 -0.1724
  129OSM    O1313745   4.845   1.860   1.859 -0.3635 -0.4060 -0.6850
  129OSM    O1413746   4.975   1.778   2.062  0.0575  0.2406 -0.1367
  129OSM    O1113747   4.745   1.844   2.081 -0.0790 -0.1378  0.5145
  129OSM    O1213748   4.927   2.016   2.033  0.3552  0.1837 -0.2971
  129OSM    C1S13749   4.619   1.807   2.029  0.8159  0.3822 -0.5609
  129OSM    H1S13750   4.620   1.732   1.947 -2.7474 -0.5699  0.0955
  129OSM    H1T13751   4.578   1.892   1.970 -2.7743 -2.0882 -2.0084
  129OSM     NF13752   4.388   1.721   2.064 -0.1336  0.4550  0.2868
  129OSM    HNF13753   4.305   1.772   2.085 -1.3344 -1.7034  1.0816
  129OSM    C2S13754   4.505   1.759   2.129  0.6946  0.0462 -0.1253
  129OSM    H2S13755   4.542   1.670   2.185  0.1796  0.3190  0.6605
  129OSM    C3S13756   4.496   1.869   2.233 -0.1606 -0.4639  0.0843
  129OSM    H3S13757   4.466   1.962   2.181 -2.4334 -1.0211  0.2583
  129OSM     O313758   4.621   1.904   2.292  0.0803 -0.2351 -0.1139
  129OSM    HO313759   4.687   1.864   2.234  1.5099  1.5255  0.2038
  129OSM    C4S13760   4.398   1.835   2.338  0.0041  0.0377 -0.1131
  129OSM    H4S13761   4.309   1.898   2.325 -0.1544 -0.4989 -1.8967
  129OSM    C5S13762   4.409   1.752   2.444  0.1411  0.2762  0.5911
  129OSM    H5S13763   4.506   1.704   2.461  0.2678  0.2407 -0.1666
  129OSM    C6S13764   4.301   1.730   2.550 -0.1238 -0.0608  0.2416
  129OSM    H6S13765   4.318   1.638   2.609 -0.9901 -0.6452 -0.3765
  129OSM    H6T13766   4.206   1.731   2.491  1.1376  0.4229 -1.8993
  129OSM    C7S13767   4.275   1.843   2.658 -0.7482 -0.6339  0.0513
  129OSM    H7S13768   4.237   1.933   2.605 -1.9908 -1.9632 -1.4270
  129OSM    H7T13769   4.375   1.866   2.700 -0.3613 -2.9354  0.5283
  129OSM    C8S13770   4.196   1.778   2.778  0.7012  0.2568  0.0690
  129OSM    H8S13771   4.246   1.685   2.813  2.5410  1.3578  0.4319
  129OSM    H8T13772   4.097   1.745   2.739  0.2981  0.1054  1.1805
  129OSM    C9S13773   4.169   1.870   2.896  0.1338  0.3289  1.3880
  129OSM    H9S13774   4.109   1.798   2.955  1.4707 -3.0653 -1.0695
  129OSM    H9T13775   4.101   1.950   2.861  0.8750 -0.2895 -1.7107
  129OSM   C10S13776   4.286   1.903   2.985 -0.2265  0.0801 -0.3835
  129OSM   H10S13777   4.248   1.962   3.070 -1.6138 -0.2106 -0.7664
  129OSM   H10T13778   4.367   1.959   2.933  3.5822 -1.5037  3.2278
  129OSM   C11S13779   4.359   1.775   3.040 -0.4300 -0.4658  0.0335
  129OSM   H11S13780   4.395   1.720   2.951 -3.1827 -0.0201 -1.4732
  129OSM   H11T13781   4.281   1.710   3.086  0.8418 -0.7311  1.9665
  129OSM   C12S13782   4.466   1.800   3.143 -0.2129 -1.0728 -0.2044
  129OSM   H12S13783   4.532   1.886   3.119  0.4429 -1.0676  1.4431
  129OSM   H12T13784   4.534   1.713   3.155 -0.3405 -0.9942  1.4026
  129OSM   C13S13785   4.402   1.837   3.273 -0.0042 -0.0126  0.0521
  129OSM   H13S13786   4.304   1.879   3.242  0.3804  1.2519  0.4734
  129OSM   H13T13787   4.458   1.923   3.316 -0.6540  0.5827 -0.2701
  129OSM   C14S13788   4.395   1.721   3.373  0.0390  0.2853 -0.3609
  129OSM   H14S13789   4.483   1.655   3.356 -0.0929  0.6567 -2.8274
  129OSM   H14T13790   4.307   1.654   3.365  1.2608 -1.3674 -0.4081
  129OSM   C15S13791   4.409   1.769   3.519 -0.4171  0.8914 -0.0611
  129OSM   H15S13792   4.349   1.857   3.551 -2.0758 -0.7015  1.4564
  129OSM   H15T13793   4.516   1.794   3.532 -0.6125  1.2353  0.9470
  129OSM   C16S13794   4.382   1.650   3.614 -0.2935 -0.5495 -0.4490
  129OSM   H16S13795   4.275   1.625   3.599 -0.3452 -1.1594  0.8168
  129OSM   H16T13796   4.387   1.693   3.717 -1.2159 -1.1875 -0.1252
  129OSM   C17S13797   4.470   1.527   3.608 -0.1351  0.0003  0.2836
  129OSM   H17S13798   4.468   1.489   3.504 -1.9269  0.5921  0.0546
  129OSM   H17T13799   4.426   1.445   3.670 -0.0881  1.9123  3.0324
  129OSM   C18S13800   4.610   1.554   3.662  0.0441  0.6440 -0.3281
  129OSM   H18S13801   4.665   1.460   3.645 -0.2672  0.1166  1.4189
  129OSM   H18T13802   4.621   1.578   3.770 -0.2324  0.6858 -0.3069
  129OSM   H18U13803   4.663   1.631   3.602 -1.9705 -0.0286 -3.1748
  129OSM    C1F13804   4.377   1.620   1.982  0.2389  0.4243  0.2511
  129OSM     OF13805   4.468   1.544   1.950  0.2335 -0.0395 -0.6640
  129OSM    C2F13806   4.253   1.605   1.908  0.3559 -0.7632  0.6980
  129OSM    H2F13807   4.269   1.585   1.800 -2.2887  0.1190  0.0667
  129OSM    H2G13808   4.188   1.694   1.904  2.0448  0.5336  0.9011
  129OSM    C3F13809   4.168   1.491   1.963 -0.2560 -0.1814  0.2450
  129OSM    H3F13810   4.218   1.392   1.963 -0.2024 -0.1556  0.4828
  129OSM    H3G13811   4.080   1.500   1.896 -0.0387  3.0193  0.2125
  129OSM    C4F13812   4.115   1.503   2.104 -0.4290 -0.4622  0.0318
  129OSM    H4F13813   4.062   1.599   2.116 -0.5439 -0.6174  0.8434
  129OSM    H4G13814   4.195   1.506   2.181 -1.5838  1.4939  1.2412
  129OSM    C5F13815   4.012   1.405   2.160 -0.3197 -0.8303  0.5336
  129OSM    H5F13816   4.033   1.310   2.107 -0.5305 -0.1816 -0.7517
  129OSM    H5G13817   3.911   1.435   2.126  0.5042  0.0018 -1.3327
  129OSM    C6F13818   4.008   1.409   2.310  0.2719  0.3632  0.0409
  129OSM    H6F13819   3.908   1.402   2.358  0.6096  1.7175  0.9820
  129OSM    H6G13820   4.048   1.507   2.342 -0.0570  1.3544 -2.3522
  129OSM    C7F13821   4.087   1.295   2.369 -0.5592  0.2086 -0.2498
  129OSM    H7F13822   4.194   1.304   2.342 -0.8654 -1.3165 -2.1800
  129OSM    H7G13823   4.045   1.198   2.333  0.1777 -0.5154  0.7828
  129OSM    C8F13824   4.064   1.277   2.516 -0.0460 -0.1678  0.3376
  129OSM    H8F13825   4.109   1.178   2.540 -2.0894 -1.0115  0.9712
  129OSM    H8G13826   3.953   1.274   2.525 -0.0112 -1.2653  0.6211
  129OSM    C9F13827   4.132   1.384   2.586  0.4295 -0.0055 -0.7276
  129OSM    H9F13828   4.223   1.429   2.544  1.1063  2.2480  2.8198
  129OSM   C10F13829   4.092   1.429   2.710  0.0898 -0.3345 -0.1093
  129OSM   H10F13830   4.149   1.506   2.764 -0.0853  0.4002 -0.9736
  129OSM   C11F13831   3.976   1.380   2.791  0.6258  0.7087  0.3708
  129OSM   H11F13832   3.944   1.274   2.779  0.8577  0.4616  1.8234
  129OSM   H11G13833   3.886   1.437   2.758 -1.6138 -0.5964  3.6463
  129OSM   C12F13834   4.001   1.412   2.934 -0.0320  0.0243 -0.5604
  129OSM   H12F13835   3.901   1.398   2.980  0.0583 -0.2785 -0.4517
  129OSM   H12G13836   4.038   1.515   2.950  2.3953 -0.8061 -0.3582
  129OSM   C13F13837   4.094   1.318   3.009 -0.3097  0.3606 -0.7816
  129OSM   H13F13838   4.196   1.320   2.965 -0.0801 -0.5565 -0.3105
  129OSM   H13G13839   4.057   1.213   3.013  0.6300  0.0421  0.1780
  129OSM   C14F13840   4.112   1.364   3.155 -0.4380 -0.0428 -0.0962
  129OSM   H14F13841   4.015   1.353   3.207 -1.2662 -0.1288 -1.6025
  129OSM   H14G13842   4.129   1.474   3.168 -2.5367  0.0144  3.2850
  129OSM   C15F13843   4.214   1.275   3.233  0.2323 -0.3335  0.1191
  129OSM   H15F13844   4.309   1.294   3.180 -0.9900  2.0567 -1.3785
  129OSM   H15G13845   4.191   1.167   3.222 -0.0085 -0.5173  1.9824
  129OSM   C16F13846   4.243   1.317   3.379  0.1196  0.5547 -0.1022
  129OSM   H16F13847   4.288   1.418   3.370 -1.2319  1.0088 -2.9093
  129OSM   H16G13848   4.319   1.250   3.424 -0.7958  0.0323  0.7012
  129OSM   C17F13849   4.114   1.319   3.462 -0.0973 -0.0085  0.6068
  129OSM   H17F13850   4.066   1.220   3.447 -0.5149  0.1501  0.8789
  129OSM   H17G13851   4.051   1.402   3.423  0.5729 -0.3929 -1.3812
  129OSM   C18F13852   4.136   1.346   3.616  0.4177 -0.4324  0.4802
  129OSM   H18F13853   4.236   1.304   3.642  0.1231 -1.4128  0.0798
  129OSM   H18G13854   4.060   1.299   3.681  0.1007 -2.2549 -1.0988
  129OSM   H18H13855   4.139   1.455   3.637 -0.7973 -0.1861 -0.4998
  130OSM      N13856   4.252   5.685   1.716  0.6687  0.3553  0.6952
  130OSM    C1513857   4.255   5.742   1.576 -0.2701  0.0110 -0.0857
  130OSM   H15A13858   4.226   5.846   1.568  0.1515  0.1786  0.4307
  130OSM   H15B13859   4.183   5.692   1.514  0.1503  0.6002 -1.0711
  130OSM   H15C13860   4.351   5.733   1.526 -0.3158  2.1839 -0.6839
  130OSM    C1413861   4.117   5.694   1.779 -0.2484  0.2479 -0.0131
  130OSM   H14A13862   4.034   5.661   1.718  2.1516 -2.9756 -1.8319
  130OSM   H14B13863   4.096   5.800   1.792 -0.0810  0.2586  0.1763
  130OSM   H14C13864   4.111   5.640   1.872 -0.6443 -1.2154 -0.8667
  130OSM    C1313865   4.281   5.537   1.712  1.0505 -0.1803 -0.1331
  130OSM   H13A13866   4.323   5.515   1.615 -2.3198  0.3459 -1.8944
  130OSM   H13B13867   4.185   5.490   1.724  0.5279  0.7950 -0.3800
  130OSM   H13C13868   4.333   5.510   1.802 -0.8006  1.0853  1.4146
  130OSM    C1213869   4.352   5.748   1.802 -0.7753 -0.3324  0.5879
  130OSM   H12A13870   4.454   5.728   1.773 -0.5140  2.7052 -1.0199
  130OSM   H12B13871   4.335   5.711   1.902  2.6106 -0.4741  1.2225
  130OSM    C1113872   4.343   5.904   1.807 -0.6207  0.7103 -0.3343
  130OSM   H11A13873   4.328   5.946   1.705  1.7769  0.7678 -0.7258
  130OSM   H11B13874   4.445   5.937   1.836  0.4762 -0.7485 -2.2662
  130OSM      P13875   4.207   6.092   1.906 -0.1341 -0.5573  0.5567
  130OSM    O1313876   4.311   6.146   2.001  0.0724  0.8105 -0.5676
  130OSM    O1413877   4.206   6.156   1.769  0.2156  0.3537 -0.0661
  130OSM    O1113878   4.066   6.115   1.975 -0.0405 -0.8181 -0.1160
  130OSM    O1213879   4.234   5.936   1.890  0.8796  0.7064 -0.4999
  130OSM    C1S13880   3.984   6.002   2.028  0.2388  0.0802  0.8344
  130OSM    H1S13881   4.032   5.906   2.001  1.3190  0.4018  1.5282
  130OSM    H1T13882   3.877   6.014   2.002  0.4980  0.3708 -0.1787
  130OSM     NF13883   3.897   5.891   2.222 -0.3963  0.1277  0.3045
  130OSM    HNF13884   3.808   5.910   2.262  0.0838 -0.6168  1.7763
  130OSM    C2S13885   3.979   6.005   2.180 -0.1771  0.5150  0.3861
  130OSM    H2S13886   4.085   5.993   2.212 -0.2403 -1.7552 -0.0782
  130OSM    C3S13887   3.925   6.141   2.228 -0.0315 -0.4442  0.7277
  130OSM    H3S13888   3.821   6.152   2.191 -0.0364 -1.3062  0.4491
  130OSM     O313889   3.990   6.252   2.171 -0.2295  0.3882 -0.2670
  130OSM    HO313890   4.040   6.215   2.098 -0.1838  1.2453 -0.6805
  130OSM    C4S13891   3.928   6.157   2.373  0.1068 -0.0724 -0.5661
  130OSM    H4S13892   4.019   6.204   2.413 -0.4960  2.6115 -2.0516
  130OSM    C5S13893   3.825   6.129   2.452 -0.2776 -0.3787 -0.0659
  130OSM    H5S13894   3.726   6.102   2.412  0.6299 -0.8525 -2.1405
  130OSM    C6S13895   3.833   6.166   2.599  0.5416  0.8329  0.3151
  130OSM    H6S13896   3.916   6.121   2.659 -2.1890 -0.6059  3.2914
  130OSM    H6T13897   3.746   6.129   2.657  1.9533 -1.6321  1.0149
  130OSM    C7S13898   3.844   6.318   2.619  0.1554  0.8079 -0.3355
  130OSM    H7S13899   3.754   6.368   2.578 -0.3430  1.1255  1.0776
  130OSM    H7T13900   3.937   6.355   2.570  1.8548 -0.8238  1.4297
  130OSM    C8S13901   3.855   6.369   2.763  1.0430  0.2225 -1.0138
  130OSM    H8S13902   3.872   6.479   2.764  2.4078  0.0354  0.2087
  130OSM    H8T13903   3.953   6.326   2.794  0.7732  0.5382  0.3640
  130OSM    C9S13904   3.729   6.338   2.847 -0.2161  0.6354 -0.3515
  130OSM    H9S13905   3.704   6.236   2.810  0.5483  0.8784 -1.6141
  130OSM    H9T13906   3.649   6.412   2.826 -0.1893  0.0945 -2.6528
  130OSM   C10S13907   3.769   6.328   2.998  0.1215 -0.4282  0.6651
  130OSM   H10S13908   3.811   6.427   3.025 -2.4376  1.2751 -1.0862
  130OSM   H10T13909   3.856   6.260   3.003 -1.8049 -3.1105 -0.1038
  130OSM   C11S13910   3.647   6.283   3.072 -0.7359  0.4586  0.1662
  130OSM   H11S13911   3.611   6.198   3.011 -0.6158  0.5668 -0.0599
  130OSM   H11T13912   3.573   6.366   3.066 -0.4114  0.8382  1.1714
  130OSM   C12S13913   3.674   6.223   3.211 -0.6078  0.6394  0.1254
  130OSM   H12S13914   3.749   6.143   3.191 -0.3538  1.2624 -1.5155
  130OSM   H12T13915   3.580   6.194   3.262 -0.5248  1.8938  1.0273
  130OSM   C13S13916   3.737   6.327   3.305  0.6735  0.4058 -0.3683
  130OSM   H13S13917   3.801   6.395   3.244  0.8462 -0.7926 -1.5772
  130OSM   H13T13918   3.802   6.275   3.378  1.9694  2.0614 -0.2815
  130OSM   C14S13919   3.642   6.404   3.410 -0.4098  0.4284 -0.1397
  130OSM   H14S13920   3.593   6.338   3.485  0.7712 -0.5673 -0.2087
  130OSM   H14T13921   3.558   6.442   3.348 -1.3803 -0.6462  0.4704
  130OSM   C15S13922   3.722   6.523   3.471 -0.1170  0.3532  0.2408
  130OSM   H15S13923   3.748   6.599   3.394 -0.4419  0.0354 -0.1897
  130OSM   H15T13924   3.818   6.480   3.509  0.1615 -1.6669 -2.4221
  130OSM   C16S13925   3.648   6.582   3.598 -0.1580 -0.5632 -0.3942
  130OSM   H16S13926   3.541   6.591   3.569 -0.1564  0.3474 -0.1587
  130OSM   H16T13927   3.667   6.691   3.601  2.9075 -1.0333  0.2232
  130OSM   C17S13928   3.658   6.518   3.738  0.1654 -0.4471  0.1870
  130OSM   H17S13929   3.666   6.408   3.725 -2.0213 -0.4845 -1.3900
  130OSM   H17T13930   3.560   6.550   3.779 -0.5710  1.4466 -2.7688
  130OSM   C18S13931   3.768   6.581   3.815  0.3656 -0.7365 -0.6765
  130OSM   H18S13932   3.764   6.692   3.813  1.8703 -0.6613 -0.6868
  130OSM   H18T13933   3.868   6.549   3.778  0.7976  0.0159 -0.1754
  130OSM   H18U13934   3.758   6.544   3.919  1.5083  1.1297  0.1446
  130OSM    C1F13935   3.934   5.764   2.217 -0.1857  0.1417  0.3093
  130OSM     OF13936   4.037   5.724   2.164 -0.4763 -0.4334 -0.0262
  130OSM    C2F13937   3.837   5.664   2.286  0.1857  0.4652  0.5821
  130OSM    H2F13938   3.777   5.613   2.209  0.0160  0.6932  0.5609
  130OSM    H2G13939   3.763   5.725   2.342  1.0513  2.0407  0.0732
  130OSM    C3F13940   3.917   5.559   2.368 -0.2704 -0.0662 -0.3422
  130OSM    H3F13941   3.984   5.511   2.293 -2.1484 -2.0271 -0.8486
  130OSM    H3G13942   3.843   5.479   2.389  0.2623 -1.4862 -3.2871
  130OSM    C4F13943   3.985   5.624   2.500 -0.5526  0.4783 -0.0632
  130OSM    H4F13944   4.048   5.707   2.462 -1.1743  1.7291  1.5401
  130OSM    H4G13945   4.037   5.545   2.559 -0.5307  0.3476 -0.2556
  130OSM    C5F13946   3.885   5.689   2.600  0.2194 -0.0694  0.8435
  130OSM    H5F13947   3.810   5.613   2.631 -1.4127  1.5518  1.0548
  130OSM    H5G13948   3.825   5.772   2.558  0.6597  0.6718  1.6653
  130OSM    C6F13949   3.970   5.748   2.719  0.0527  0.7040 -0.1020
  130OSM    H6F13950   4.066   5.792   2.684 -0.3875  0.6863 -1.3570
  130OSM    H6G13951   4.003   5.654   2.769 -0.8641  1.2665  1.6530
  130OSM    C7F13952   3.887   5.837   2.816 -0.0345 -0.5675 -0.3675
  130OSM    H7F13953   3.782   5.802   2.822 -0.5318  0.6603 -1.4176
  130OSM    H7G13954   3.881   5.935   2.764 -3.8060 -0.4065  0.0537
  130OSM    C8F13955   3.950   5.859   2.955  0.0136 -0.7720 -0.2495
  130OSM    H8F13956   3.953   5.755   2.994  0.3042 -0.6096  0.1759
  130OSM    H8G13957   3.882   5.906   3.029  0.4053 -2.8042  1.5046
  130OSM    C9F13958   4.096   5.905   2.971 -0.6191  0.0384  0.1583
  130OSM    H9F13959   4.155   5.912   2.879  1.1136 -2.3044  0.9951
  130OSM   C10F13960   4.160   5.932   3.087  0.7508 -0.6646  0.7138
  130OSM   H10F13961   4.267   5.956   3.094  0.1060  2.4281  1.8901
  130OSM   C11F13962   4.115   5.912   3.228 -0.0643 -0.8502 -0.0547
  130OSM   H11F13963   4.197   5.866   3.287 -0.5971  1.7783  3.0738
  130OSM   H11G13964   4.029   5.842   3.233 -1.1693  0.3983 -0.6833
  130OSM   C12F13965   4.085   6.047   3.296  0.7840 -0.0318 -0.3937
  130OSM   H12F13966   4.009   6.093   3.229  1.3301  0.4881 -0.6667
  130OSM   H12G13967   4.177   6.109   3.283  0.3414  0.1395 -3.2303
  130OSM   C13F13968   4.030   6.024   3.438  0.1440 -0.0612  0.3397
  130OSM   H13F13969   4.106   5.957   3.485  0.4697  0.1305  0.0913
  130OSM   H13G13970   3.938   5.962   3.429 -0.2940  0.9177 -3.3011
  130OSM   C14F13971   4.022   6.141   3.533 -0.1197  0.1842  0.3491
  130OSM   H14F13972   3.927   6.196   3.514 -0.0204  1.0065  2.0742
  130OSM   H14G13973   4.092   6.225   3.511 -2.4044  2.5615  1.7073
  130OSM   C15F13974   4.040   6.114   3.685  0.3540  0.0067  0.1144
  130OSM   H15F13975   4.138   6.064   3.698  0.2178  0.0342  1.3579
  130OSM   H15G13976   3.962   6.039   3.713 -1.1271  0.6599 -1.9609
  130OSM   C16F13977   4.020   6.240   3.780 -0.7615 -0.0483 -0.3541
  130OSM   H16F13978   3.944   6.313   3.745 -1.1293 -0.7744 -1.0865
  130OSM   H16G13979   4.111   6.302   3.766 -0.5889 -0.5051 -1.3182
  130OSM   C17F13980   3.998   6.190   3.924 -0.0942  0.1748 -0.4516
  130OSM   H17F13981   4.090   6.133   3.948  0.0161  0.4370 -0.2430
  130OSM   H17G13982   3.913   6.119   3.919 -0.7418  0.9339 -0.4587
  130OSM   C18F13983   3.961   6.297   4.033 -0.7315  0.3689  0.1613
  130OSM   H18F13984   4.049   6.347   4.080  0.1618 -0.1044 -0.9517
  130OSM   H18G13985   3.894   6.246   4.106 -0.2763  1.0183  1.0526
  130OSM   H18H13986   3.901   6.376   3.983 -0.2472 -0.4621 -1.8100
  131OSM      N13987   1.154   2.516   2.012  0.2887  0.1826  0.1506
  131OSM    C1513988   1.181   2.377   1.983 -0.9944  0.1614  0.0959
  131OSM   H15A13989   1.283   2.367   1.950 -0.0749  2.8412  1.8187
  131OSM   H15B13990   1.133   2.345   1.891  1.0907 -0.0051 -0.9983
  131OSM   H15C13991   1.152   2.306   2.059 -1.5657 -0.1075 -0.3664
  131OSM    C1413992   1.171   2.596   1.880 -0.1002 -0.7582  0.3939
  131OSM   H14A13993   1.116   2.538   1.808 -0.7482  0.1811  0.1099
  131OSM   H14B13994   1.277   2.591   1.858  0.0016 -0.2021  0.7226
  131OSM   H14C13995   1.142   2.699   1.891  2.8487 -0.0189  2.8806
  131OSM    C1313996   1.013   2.525   2.058 -0.5801  0.4602  0.0608
  131OSM   H13A13997   1.002   2.460   2.143  2.9615  0.6736  0.8507
  131OSM   H13B13998   0.951   2.500   1.973 -2.2502  0.8251  1.1432
  131OSM   H13C13999   0.982   2.626   2.079  0.2743  0.4221  1.6491
  131OSM    C1214000   1.249   2.581   2.114  0.5632  0.1523  0.3997
  131OSM   H12A14001   1.251   2.522   2.204  2.6428 -2.0738 -0.9933
  131OSM   H12B14002   1.213   2.681   2.130 -1.5556 -0.4875 -0.0518
  131OSM    C1114003   1.399   2.574   2.070 -0.7934  0.3016  0.5151
  131OSM   H11A14004   1.429   2.471   2.044 -2.2178  0.1057 -0.4935
  131OSM   H11B14005   1.470   2.590   2.153  1.2253 -0.1369 -1.0490
  131OSM      P14006   1.433   2.821   1.979  0.3064  0.0786 -0.0845
  131OSM    O1314007   1.478   2.881   1.849 -0.2113 -0.2155  0.7180
  131OSM    O1414008   1.305   2.860   2.038 -0.0008 -0.0795  0.7476
  131OSM    O1114009   1.542   2.844   2.089  0.3377 -0.0193  0.0505
  131OSM    O1214010   1.437   2.661   1.961 -0.2613 -0.4426 -0.3257
  131OSM    C1S14011   1.579   2.975   2.128 -0.6649 -0.2534 -0.2838
  131OSM    H1S14012   1.494   3.046   2.143 -1.7880 -1.4748 -0.6708
  131OSM    H1T14013   1.650   3.020   2.055  0.1205 -1.1500 -0.0851
  131OSM     NF14014   1.636   3.110   2.328 -0.4785  0.1459 -0.7291
  131OSM    HNF14015   1.722   3.160   2.333  1.1247 -2.6031  2.8611
  131OSM    C2S14016   1.650   2.980   2.267 -0.1134  0.1927 -0.1343
  131OSM    H2S14017   1.601   2.911   2.340  0.5133  1.4234  1.5273
  131OSM    C3S14018   1.796   2.931   2.249  0.2002  0.2387  1.4635
  131OSM    H3S14019   1.850   3.011   2.194 -0.4007 -0.4338 -0.1663
  131OSM     O314020   1.811   2.809   2.169 -0.4359 -0.5983  0.4157
  131OSM    HO314021   1.724   2.805   2.128 -0.3343  0.3414  0.0838
  131OSM    C4S14022   1.869   2.901   2.383 -0.0764 -0.0099 -0.3277
  131OSM    H4S14023   1.810   2.836   2.450  1.4366 -0.8626  0.2349
  131OSM    C5S14024   1.991   2.950   2.416  0.0595  0.3151 -1.0064
  131OSM    H5S14025   2.048   3.016   2.349  0.5208  0.3063 -0.6334
  131OSM    C6S14026   2.050   2.918   2.552  0.3028 -0.3030  0.7294
  131OSM    H6S14027   2.131   2.844   2.537 -1.7435 -1.9392 -4.5163
  131OSM    H6T14028   1.970   2.865   2.607 -2.5971  3.3691  0.3939
  131OSM    C7S14029   2.077   3.050   2.627 -0.1369  0.2614 -1.0385
  131OSM    H7S14030   2.012   3.133   2.591  1.1326  1.4647 -0.6577
  131OSM    H7T14031   2.181   3.087   2.612  0.3614 -1.0198 -0.8431
  131OSM    C8S14032   2.042   3.045   2.774 -0.1836  0.2004  0.0551
  131OSM    H8S14033   1.933   3.028   2.787 -0.1220  0.2771  0.7057
  131OSM    H8T14034   2.069   3.142   2.822  1.1339 -0.6159  1.0470
  131OSM    C9S14035   2.115   2.945   2.860 -0.5478  0.3033 -0.5186
  131OSM    H9S14036   2.226   2.945   2.861 -0.5108 -0.3466 -1.9638
  131OSM    H9T14037   2.091   2.855   2.799  0.9133 -1.4414  1.3561
  131OSM   C10S14038   2.048   2.932   3.000 -0.4945 -0.4632 -0.2494
  131OSM   H10S14039   2.096   2.864   3.073  2.3968  1.0505 -0.5709
  131OSM   H10T14040   1.946   2.890   2.992  0.1671 -2.7410  1.9754
  131OSM   C11S14041   2.022   3.069   3.071 -0.4621  0.3963 -0.1232
  131OSM   H11S14042   1.951   3.138   3.022  0.3188  1.4393  0.1720
  131OSM   H11T14043   2.118   3.125   3.075 -0.9967  1.2888  1.2934
  131OSM   C12S14044   1.971   3.062   3.214  0.3119  0.1847  0.4598
  131OSM   H12S14045   2.035   2.987   3.265 -0.0632 -0.1858  0.3928
  131OSM   H12T14046   1.874   3.008   3.214  0.7927 -0.8202 -2.4902
  131OSM   C13S14047   1.976   3.189   3.289  0.5419 -0.3789 -0.0981
  131OSM   H13S14048   1.891   3.255   3.259 -1.3884 -3.1656 -1.1696
  131OSM   H13T14049   2.073   3.237   3.265  0.5488  0.2958  1.1844
  131OSM   C14S14050   1.939   3.180   3.433  0.5823  0.0909 -0.3884
  131OSM   H14S14051   1.839   3.137   3.459  1.7531 -2.5653  0.1011
  131OSM   H14T14052   1.952   3.286   3.463 -0.9547  0.1387  0.2040
  131OSM   C15S14053   2.043   3.099   3.519  0.3944 -0.4094  0.0944
  131OSM   H15S14054   2.144   3.138   3.495  0.8043  0.3013  2.7068
  131OSM   H15T14055   2.043   2.991   3.492 -0.1025  0.0557 -1.9556
  131OSM   C16S14056   2.021   3.112   3.672 -0.1743 -0.3066 -0.1260
  131OSM   H16S14057   1.961   3.027   3.709  3.0045 -3.1154 -0.8788
  131OSM   H16T14058   1.956   3.202   3.679 -1.5582 -1.2275 -0.6291
  131OSM   C17S14059   2.149   3.132   3.747 -0.6222 -0.0606  0.0052
  131OSM   H17S14060   2.200   3.218   3.699  1.1041 -0.5758  0.8564
  131OSM   H17T14061   2.220   3.048   3.736  0.0607  0.5864 -0.6122
  131OSM   C18S14062   2.121   3.148   3.901 -0.0303 -0.6555  0.8731
  131OSM   H18S14063   2.219   3.146   3.952 -0.1799  0.9503  1.2792
  131OSM   H18T14064   2.059   3.069   3.948 -1.8893  0.0597 -0.2739
  131OSM   H18U14065   2.078   3.249   3.919  1.6168  0.1981  0.3148
  131OSM    C1F14066   1.529   3.150   2.391  0.2298  0.0693 -0.4160
  131OSM     OF14067   1.426   3.077   2.383  0.0535 -0.1931 -0.7019
  131OSM    C2F14068   1.533   3.285   2.459 -0.2894 -0.2611  0.0880
  131OSM    H2F14069   1.503   3.369   2.393  1.1045  0.0309 -0.1894
  131OSM    H2G14070   1.640   3.309   2.474 -0.1734 -1.4521  1.3665
  131OSM    C3F14071   1.454   3.295   2.592  0.0570 -0.6277  0.1616
  131OSM    H3F14072   1.350   3.270   2.563 -0.1837  1.3001 -0.8293
  131OSM    H3G14073   1.458   3.399   2.630  1.0640 -1.1855  1.6493
  131OSM    C4F14074   1.494   3.190   2.686  0.0096  0.1486 -0.3753
  131OSM    H4F14075   1.603   3.174   2.702 -0.3942  0.0309  3.1397
  131OSM    H4G14076   1.451   3.092   2.658 -1.6021  0.6303  0.3355
  131OSM    C5F14077   1.450   3.201   2.834  0.4008 -0.3198 -0.2365
  131OSM    H5F14078   1.341   3.176   2.836  0.8289 -2.3484  0.5749
  131OSM    H5G14079   1.467   3.303   2.875 -0.3227 -0.4193  0.3306
  131OSM    C6F14080   1.514   3.093   2.928  0.4423 -0.1957 -0.4140
  131OSM    H6F14081   1.474   3.096   3.032  0.0561 -1.2097 -0.5165
  131OSM    H6G14082   1.621   3.122   2.933  0.4492 -0.3548  0.5889
  131OSM    C7F14083   1.491   2.951   2.879 -0.1589  0.9412 -0.4565
  131OSM    H7F14084   1.554   2.930   2.790 -0.8062  1.7751 -1.1379
  131OSM    H7G14085   1.387   2.936   2.843  0.1237 -0.0521 -0.9157
  131OSM    C8F14086   1.517   2.841   2.978 -0.7197  0.1408  0.1547
  131OSM    H8F14087   1.500   2.744   2.929  0.5309  0.7413 -1.5612
  131OSM    H8G14088   1.444   2.843   3.061 -0.6213 -0.0697  0.2466
  131OSM    C9F14089   1.662   2.839   3.026 -0.1918  0.0683 -0.0582
  131OSM    H9F14090   1.738   2.819   2.949  2.0057  1.3870  1.6284
  131OSM   C10F14091   1.703   2.838   3.156  0.0914  0.1925 -0.6610
  131OSM   H10F14092   1.804   2.801   3.177 -0.3560 -0.8542 -0.2940
  131OSM   C11F14093   1.618   2.853   3.281  0.1751 -0.4143 -0.1947
  131OSM   H11F14094   1.689   2.835   3.365  2.9096 -1.8713 -2.5890
  131OSM   H11G14095   1.541   2.774   3.294 -0.6301  0.3612 -0.2393
  131OSM   C12F14096   1.544   2.989   3.291 -0.3992  0.1044 -0.0923
  131OSM   H12F14097   1.465   2.996   3.214  0.4431  0.3502 -0.9621
  131OSM   H12G14098   1.621   3.068   3.278  1.4555 -1.0283  2.8620
  131OSM   C13F14099   1.487   3.033   3.428  0.3701  0.1426 -0.2369
  131OSM   H13F14100   1.398   2.968   3.444  0.9867 -0.6071  0.2634
  131OSM   H13G14101   1.454   3.138   3.412 -1.0449 -0.0509  1.1141
  131OSM   C14F14102   1.571   3.012   3.561 -0.1268  0.4883  0.3828
  131OSM   H14F14103   1.658   3.080   3.570 -0.1399  0.2950  2.3455
  131OSM   H14G14104   1.594   2.903   3.560  0.2402  0.5234  2.0420
  131OSM   C15F14105   1.489   3.029   3.689 -0.1323 -0.3063  0.3435
  131OSM   H15F14106   1.566   3.034   3.768 -0.3690  0.6290  0.5197
  131OSM   H15G14107   1.413   2.949   3.703 -1.2375  0.8745  1.2931
  131OSM   C16F14108   1.419   3.172   3.694  0.3346  0.2362 -0.0291
  131OSM   H16F14109   1.357   3.184   3.603  0.6918  0.1332 -0.2907
  131OSM   H16G14110   1.489   3.257   3.675 -0.6783  1.1658  0.3491
  131OSM   C17F14111   1.336   3.196   3.821  0.0313 -0.1896 -0.4634
  131OSM   H17F14112   1.268   3.110   3.833  0.3005 -0.4529 -0.8303
  131OSM   H17G14113   1.277   3.289   3.805 -0.7845 -0.4217  0.9568
  131OSM   C18F14114   1.413   3.220   3.953  0.1487  0.2258 -0.0736
  131OSM   H18F14115   1.482   3.134   3.966 -0.8728 -0.9078 -1.8025
  131OSM   H18G14116   1.345   3.211   4.040  2.4827 -0.4004  1.7798
  131OSM   H18H14117   1.474   3.313   3.960 -0.1400  0.6186 -2.0543
  132OSM      N14118   1.264   3.395   1.625 -0.2259  0.0958 -0.0466
  132OSM    C1514119   1.315   3.461   1.502 -0.0420 -0.0274  0.0762
  132OSM   H15A14120   1.260   3.439   1.411  0.0758  1.0053 -0.2480
  132OSM   H15B14121   1.419   3.446   1.480  0.4905  2.3230  0.7788
  132OSM   H15C14122   1.307   3.567   1.520  0.8474 -0.5567  4.8301
  132OSM    C1414123   1.295   3.247   1.606  0.2643  0.4215 -0.0511
  132OSM   H14A14124   1.245   3.214   1.516  1.9892  3.4233 -2.3017
  132OSM   H14B14125   1.255   3.185   1.685 -2.2690  0.8726 -0.8854
  132OSM   H14C14126   1.402   3.236   1.595  0.3207  1.1798 -0.3190
  132OSM    C1314127   1.352   3.448   1.740  0.1032 -0.3288  0.3738
  132OSM   H13A14128   1.451   3.404   1.730 -0.1741 -0.6522 -1.1061
  132OSM   H13B14129   1.297   3.430   1.832  0.3630 -1.4395  0.3331
  132OSM   H13C14130   1.368   3.553   1.725  0.3331 -0.5718 -1.3081
  132OSM    C1214131   1.116   3.409   1.659  0.3634 -0.2975  0.9097
  132OSM   H12A14132   1.065   3.372   1.572  0.9888 -0.8634  0.7764
  132OSM   H12B14133   1.084   3.511   1.676 -2.4837 -1.0022  0.2837
  132OSM    C1114134   1.057   3.342   1.778 -0.4153 -0.4076 -0.0333
  132OSM   H11A14135   1.091   3.237   1.780 -1.0592 -0.7174 -2.2196
  132OSM   H11B14136   0.947   3.333   1.762 -0.2786 -1.1349 -0.6031
  132OSM      P14137   1.016   3.558   1.930 -0.3566  0.3587  0.1930
  132OSM    O1314138   1.056   3.614   2.065  0.3251 -0.1987 -0.2720
  132OSM    O1414139   1.016   3.649   1.812  0.4812  0.1880 -0.3148
  132OSM    O1114140   0.872   3.513   1.955  0.0094 -0.2478 -0.4007
  132OSM    O1214141   1.098   3.417   1.890  0.0786  0.6291 -0.5465
  132OSM    C1S14142   0.835   3.399   2.036  0.2136 -0.3951  0.7801
  132OSM    H1S14143   0.908   3.318   2.016  0.7276  0.3409 -0.4162
  132OSM    H1T14144   0.732   3.367   2.008 -0.3275  0.7942  1.3476
  132OSM     NF14145   0.812   3.301   2.262 -0.2185  0.0703 -0.2941
  132OSM    HNF14146   0.732   3.290   2.321 -0.0709  0.5254 -0.0029
  132OSM    C2S14147   0.837   3.430   2.190  0.0780  0.0936  0.0471
  132OSM    H2S14148   0.935   3.475   2.218  0.5626  0.3118 -1.8532
  132OSM    C3S14149   0.722   3.534   2.213  0.4290 -0.4606 -1.0281
  132OSM    H3S14150   0.630   3.482   2.177  0.4635 -1.0040 -0.3621
  132OSM     O314151   0.722   3.654   2.134  0.2995  0.4319  0.3611
  132OSM    HO314152   0.774   3.627   2.057 -0.6271  2.0104 -0.8654
  132OSM    C4S14153   0.711   3.555   2.362  0.5771  0.2112  0.9972
  132OSM    H4S14154   0.613   3.524   2.401  0.2357 -0.4480 -0.3490
  132OSM    C5S14155   0.791   3.625   2.444 -0.3399  0.1749 -0.3493
  132OSM    H5S14156   0.885   3.680   2.428  0.6233 -1.2193  0.3865
  132OSM    C6S14157   0.758   3.636   2.593  0.5713 -0.0800  0.0200
  132OSM    H6S14158   0.652   3.616   2.620  0.7267  1.7532  2.3012
  132OSM    H6T14159   0.783   3.736   2.633 -0.3118 -0.1958  0.9128
  132OSM    C7S14160   0.836   3.528   2.673 -0.2063 -0.1012 -0.0008
  132OSM    H7S14161   0.940   3.566   2.670 -0.5928  1.0722  0.8182
  132OSM    H7T14162   0.833   3.436   2.610  0.1782  0.9823 -1.6676
  132OSM    C8S14163   0.779   3.501   2.819  0.4708  0.0856 -0.1888
  132OSM    H8S14164   0.761   3.392   2.829 -2.0251  0.6082  2.0345
  132OSM    H8T14165   0.687   3.561   2.835 -1.1549 -1.5688 -2.5810
  132OSM    C9S14166   0.885   3.550   2.914 -0.7460 -1.0156 -0.9843
  132OSM    H9S14167   0.989   3.526   2.884 -0.5954  0.3947 -1.7214
  132OSM    H9T14168   0.860   3.500   3.010 -0.7723  1.0437  0.1409
  132OSM   C10S14169   0.882   3.699   2.927  0.6893 -0.5610 -0.0451
  132OSM   H10S14170   0.785   3.732   2.971  0.7909 -0.9789  0.5126
  132OSM   H10T14171   0.900   3.756   2.833 -0.3690 -0.0729  0.0313
  132OSM   C11S14172   0.997   3.745   3.012 -0.3833  0.1849  0.1269
  132OSM   H11S14173   1.000   3.856   3.016 -0.9249  0.1703  1.5735
  132OSM   H11T14174   1.089   3.707   2.963 -0.7602 -0.5785  0.0022
  132OSM   C12S14175   0.980   3.704   3.161 -0.0355 -0.1595  0.5754
  132OSM   H12S14176   0.980   3.595   3.179 -0.7813  0.1890  2.9652
  132OSM   H12T14177   0.882   3.733   3.203  0.2035  0.2014  0.8934
  132OSM   C13S14178   1.083   3.762   3.263 -0.1217 -0.0491 -0.1093
  132OSM   H13S14179   1.075   3.872   3.278 -0.7993  0.0464 -1.1106
  132OSM   H13T14180   1.186   3.744   3.224 -0.6582  0.6859 -1.9572
  132OSM   C14S14181   1.058   3.692   3.394 -0.0227 -0.2787 -0.2044
  132OSM   H14S14182   1.079   3.588   3.363  0.3205 -0.2459 -0.0824
  132OSM   H14T14183   0.962   3.705   3.449 -0.4392 -1.3263 -0.6644
  132OSM   C15S14184   1.157   3.728   3.514  0.6081  0.3630  0.3685
  132OSM   H15S14185   1.128   3.826   3.559 -0.1095 -0.2664  1.3109
  132OSM   H15T14186   1.259   3.729   3.471  0.2208  2.4312 -0.6130
  132OSM   C16S14187   1.171   3.622   3.630  0.0291 -0.0731  0.4770
  132OSM   H16S14188   1.193   3.521   3.590  0.4645 -0.4096  1.5260
  132OSM   H16T14189   1.071   3.618   3.678 -0.2970  1.4129 -0.0178
  132OSM   C17S14190   1.275   3.677   3.730  0.1288 -0.0946  0.0508
  132OSM   H17S14191   1.229   3.771   3.768 -1.5410 -1.7887  2.5134
  132OSM   H17T14192   1.363   3.711   3.672 -0.2357 -1.0583 -1.1081
  132OSM   C18S14193   1.314   3.583   3.839 -0.3803  0.7039 -0.1776
  132OSM   H18S14194   1.389   3.504   3.816 -1.6665 -1.9832  3.7440
  132OSM   H18T14195   1.220   3.533   3.869  0.2953  0.4304  1.6482
  132OSM   H18U14196   1.367   3.635   3.922 -2.0409  0.3044  1.1982
  132OSM    C1F14197   0.903   3.206   2.282 -0.2442 -0.5375 -0.2727
  132OSM     OF14198   1.014   3.221   2.243  0.1401 -0.5284  0.0720
  132OSM    C2F14199   0.858   3.079   2.358 -0.5382 -0.2393 -0.0181
  132OSM    H2F14200   0.813   3.017   2.278  0.9467  0.9885 -1.8918
  132OSM    H2G14201   0.786   3.121   2.432 -2.7045 -0.0383 -2.1405
  132OSM    C3F14202   0.979   3.003   2.425 -0.3092  0.4010 -0.0842
  132OSM    H3F14203   1.047   2.988   2.339 -1.5460  2.9874 -1.6612
  132OSM    H3G14204   0.941   2.908   2.467  0.0770  1.2574  2.4062
  132OSM    C4F14205   1.055   3.072   2.537  0.8614 -0.1998  0.4283
  132OSM    H4F14206   1.070   3.177   2.503  0.5209 -0.2145  0.2260
  132OSM    H4G14207   1.160   3.036   2.545  1.2442 -0.3593 -3.4643
  132OSM    C5F14208   0.971   3.062   2.662  0.4813  0.1991  0.6819
  132OSM    H5F14209   0.966   2.965   2.715  0.0177  0.1210  0.5025
  132OSM    H5G14210   0.863   3.082   2.643  1.3831  2.1559 -3.3565
  132OSM    C6F14211   1.012   3.174   2.755 -0.2936 -0.0876 -0.1372
  132OSM    H6F14212   0.972   3.273   2.726  0.3645  0.5269  1.0215
  132OSM    H6G14213   1.122   3.187   2.759 -0.4539  2.5619 -1.8464
  132OSM    C7F14214   0.950   3.148   2.899  0.2649  0.0934  0.4213
  132OSM    H7F14215   0.846   3.109   2.892  1.7687 -4.4015 -0.1651
  132OSM    H7G14216   0.935   3.250   2.941 -1.4520 -0.8934  2.4117
  132OSM    C8F14217   1.031   3.060   3.001  0.2615  0.6549  0.1471
  132OSM    H8F14218   1.086   2.978   2.951 -1.4820 -0.2661 -0.3538
  132OSM    H8G14219   0.957   3.011   3.068  2.9628 -1.6250  1.6963
  132OSM    C9F14220   1.135   3.148   3.068 -0.9326  0.3018 -0.3539
  132OSM    H9F14221   1.200   3.197   2.994 -1.7733 -0.0947 -1.3771
  132OSM   C10F14222   1.154   3.166   3.200 -0.2173  0.3055 -0.8337
  132OSM   H10F14223   1.238   3.226   3.239 -0.4636  1.0174 -1.3755
  132OSM   C11F14224   1.085   3.089   3.310 -0.1008 -1.0477 -0.7323
  132OSM   H11F14225   1.166   3.035   3.364  0.1080 -1.2638 -1.2529
  132OSM   H11G14226   1.036   3.000   3.266  0.1561 -2.5245  1.7766
  132OSM   C12F14227   0.988   3.170   3.395 -0.6301  0.1553 -1.1503
  132OSM   H12F14228   0.922   3.103   3.453  1.5069 -2.4906 -1.5510
  132OSM   H12G14229   0.930   3.233   3.324  0.5187 -0.0685 -2.3255
  132OSM   C13F14230   1.060   3.255   3.501 -0.0022  0.5070 -0.0366
  132OSM   H13F14231   1.094   3.348   3.451  1.0053  0.2117  0.0784
  132OSM   H13G14232   1.153   3.204   3.534 -1.0957 -0.1348  2.1987
  132OSM   C14F14233   0.959   3.296   3.607 -0.6654  0.3794  1.0335
  132OSM   H14F14234   1.007   3.343   3.696  1.6770  0.3390 -0.1189
  132OSM   H14G14235   0.894   3.213   3.644 -3.1229  0.1764 -3.1182
  132OSM   C15F14236   0.856   3.400   3.553  0.1094 -0.1705  0.3805
  132OSM   H15F14237   0.789   3.356   3.475  0.5828  0.6964 -0.5305
  132OSM   H15G14238   0.917   3.461   3.483  0.3153  0.0857  0.7817
  132OSM   C16F14239   0.784   3.489   3.656  0.0149  0.3796  0.6385
  132OSM   H16F14240   0.721   3.563   3.601 -0.2303 -0.1129  0.2544
  132OSM   H16G14241   0.852   3.545   3.724 -0.7783  0.2920  1.5276
  132OSM   C17F14242   0.683   3.420   3.751  0.0977 -0.4728 -0.2371
  132OSM   H17F14243   0.750   3.357   3.814  2.0441  0.4948 -1.2500
  132OSM   H17G14244   0.608   3.348   3.713  2.3902 -2.0626 -2.0352
  132OSM   C18F14245   0.612   3.525   3.841  0.5713 -0.0675 -0.4546
  132OSM   H18F14246   0.675   3.612   3.868 -2.4690  1.7683  1.3825
  132OSM   H18G14247   0.570   3.472   3.929  2.7743 -1.0528  0.0582
  132OSM   H18H14248   0.525   3.566   3.784  0.2133  2.4137  1.6546
  133OSM      N14249   6.631   2.805   1.755 -0.2452 -0.3765  0.0817
  133OSM    C1514250   6.678   2.807   1.611 -0.2789 -0.3644  0.4094
  133OSM   H15A14251   6.652   2.901   1.565 -0.7683 -1.3592 -1.4850
  133OSM   H15B14252   6.624   2.729   1.558 -0.3204  1.3593 -2.2673
  133OSM   H15C14253   6.784   2.789   1.606 -0.0378  1.0889 -0.1812
  133OSM    C1414254   6.679   2.680   1.816 -0.3131 -0.6387 -0.1068
  133OSM   H14A14255   6.786   2.670   1.807  0.0962  2.3053  0.6444
  133OSM   H14B14256   6.623   2.609   1.757  1.7147 -0.3734 -2.4828
  133OSM   H14C14257   6.655   2.673   1.921  2.8892 -2.2835  0.6379
  133OSM    C1314258   6.703   2.923   1.820  0.3509 -0.1390 -0.6600
  133OSM   H13A14259   6.808   2.909   1.803  0.6095  1.3040 -0.3537
  133OSM   H13B14260   6.683   2.920   1.926  1.0970  1.4690 -0.4469
  133OSM   H13C14261   6.678   3.016   1.770 -0.6182 -0.1078 -0.1385
  133OSM    C1214262   6.484   2.831   1.756 -0.0121 -0.6468 -0.4914
  133OSM   H12A14263   6.435   2.738   1.729  0.4238 -0.8691 -0.5245
  133OSM   H12B14264   6.455   2.908   1.686 -0.0716 -1.0803 -0.9556
  133OSM    C1114265   6.416   2.868   1.898 -0.8065 -0.4030 -0.2681
  133OSM   H11A14266   6.307   2.888   1.887 -0.5089  1.2521 -0.5473
  133OSM   H11B14267   6.458   2.964   1.935 -1.2603  0.0069 -0.7871
  133OSM      P14268   6.391   2.617   1.991 -0.2977 -0.3153 -0.1636
  133OSM    O1314269   6.338   2.591   1.853  0.0046  0.0375 -0.1767
  133OSM    O1414270   6.496   2.525   2.041 -0.2407 -0.2925  0.0194
  133OSM    O1114271   6.264   2.617   2.091  0.1583 -0.5163  0.4810
  133OSM    O1214272   6.442   2.768   1.993  0.0595 -0.5811  0.5809
  133OSM    C1S14273   6.293   2.621   2.232 -0.2842  0.1487  0.0114
  133OSM    H1S14274   6.399   2.610   2.266 -0.2277  4.1316  1.7458
  133OSM    H1T14275   6.225   2.549   2.282  0.4184 -0.4923  0.0708
  133OSM     NF14276   6.301   2.774   2.434 -0.1457 -0.3360 -0.6465
  133OSM    HNF14277   6.231   2.777   2.506  1.2386 -0.8331  0.7809
  133OSM    C2S14278   6.272   2.773   2.286 -0.0549  0.0839  0.0004
  133OSM    H2S14279   6.349   2.832   2.232 -1.2529  1.5065 -0.2247
  133OSM    C3S14280   6.134   2.833   2.248 -0.2842  0.4195  0.1035
  133OSM    H3S14281   6.058   2.778   2.308  0.7503 -0.0563  1.0248
  133OSM     O314282   6.086   2.805   2.114 -0.5757  0.2923  0.3757
  133OSM    HO314283   6.153   2.745   2.081  1.5735  3.4157 -1.4881
  133OSM    C4S14284   6.127   2.981   2.281 -0.1571 -0.2763 -0.3720
  133OSM    H4S14285   6.084   2.990   2.382 -1.0284 -1.2694 -0.6268
  133OSM    C5S14286   6.162   3.092   2.215 -0.0566 -0.6049  0.1432
  133OSM    H5S14287   6.180   3.075   2.107 -2.7150 -2.6642 -0.0867
  133OSM    C6S14288   6.152   3.238   2.262  0.1209  0.4172 -0.3909
  133OSM    H6S14289   6.049   3.271   2.236 -0.2942 -0.7039 -0.2337
  133OSM    H6T14290   6.228   3.292   2.202 -0.0675  1.1421  0.0237
  133OSM    C7S14291   6.182   3.259   2.411 -0.6576 -0.0328  0.1589
  133OSM    H7S14292   6.287   3.227   2.429  0.2967  2.1496 -1.1702
  133OSM    H7T14293   6.119   3.198   2.480 -1.4527  0.1967 -0.3481
  133OSM    C8S14294   6.193   3.405   2.456 -0.7139  0.6892  0.9614
  133OSM    H8S14295   6.097   3.454   2.428 -1.4264 -1.3226 -0.3442
  133OSM    H8T14296   6.275   3.452   2.398 -0.0218  0.8608  2.0515
  133OSM    C9S14297   6.233   3.420   2.605 -0.5898 -0.5615 -0.2485
  133OSM    H9S14298   6.250   3.529   2.616 -2.4127 -0.2411 -0.3032
  133OSM    H9T14299   6.329   3.364   2.618 -0.2136  0.0320 -0.4133
  133OSM   C10S14300   6.130   3.381   2.697  0.0374 -0.9489 -0.5424
  133OSM   H10S14301   6.122   3.270   2.701  2.1361 -1.1240  0.1757
  133OSM   H10T14302   6.031   3.425   2.672 -0.5341 -1.1146  1.2123
  133OSM   C11S14303   6.169   3.431   2.836  0.3078  0.2018 -1.4539
  133OSM   H11S14304   6.172   3.542   2.837 -2.0666  0.3413  0.3265
  133OSM   H11T14305   6.273   3.402   2.861 -0.3215 -2.5852 -1.7262
  133OSM   C12S14306   6.067   3.378   2.940 -0.2680 -0.2305 -0.2006
  133OSM   H12S14307   6.082   3.269   2.959  2.8509  0.5761  2.8515
  133OSM   H12T14308   5.967   3.388   2.893 -0.0550  1.7735 -0.3141
  133OSM   C13S14309   6.058   3.446   3.079 -0.2717  0.0693 -0.7624
  133OSM   H13S14310   6.012   3.545   3.059 -1.2112  0.0750  1.2004
  133OSM   H13T14311   6.153   3.452   3.137 -0.1635  0.6072 -0.9905
  133OSM   C14S14312   5.941   3.386   3.161 -0.5983 -0.6987 -0.0724
  133OSM   H14S14313   5.971   3.294   3.216  0.3299  0.5511  1.5657
  133OSM   H14T14314   5.855   3.373   3.091 -0.4230  2.7955 -1.1479
  133OSM   C15S14315   5.892   3.497   3.262 -0.3715 -0.2193 -0.6666
  133OSM   H15S14316   5.830   3.573   3.210  2.0649  2.3106 -0.0682
  133OSM   H15T14317   5.972   3.555   3.311 -1.4836  0.0944  0.8504
  133OSM   C16S14318   5.828   3.415   3.371 -0.2367 -0.4399  0.1427
  133OSM   H16S14319   5.893   3.341   3.422  0.2503  1.1952  1.9977
  133OSM   H16T14320   5.741   3.359   3.329 -1.3103  2.1444 -1.3041
  133OSM   C17S14321   5.765   3.501   3.477  0.4011  0.0190  0.3672
  133OSM   H17S14322   5.687   3.444   3.532 -1.7236  0.8083 -1.7146
  133OSM   H17T14323   5.728   3.583   3.413  1.2368 -1.5768 -2.3158
  133OSM   C18S14324   5.857   3.557   3.583  0.3392 -0.4797  0.2310
  133OSM   H18S14325   5.798   3.624   3.649 -0.0699 -3.0600  2.6928
  133OSM   H18T14326   5.938   3.622   3.545  0.0181  0.2441  0.7661
  133OSM   H18U14327   5.912   3.479   3.639  0.4327 -0.7390 -0.2164
  133OSM    C1F14328   6.426   2.765   2.473 -0.5490 -0.6332  0.3005
  133OSM     OF14329   6.517   2.812   2.401 -0.0836 -0.0203 -0.2926
  133OSM    C2F14330   6.454   2.699   2.605  0.4859  0.2524 -0.3220
  133OSM    H2F14331   6.534   2.748   2.664  0.5300  0.4350 -0.5347
  133OSM    H2G14332   6.475   2.592   2.581 -0.6284 -0.0055 -0.1998
  133OSM    C3F14333   6.336   2.709   2.708 -1.4526  0.3983  0.2598
  133OSM    H3F14334   6.238   2.668   2.675 -1.6756  1.5538 -0.6017
  133OSM    H3G14335   6.324   2.818   2.727 -0.2576  0.0488  3.7793
  133OSM    C4F14336   6.364   2.629   2.835  0.0025  0.6968 -0.3777
  133OSM    H4F14337   6.407   2.529   2.814 -0.2844  0.5805 -0.4135
  133OSM    H4G14338   6.268   2.593   2.878  0.7756 -1.7268 -0.5340
  133OSM    C5F14339   6.450   2.707   2.932  0.3065 -0.2723 -0.3212
  133OSM    H5F14340   6.426   2.815   2.940 -0.4488 -0.4746  0.2914
  133OSM    H5G14341   6.554   2.697   2.895  0.9647  0.2854  1.2818
  133OSM    C6F14342   6.441   2.659   3.075  0.2998 -0.3030 -0.0201
  133OSM    H6F14343   6.486   2.558   3.074  0.1489 -0.3719 -0.3293
  133OSM    H6G14344   6.333   2.652   3.100  0.2336 -1.0555 -0.4706
  133OSM    C7F14345   6.521   2.750   3.174  0.1125  0.0790  0.6073
  133OSM    H7F14346   6.491   2.857   3.162 -0.5774 -0.2446 -0.6954
  133OSM    H7G14347   6.625   2.752   3.135 -0.2529  0.5134 -0.3697
  133OSM    C8F14348   6.518   2.718   3.320  0.2283 -0.1974  0.5928
  133OSM    H8F14349   6.588   2.790   3.368 -0.5188  1.6757 -0.9864
  133OSM    H8G14350   6.559   2.614   3.326  2.7646  0.7721  1.5689
  133OSM    C9F14351   6.375   2.740   3.369 -0.2535  0.8671 -0.4742
  133OSM    H9F14352   6.332   2.837   3.339  0.7335  0.6050 -2.9538
  133OSM   C10F14353   6.299   2.643   3.421  0.0181 -0.5639 -1.0935
  133OSM   H10F14354   6.199   2.665   3.462 -0.4572 -3.6620 -0.3204
  133OSM   C11F14355   6.349   2.502   3.449  0.2619 -0.3199  0.5745
  133OSM   H11F14356   6.421   2.475   3.369  1.2834  1.3238  0.8951
  133OSM   H11G14357   6.258   2.439   3.437 -0.5810  1.0057 -0.2664
  133OSM   C12F14358   6.416   2.501   3.596  0.2726 -0.2757 -0.7406
  133OSM   H12F14359   6.351   2.554   3.669 -0.5414 -1.0950 -0.8589
  133OSM   H12G14360   6.523   2.530   3.587 -0.2208  1.8153 -0.3980
  133OSM   C13F14361   6.419   2.356   3.655 -0.1487 -0.0830  0.0417
  133OSM   H13F14362   6.317   2.326   3.688 -1.3889  1.6070 -1.9395
  133OSM   H13G14363   6.478   2.371   3.748  2.3232 -1.1024 -1.2722
  133OSM   C14F14364   6.505   2.253   3.575 -0.1450 -0.3080  0.2010
  133OSM   H14F14365   6.596   2.304   3.536 -1.2309  1.8216  0.3245
  133OSM   H14G14366   6.437   2.230   3.491 -1.2080  0.7690  0.7419
  133OSM   C15F14367   6.531   2.125   3.662  0.2566 -0.1772  0.8988
  133OSM   H15F14368   6.430   2.100   3.700  0.2442  1.4991  2.0864
  133OSM   H15G14369   6.606   2.151   3.739  1.9462 -0.7050 -0.4893
  133OSM   C16F14370   6.591   2.003   3.587  0.4332  0.1303  0.3776
  133OSM   H16F14371   6.692   2.029   3.548 -0.0706  1.7114  0.0782
  133OSM   H16G14372   6.536   1.976   3.495  0.2573  3.7445 -0.7241
  133OSM   C17F14373   6.605   1.876   3.672  0.4015 -0.6499 -0.1184
  133OSM   H17F14374   6.649   1.805   3.598  2.3356  0.5463 -0.1699
  133OSM   H17G14375   6.499   1.853   3.698  0.6203  0.7778  2.2476
  133OSM   C18F14376   6.702   1.893   3.789 -0.5571 -0.5376 -0.7348
  133OSM   H18F14377   6.711   1.800   3.849  0.6667  0.9464  1.5442
  133OSM   H18G14378   6.669   1.981   3.849  1.4411 -0.2042 -0.0439
  133OSM   H18H14379   6.796   1.925   3.738 -0.6020  1.0864  0.1534
  134OSM      N14380   5.514   5.220   1.566 -0.3029 -0.5765  0.8019
  134OSM    C1514381   5.586   5.342   1.620  0.4496  0.0565  0.3257
  134OSM   H15A14382   5.516   5.401   1.677  0.0251  1.0985 -1.2107
  134OSM   H15B14383   5.636   5.399   1.544 -0.8493  0.2938 -0.3745
  134OSM   H15C14384   5.671   5.328   1.686  0.2838 -1.1201  0.3183
  134OSM    C1414385   5.468   5.155   1.690  0.4174  0.6892 -0.8207
  134OSM   H14A14386   5.551   5.120   1.750 -1.6281  0.1642  1.9270
  134OSM   H14B14387   5.419   5.061   1.671 -0.4050  0.9639 -0.1108
  134OSM   H14C14388   5.409   5.225   1.747  1.9915  3.9690 -2.9511
  134OSM    C1314389   5.399   5.253   1.472 -0.1997 -0.5831  0.4368
  134OSM   H13A14390   5.345   5.338   1.510 -0.4475  0.0436 -1.2476
  134OSM   H13B14391   5.329   5.171   1.464 -0.4138 -0.5286  1.6586
  134OSM   H13C14392   5.437   5.280   1.374  1.4771  3.9770  2.0797
  134OSM    C1214393   5.606   5.129   1.482 -0.3289 -0.0316  0.3609
  134OSM   H12A14394   5.643   5.190   1.401  1.1520 -1.4955 -0.1326
  134OSM   H12B14395   5.547   5.049   1.440  0.5263 -0.6318  0.2757
  134OSM    C1114396   5.732   5.076   1.560 -0.3970  0.2837  0.3832
  134OSM   H11A14397   5.782   5.167   1.600  0.1739  0.4965 -0.7929
  134OSM   H11B14398   5.806   5.024   1.496  1.9887  0.3464  2.9111
  134OSM      P14399   5.799   4.931   1.768  0.2686  0.2074  0.0422
  134OSM    O1314400   5.729   4.855   1.869 -0.0685  0.6093 -0.4647
  134OSM    O1414401   5.903   4.859   1.697  0.1731  0.5298  0.1236
  134OSM    O1114402   5.865   5.059   1.833 -0.5779  0.1133  0.4577
  134OSM    O1214403   5.692   4.990   1.668 -0.0593 -0.2405  0.4944
  134OSM    C1S14404   5.780   5.162   1.884  0.6612  0.9297  0.3589
  134OSM    H1S14405   5.674   5.168   1.850 -0.2446  0.6921  2.9725
  134OSM    H1T14406   5.825   5.261   1.860  1.8963  0.0937 -0.9889
  134OSM     NF14407   5.726   5.280   2.083 -0.2992 -0.8940 -0.6729
  134OSM    HNF14408   5.799   5.336   2.121 -0.6438 -0.2420 -0.9426
  134OSM    C2S14409   5.762   5.149   2.037 -0.1107  0.2365  1.1250
  134OSM    H2S14410   5.676   5.083   2.059  0.2201  0.1005  2.0556
  134OSM    C3S14411   5.877   5.088   2.114  0.0300 -0.0983 -0.0668
  134OSM    H3S14412   5.966   5.152   2.098 -0.0123 -0.1382 -0.4885
  134OSM     O314413   5.906   4.959   2.078  0.3487  0.2495 -0.1215
  134OSM    HO314414   5.836   4.928   2.021 -0.0144  0.9355 -0.0503
  134OSM    C4S14415   5.834   5.078   2.257  0.0215  0.0168  0.5072
  134OSM    H4S14416   5.878   5.155   2.322 -2.3973  0.2842  1.9475
  134OSM    C5S14417   5.766   4.976   2.321  0.2187  0.2263 -0.7422
  134OSM    H5S14418   5.737   4.886   2.266 -0.5994  1.3363 -2.1678
  134OSM    C6S14419   5.751   4.978   2.470 -0.7714 -0.0995 -0.3540
  134OSM    H6S14420   5.773   4.874   2.501 -0.5520 -0.4079 -1.4748
  134OSM    H6T14421   5.647   4.995   2.505 -0.2708  1.4912  0.4572
  134OSM    C7S14422   5.847   5.071   2.550  0.2566 -1.2093  0.0326
  134OSM    H7S14423   5.826   5.179   2.533 -0.4031 -1.2998  0.2420
  134OSM    H7T14424   5.950   5.053   2.512  0.1075  1.1267 -1.6951
  134OSM    C8S14425   5.851   5.034   2.697  0.3407  0.0496 -0.6119
  134OSM    H8S14426   5.851   4.923   2.699  0.2276  0.0419  1.6358
  134OSM    H8T14427   5.759   5.077   2.742 -1.1676 -1.0636 -2.5130
  134OSM    C9S14428   5.978   5.087   2.762 -0.1105 -0.0283 -0.0653
  134OSM    H9S14429   5.994   5.196   2.745  0.8091 -0.3136 -1.1286
  134OSM    H9T14430   6.060   5.030   2.713 -0.4002 -0.6451  0.1664
  134OSM   C10S14431   5.997   5.064   2.914  0.0749  0.5358 -0.0240
  134OSM   H10S14432   5.953   4.966   2.940 -0.6789  0.8734 -0.0002
  134OSM   H10T14433   5.946   5.141   2.976 -0.5141  1.1003 -1.1892
  134OSM   C11S14434   6.148   5.056   2.950  1.0188 -0.1017 -0.3362
  134OSM   H11S14435   6.197   5.156   2.949 -0.4966  0.7193  1.2737
  134OSM   H11T14436   6.187   4.988   2.872 -0.3224 -0.3915 -0.7934
  134OSM   C12S14437   6.166   5.011   3.098  0.3832 -0.0703 -0.7364
  134OSM   H12S14438   6.106   4.921   3.127 -0.5181  1.0492  1.0735
  134OSM   H12T14439   6.119   5.097   3.151  1.5789  2.2273 -3.1859
  134OSM   C13S14440   6.312   4.994   3.146  0.1242 -0.1525 -0.3639
  134OSM   H13S14441   6.351   5.097   3.141  0.2155 -0.2200 -1.3129
  134OSM   H13T14442   6.371   4.925   3.081  1.0362  1.4256 -1.2663
  134OSM   C14S14443   6.328   4.933   3.287  0.2185 -0.5994 -0.0130
  134OSM   H14S14444   6.270   4.839   3.297  3.3392 -2.4929  1.4108
  134OSM   H14T14445   6.293   5.011   3.358 -0.6076  0.3293 -1.3708
  134OSM   C15S14446   6.473   4.882   3.326 -0.3424 -0.0527 -0.1817
  134OSM   H15S14447   6.440   4.836   3.422 -0.7428  0.4588 -0.0685
  134OSM   H15T14448   6.535   4.972   3.342 -1.0732  0.4413 -0.1007
  134OSM   C16S14449   6.533   4.766   3.238  0.1445  0.1385  0.0511
  134OSM   H16S14450   6.534   4.791   3.130 -1.9687  1.2064  0.2293
  134OSM   H16T14451   6.455   4.686   3.241 -0.9465  1.1863  0.6369
  134OSM   C17S14452   6.666   4.718   3.292  0.7159  0.1967  0.0091
  134OSM   H17S14453   6.738   4.795   3.258  0.0242 -0.0836 -2.2104
  134OSM   H17T14454   6.684   4.619   3.246  0.9919  0.0325  0.4526
  134OSM   C18S14455   6.670   4.699   3.443  0.2830 -0.9269  0.5639
  134OSM   H18S14456   6.577   4.663   3.490 -0.2480 -1.5182 -0.8649
  134OSM   H18T14457   6.696   4.795   3.493 -2.0203  0.0392  0.0481
  134OSM   H18U14458   6.763   4.645   3.469  1.2311  0.4035  0.0741
  134OSM    C1F14459   5.607   5.327   2.049  0.2941 -0.9740 -0.2500
  134OSM     OF14460   5.515   5.256   2.010  0.5002  0.5973 -0.3976
  134OSM    C2F14461   5.596   5.475   2.061  0.4704 -0.7386  0.0555
  134OSM    H2F14462   5.591   5.523   1.961 -1.7093  1.7556  1.2272
  134OSM    H2G14463   5.689   5.517   2.105  1.5582 -2.4672 -0.5016
  134OSM    C3F14464   5.479   5.525   2.139  0.4263 -0.2511  0.3511
  134OSM    H3F14465   5.381   5.515   2.088  1.3921 -2.1370 -1.2557
  134OSM    H3G14466   5.498   5.634   2.147  0.1539 -0.3181  3.4316
  134OSM    C4F14467   5.480   5.487   2.286 -0.1351 -0.4175 -0.1145
  134OSM    H4F14468   5.456   5.379   2.302 -0.2865 -0.7196 -2.1594
  134OSM    H4G14469   5.394   5.538   2.334 -0.7850 -2.9902  1.6901
  134OSM    C5F14470   5.618   5.519   2.360  0.5572 -0.1928  0.3559
  134OSM    H5F14471   5.631   5.630   2.365 -0.6199  0.0519 -1.1354
  134OSM    H5G14472   5.712   5.488   2.310  1.0083  2.3024 -0.5189
  134OSM    C6F14473   5.623   5.468   2.496  0.6334  0.1622 -0.2167
  134OSM    H6F14474   5.621   5.357   2.491  1.5330  0.1974 -1.7921
  134OSM    H6G14475   5.540   5.516   2.552  1.7028  1.7958  0.0455
  134OSM    C7F14476   5.744   5.513   2.565  0.1747  0.5352 -0.0411
  134OSM    H7F14477   5.770   5.620   2.554  0.2645  0.5610  0.4028
  134OSM    H7G14478   5.828   5.455   2.521  1.0570  2.8890 -1.6684
  134OSM    C8F14479   5.720   5.487   2.715 -0.2425  0.4178  0.4768
  134OSM    H8F14480   5.674   5.386   2.722  0.7445  0.0267  1.5562
  134OSM    H8G14481   5.644   5.559   2.754  1.1262  1.6610  0.9486
  134OSM    C9F14482   5.841   5.514   2.807 -0.8462 -0.1916 -0.1069
  134OSM    H9F14483   5.909   5.585   2.759 -1.5542 -0.2455 -1.2294
  134OSM   C10F14484   5.855   5.464   2.931  0.0421  0.1901 -0.1096
  134OSM   H10F14485   5.943   5.472   2.996  0.1469  0.2193 -0.2556
  134OSM   C11F14486   5.748   5.373   2.975 -0.1751  0.2517 -0.2202
  134OSM   H11F14487   5.752   5.268   2.939  0.1540  0.4434 -0.7529
  134OSM   H11G14488   5.649   5.410   2.940  0.6076  2.1521 -0.5660
  134OSM   C12F14489   5.739   5.366   3.130  0.8507  0.0847 -0.3103
  134OSM   H12F14490   5.634   5.341   3.155  0.6971 -0.3821 -1.3648
  134OSM   H12G14491   5.745   5.468   3.174 -2.4523  0.4499 -0.5169
  134OSM   C13F14492   5.839   5.275   3.204 -0.0641  0.0526  0.1758
  134OSM   H13F14493   5.944   5.303   3.182 -0.3711 -0.2287 -1.8299
  134OSM   H13G14494   5.818   5.173   3.164 -0.0827 -0.2324  0.8896
  134OSM   C14F14495   5.813   5.281   3.353 -0.1820 -0.1082  1.1506
  134OSM   H14F14496   5.704   5.268   3.371 -0.6070  0.1008 -1.0231
  134OSM   H14G14497   5.845   5.379   3.393  0.6786 -0.5171  1.5125
  134OSM   C15F14498   5.890   5.171   3.433 -0.5659  0.4977 -0.1728
  134OSM   H15F14499   5.885   5.206   3.538 -0.7639 -0.4100  0.1272
  134OSM   H15G14500   5.993   5.172   3.390  0.2476  1.3808  1.6922
  134OSM   C16F14501   5.833   5.032   3.406 -0.5186 -0.2342  0.1710
  134OSM   H16F14502   5.853   4.999   3.301  0.4512  0.1072  0.2445
  134OSM   H16G14503   5.722   5.036   3.406 -0.6276 -1.9588  1.7643
  134OSM   C17F14504   5.869   4.921   3.508 -0.2575  0.7684 -0.2282
  134OSM   H17F14505   5.980   4.920   3.506 -0.1883  2.8484 -0.0399
  134OSM   H17G14506   5.833   4.823   3.471  1.1384  0.1214  0.0963
  134OSM   C18F14507   5.813   4.944   3.647  0.1327 -0.1193 -0.8905
  134OSM   H18F14508   5.849   5.044   3.680 -1.5899 -0.0279  0.9179
  134OSM   H18G14509   5.843   4.860   3.713 -0.2982 -1.6346 -2.5597
  134OSM   H18H14510   5.703   4.957   3.651  0.1152 -0.5842  1.2723
  135OSM      N14511   0.795   4.399   1.707 -0.2758 -0.4653  0.0454
  135OSM    C1514512   0.739   4.375   1.568  0.7380 -0.3108  0.0500
  135OSM   H15A14513   0.818   4.393   1.496  0.4091 -1.1269 -0.5226
  135OSM   H15B14514   0.653   4.436   1.547 -0.3932 -1.1530  1.9017
  135OSM   H15C14515   0.715   4.269   1.565  3.3852 -1.1473  2.6859
  135OSM    C1414516   0.701   4.368   1.812  0.8225  0.5430  0.0022
  135OSM   H14A14517   0.608   4.423   1.809 -0.5986 -1.7308 -0.9779
  135OSM   H14B14518   0.740   4.399   1.908  0.7174  0.1884  0.1603
  135OSM   H14C14519   0.688   4.260   1.814  1.1261  0.5142  0.4583
  135OSM    C1314520   0.906   4.301   1.725 -0.0740 -0.1327 -0.0228
  135OSM   H13A14521   0.866   4.201   1.713 -3.7113  1.4435 -3.0100
  135OSM   H13B14522   0.965   4.324   1.812  1.5191 -0.7756 -0.8879
  135OSM   H13C14523   0.979   4.303   1.645  0.5551  0.7415  0.5614
  135OSM    C1214524   0.834   4.542   1.714 -0.1063 -0.4026 -0.1223
  135OSM   H12A14525   0.745   4.603   1.705  0.7782  1.2422  1.4923
  135OSM   H12B14526   0.887   4.568   1.623  0.0423 -0.3738 -0.0285
  135OSM    C1114527   0.919   4.593   1.839 -0.5121 -0.2052 -0.0804
  135OSM   H11A14528   0.864   4.579   1.934 -0.0152  0.0206  0.2399
  135OSM   H11B14529   0.919   4.704   1.837 -1.7120 -0.1244  1.8328
  135OSM      P14530   1.172   4.583   1.783  0.3392 -0.1793 -0.2720
  135OSM    O1314531   1.258   4.465   1.754 -0.5216  0.2562 -0.0939
  135OSM    O1414532   1.151   4.669   1.666 -0.9099 -0.4865 -0.9833
  135OSM    O1114533   1.235   4.663   1.909  0.1595  0.4783  0.5072
  135OSM    O1214534   1.040   4.533   1.851  0.3542 -0.5027 -0.0585
  135OSM    C1S14535   1.208   4.623   2.043 -0.1061  0.0387  0.1765
  135OSM    H1S14536   1.257   4.525   2.061 -0.2732 -0.0623  0.0813
  135OSM    H1T14537   1.098   4.617   2.058 -0.8652 -0.1970 -4.1977
  135OSM     NF14538   1.250   4.649   2.279  0.2566 -0.3067 -0.4340
  135OSM    HNF14539   1.178   4.687   2.337  1.5388 -0.9003  1.6671
  135OSM    C2S14540   1.274   4.716   2.152 -0.1651  0.2258 -0.1546
  135OSM    H2S14541   1.384   4.710   2.137  0.0581  0.0801  1.3640
  135OSM    C3S14542   1.233   4.867   2.138  0.4769  0.2748  0.1715
  135OSM    H3S14543   1.125   4.867   2.165 -0.0445 -0.0391 -1.7526
  135OSM     O314544   1.232   4.913   2.001  0.0136  0.3831  0.4319
  135OSM    HO314545   1.208   4.832   1.954  1.9327  0.8168 -1.4583
  135OSM    C4S14546   1.304   4.965   2.223  0.7390  0.1067 -0.1054
  135OSM    H4S14547   1.405   4.993   2.188  0.0688  2.1798 -0.4732
  135OSM    C5S14548   1.248   5.017   2.335  0.6625 -0.2118 -0.3512
  135OSM    H5S14549   1.152   4.979   2.373 -0.0053  1.3577 -0.4154
  135OSM    C6S14550   1.321   5.123   2.418  0.7846  0.4350 -0.9169
  135OSM    H6S14551   1.261   5.217   2.417  0.3901  0.1857 -1.2451
  135OSM    H6T14552   1.423   5.147   2.382  1.3057 -0.3244 -0.0135
  135OSM    C7S14553   1.339   5.074   2.562  0.1083 -0.3303 -0.0650
  135OSM    H7S14554   1.246   5.078   2.622 -0.9800 -0.1260 -1.6992
  135OSM    H7T14555   1.400   5.150   2.616  0.1529 -0.0264 -0.5312
  135OSM    C8S14556   1.395   4.926   2.588 -0.6317 -0.5220 -0.5119
  135OSM    H8S14557   1.484   4.913   2.523  0.5449  1.2172  0.6459
  135OSM    H8T14558   1.316   4.856   2.554 -0.5318 -1.8978  1.8872
  135OSM    C9S14559   1.443   4.898   2.732 -0.2822  0.0694 -0.2794
  135OSM    H9S14560   1.538   4.953   2.751 -1.4031  1.9659  0.1756
  135OSM    H9T14561   1.463   4.790   2.743 -2.1260 -0.3111 -0.3987
  135OSM   C10S14562   1.346   4.940   2.846 -0.5316  0.2467 -0.5600
  135OSM   H10S14563   1.241   4.919   2.817 -0.1211  1.2296 -2.9871
  135OSM   H10T14564   1.353   5.047   2.875 -0.8480 -0.7128  3.8747
  135OSM   C11S14565   1.378   4.858   2.980 -0.2482  0.5153 -0.2462
  135OSM   H11S14566   1.480   4.880   3.018 -1.7087 -1.2479  5.9232
  135OSM   H11T14567   1.374   4.750   2.954  1.2829  0.7162 -1.4340
  135OSM   C12S14568   1.290   4.884   3.101  0.5426  0.1020 -0.5162
  135OSM   H12S14569   1.183   4.855   3.094  0.8448 -0.8567 -1.5972
  135OSM   H12T14570   1.296   4.991   3.129 -0.3591  0.0711 -0.1709
  135OSM   C13S14571   1.343   4.803   3.226 -0.0223  0.7650  0.2386
  135OSM   H13S14572   1.454   4.797   3.225  0.0106  1.3602  0.3760
  135OSM   H13T14573   1.312   4.697   3.211  1.3890  0.3935 -0.1205
  135OSM   C14S14574   1.284   4.851   3.361  0.0751 -0.5653 -1.3037
  135OSM   H14S14575   1.176   4.824   3.361 -0.2365  0.1654  2.5743
  135OSM   H14T14576   1.277   4.961   3.352  1.7060 -0.2274  0.7814
  135OSM   C15S14577   1.369   4.813   3.481 -0.2084 -0.5609  0.6425
  135OSM   H15S14578   1.467   4.865   3.473 -2.2424  4.0840  2.5927
  135OSM   H15T14579   1.386   4.703   3.475  0.5795 -0.5711  2.4110
  135OSM   C16S14580   1.323   4.850   3.623  0.2866  0.1113  1.0868
  135OSM   H16S14581   1.380   4.782   3.690  1.0656 -0.9606 -0.5950
  135OSM   H16T14582   1.215   4.831   3.637 -0.2879  2.6081  0.4825
  135OSM   C17S14583   1.338   4.993   3.647 -0.0687 -0.6439 -0.0229
  135OSM   H17S14584   1.311   5.054   3.559 -0.0725  0.6217  0.8194
  135OSM   H17T14585   1.446   5.017   3.662 -0.0185 -0.1172 -1.1490
  135OSM   C18S14586   1.253   5.038   3.769  0.5124 -0.2895  0.4867
  135OSM   H18S14587   1.285   5.141   3.797 -0.6729 -0.5886  3.2628
  135OSM   H18T14588   1.265   4.969   3.855 -0.6583 -1.5760 -0.3268
  135OSM   H18U14589   1.146   5.040   3.739  0.2087 -1.1089  1.4666
  135OSM    C1F14590   1.307   4.536   2.311  0.0613 -0.0350  0.5112
  135OSM     OF14591   1.410   4.503   2.254 -0.3115  0.0605 -0.0277
  135OSM    C2F14592   1.238   4.448   2.409 -0.4745  0.0535 -0.5579
  135OSM    H2F14593   1.160   4.387   2.357 -1.6675  1.4286 -0.4618
  135OSM    H2G14594   1.180   4.502   2.486 -0.1833  0.3118 -0.5211
  135OSM    C3F14595   1.322   4.346   2.485  0.1939 -0.3997 -0.1622
  135OSM    H3F14596   1.395   4.288   2.424 -0.3965 -1.1838 -0.1387
  135OSM    H3G14597   1.251   4.281   2.540  0.0544  2.0655  2.8504
  135OSM    C4F14598   1.398   4.415   2.599 -0.3494 -0.0132 -0.3687
  135OSM    H4F14599   1.321   4.462   2.663  0.8681 -0.2319  1.3331
  135OSM    H4G14600   1.469   4.492   2.564 -0.3739  0.2202  0.0819
  135OSM    C5F14601   1.471   4.307   2.685  0.2559  0.0642 -0.9551
  135OSM    H5F14602   1.543   4.253   2.620 -1.6055 -3.0745 -0.6366
  135OSM    H5G14603   1.406   4.222   2.715 -2.0812  2.5644  1.7074
  135OSM    C6F14604   1.552   4.367   2.804 -0.6458 -0.6432 -0.1943
  135OSM    H6F14605   1.585   4.462   2.756 -2.3552 -1.0173 -2.2676
  135OSM    H6G14606   1.637   4.306   2.839 -2.1290 -1.3061  2.5446
  135OSM    C7F14607   1.467   4.407   2.924  0.1572 -0.2161  0.0419
  135OSM    H7F14608   1.439   4.326   2.994 -0.6640 -0.3865 -0.4711
  135OSM    H7G14609   1.372   4.450   2.884 -0.5160 -0.8216  0.9560
  135OSM    C8F14610   1.534   4.517   3.013  0.1663  0.2608  0.4139
  135OSM    H8F14611   1.450   4.552   3.077 -0.8920 -2.2017  0.5047
  135OSM    H8G14612   1.555   4.603   2.947  0.1490  1.8441  2.3918
  135OSM    C9F14613   1.658   4.463   3.087  0.9705  0.1969  0.0767
  135OSM    H9F14614   1.737   4.450   3.012  0.3346  0.3900 -0.6377
  135OSM   C10F14615   1.667   4.459   3.220 -0.2371 -0.1857  0.2812
  135OSM   H10F14616   1.759   4.420   3.267  0.1730 -0.4557 -0.7164
  135OSM   C11F14617   1.560   4.494   3.319 -0.2391 -0.4874  0.4195
  135OSM   H11F14618   1.464   4.462   3.274 -1.3705  4.5857 -1.4537
  135OSM   H11G14619   1.551   4.605   3.325 -1.3625 -0.4866 -0.9481
  135OSM   C12F14620   1.577   4.423   3.453 -0.3079 -0.4260  0.5521
  135OSM   H12F14621   1.583   4.316   3.427 -0.6921 -0.3712  0.2262
  135OSM   H12G14622   1.485   4.442   3.513 -0.6405  0.6617 -0.2509
  135OSM   C13F14623   1.689   4.461   3.549 -0.0855  0.0210 -0.8902
  135OSM   H13F14624   1.707   4.570   3.549 -0.2969  0.0676 -0.0893
  135OSM   H13G14625   1.788   4.420   3.520  1.9668  1.7078  2.9656
  135OSM   C14F14626   1.671   4.414   3.699 -0.4207 -0.3023  0.3566
  135OSM   H14F14627   1.660   4.304   3.694  2.5586 -0.6441 -1.3620
  135OSM   H14G14628   1.571   4.449   3.731 -1.0164  0.2355 -1.9148
  135OSM   C15F14629   1.778   4.450   3.800  0.5407 -0.3162  0.0481
  135OSM   H15F14630   1.876   4.415   3.761  2.1164  2.4301  1.2841
  135OSM   H15G14631   1.764   4.413   3.904 -0.4408 -1.8369 -0.5871
  135OSM   C16F14632   1.796   4.603   3.806 -0.1476 -0.6690 -0.5247
  135OSM   H16F14633   1.844   4.643   3.715  1.9741  0.7372  1.1032
  135OSM   H16G14634   1.878   4.613   3.880 -0.2079 -1.8425 -0.2694
  135OSM   C17F14635   1.675   4.691   3.841 -0.1978  0.2556  0.8741
  135OSM   H17F14636   1.630   4.659   3.937  0.5497 -1.1891  0.7653
  135OSM   H17G14637   1.603   4.677   3.757  1.3018  0.6734 -0.5389
  135OSM   C18F14638   1.721   4.840   3.845  0.3641 -0.1841  0.0875
  135OSM   H18F14639   1.795   4.838   3.762  0.4647 -2.2662  0.1738
  135OSM   H18G14640   1.773   4.864   3.940  0.1447  0.1913  0.1156
  135OSM   H18H14641   1.634   4.904   3.820 -0.3650 -0.9547  0.6237
  136OSM      N14642   3.330   1.370   1.440 -0.2899  0.3533  0.3007
  136OSM    C1514643   3.475   1.396   1.437 -0.7123  1.7350 -1.3105
  136OSM   H15A14644   3.497   1.484   1.495  1.4724  1.1644 -1.1798
  136OSM   H15B14645   3.510   1.413   1.336 -1.0227 -0.0096 -1.7424
  136OSM   H15C14646   3.517   1.305   1.479 -2.9512  2.0331  1.9094
  136OSM    C1414647   3.251   1.473   1.366 -0.3191 -0.0461  0.4527
  136OSM   H14A14648   3.284   1.501   1.266  0.5100 -0.0126  0.7244
  136OSM   H14B14649   3.243   1.561   1.428  2.4290  0.7904 -0.2346
  136OSM   H14C14650   3.151   1.434   1.358 -0.1333 -0.6042  0.8109
  136OSM    C1314651   3.304   1.242   1.372 -0.8363 -0.5843  0.8751
  136OSM   H13A14652   3.197   1.230   1.363 -0.8252 -0.0332 -0.1441
  136OSM   H13B14653   3.345   1.153   1.417  1.5073  1.1123  2.2602
  136OSM   H13C14654   3.351   1.248   1.275 -0.1868 -1.2823  1.1402
  136OSM    C1214655   3.291   1.362   1.588 -0.2370 -0.2489  0.1255
  136OSM   H12A14656   3.341   1.279   1.636  1.3362  1.8960  2.4778
  136OSM   H12B14657   3.189   1.328   1.588 -0.1265 -0.6133  0.6344
  136OSM    C1114658   3.309   1.488   1.678 -0.3786 -0.3980 -0.2955
  136OSM   H11A14659   3.265   1.484   1.780  0.8847  1.0029  0.3456
  136OSM   H11B14660   3.267   1.576   1.625  2.1242  0.7393 -0.5523
  136OSM      P14661   3.498   1.639   1.785 -0.1206  0.4611  0.0787
  136OSM    O1314662   3.632   1.672   1.741 -0.2510 -0.0841 -0.8411
  136OSM    O1414663   3.394   1.747   1.794 -0.1613 -0.6971 -0.2093
  136OSM    O1114664   3.532   1.574   1.926  0.4665  0.1023  0.2215
  136OSM    O1214665   3.451   1.515   1.696  0.8419  0.0364 -0.1103
  136OSM    C1S14666   3.552   1.429   1.945  0.3422 -1.1721 -0.4852
  136OSM    H1S14667   3.631   1.391   1.877 -0.0698 -1.2210 -0.9498
  136OSM    H1T14668   3.458   1.378   1.913  0.0681 -0.9010 -0.1162
  136OSM     NF14669   3.579   1.245   2.078  0.2497 -0.0832  0.2965
  136OSM    HNF14670   3.507   1.180   2.101  0.5897 -1.3371 -1.9069
  136OSM    C2S14671   3.567   1.386   2.086 -0.0936  0.2519 -0.1100
  136OSM    H2S14672   3.667   1.423   2.115 -0.6790 -0.0748  2.5219
  136OSM    C3S14673   3.457   1.441   2.179 -0.5470  0.2243  0.2340
  136OSM    H3S14674   3.357   1.408   2.144 -0.2400 -1.2138  0.6508
  136OSM     O314675   3.450   1.587   2.183 -0.3844 -0.2304  0.2837
  136OSM    HO314676   3.514   1.615   2.117 -0.6342  0.8845  0.5040
  136OSM    C4S14677   3.479   1.385   2.311  0.9533 -0.4479  0.5508
  136OSM    H4S14678   3.453   1.278   2.306 -1.9745  0.2224 -0.4565
  136OSM    C5S14679   3.516   1.444   2.428  0.3244 -0.9208  0.5547
  136OSM    H5S14680   3.540   1.551   2.422  1.9645 -1.1983  1.4805
  136OSM    C6S14681   3.541   1.382   2.560 -0.2406 -0.0464 -0.3295
  136OSM    H6S14682   3.643   1.409   2.596  1.0803 -4.0919 -0.5310
  136OSM    H6T14683   3.549   1.272   2.542 -0.0987 -0.0739 -0.0985
  136OSM    C7S14684   3.448   1.416   2.678  0.4771  0.4282 -0.4095
  136OSM    H7S14685   3.346   1.379   2.654  0.2110 -0.2845  1.6423
  136OSM    H7T14686   3.454   1.526   2.688  1.6910  0.2118  2.0706
  136OSM    C8S14687   3.488   1.359   2.810 -0.2026  0.1162  0.3191
  136OSM    H8S14688   3.413   1.400   2.881  2.4578  2.4131  2.0071
  136OSM    H8T14689   3.581   1.408   2.846 -0.2073  0.4515 -0.1141
  136OSM    C9S14690   3.475   1.212   2.819 -0.4157 -0.3510  0.1622
  136OSM    H9S14691   3.535   1.154   2.746 -0.9187 -2.7696  1.5707
  136OSM    H9T14692   3.374   1.194   2.776 -0.7240 -0.6682  0.9980
  136OSM   C10S14693   3.471   1.156   2.959  0.1028 -0.8705 -0.5235
  136OSM   H10S14694   3.445   1.049   2.960  0.3142 -0.9377  0.8560
  136OSM   H10T14695   3.399   1.203   3.030 -1.2315 -3.1982 -0.2686
  136OSM   C11S14696   3.604   1.158   3.036  0.0421  0.7490 -0.3456
  136OSM   H11S14697   3.646   1.260   3.021 -0.5720  0.8593 -1.3955
  136OSM   H11T14698   3.664   1.084   2.979 -0.3551 -0.3213  0.5980
  136OSM   C12S14699   3.587   1.111   3.186 -0.9559 -0.0731  0.0260
  136OSM   H12S14700   3.572   1.001   3.181  1.7712 -0.4538 -1.1374
  136OSM   H12T14701   3.503   1.165   3.236 -0.0338  0.4361  1.0482
  136OSM   C13S14702   3.720   1.131   3.283 -0.7327  0.3033  1.1056
  136OSM   H13S14703   3.764   1.232   3.264  1.3072 -0.4153  1.7859
  136OSM   H13T14704   3.794   1.053   3.256 -0.8916 -0.2068  2.1093
  136OSM   C14S14705   3.683   1.124   3.429 -0.9991  0.0916 -0.2945
  136OSM   H14S14706   3.584   1.170   3.450 -0.7890 -0.2033  1.5036
  136OSM   H14T14707   3.760   1.177   3.490  1.2279 -2.1121 -1.0266
  136OSM   C15S14708   3.667   0.982   3.484 -0.5231 -0.2694 -0.1647
  136OSM   H15S14709   3.704   0.910   3.408  2.2046  0.4027  0.4086
  136OSM   H15T14710   3.561   0.969   3.514 -0.4338 -1.3184 -0.2752
  136OSM   C16S14711   3.754   0.949   3.608 -1.0622  0.0677 -1.0267
  136OSM   H16S14712   3.699   0.999   3.691 -1.5105 -1.6509 -0.2465
  136OSM   H16T14713   3.856   0.993   3.614 -1.0414 -0.0470 -0.5124
  136OSM   C17S14714   3.766   0.796   3.637  0.3114  0.3903  0.4766
  136OSM   H17S14715   3.831   0.758   3.555 -0.3038  1.6123 -0.6134
  136OSM   H17T14716   3.668   0.748   3.615  0.2320  1.7287 -2.5331
  136OSM   C18S14717   3.824   0.747   3.772 -0.4097 -0.3733  0.1852
  136OSM   H18S14718   3.822   0.636   3.771 -1.5159 -0.4295  2.6090
  136OSM   H18T14719   3.767   0.793   3.855 -1.6847  0.7720 -1.2421
  136OSM   H18U14720   3.930   0.779   3.778 -0.4253 -0.3675  0.4348
  136OSM    C1F14721   3.682   1.175   2.024  0.1514 -0.2982 -0.6566
  136OSM     OF14722   3.770   1.232   1.960 -0.2448  0.4459 -0.0563
  136OSM    C2F14723   3.692   1.025   2.047 -0.6015 -0.8417  0.9810
  136OSM    H2F14724   3.753   0.979   1.966 -0.2366  1.8702 -0.3750
  136OSM    H2G14725   3.588   0.989   2.037 -0.3023 -1.1067 -1.7969
  136OSM    C3F14726   3.759   0.983   2.183  0.5621  0.0083 -1.3263
  136OSM    H3F14727   3.853   1.040   2.192  0.6678 -0.4049  0.7738
  136OSM    H3G14728   3.782   0.876   2.166  2.6726  0.0936  0.5151
  136OSM    C4F14729   3.677   1.005   2.311  0.0582 -0.4834  0.0317
  136OSM    H4F14730   3.568   0.986   2.302  0.5068 -2.4374 -1.9195
  136OSM    H4G14731   3.694   1.110   2.345 -2.3821 -0.5316  1.7090
  136OSM    C5F14732   3.734   0.922   2.425 -0.1662 -0.8984 -0.1032
  136OSM    H5F14733   3.711   0.814   2.421  0.2119 -0.9373 -2.1247
  136OSM    H5G14734   3.704   0.967   2.523  1.4993  1.0840 -0.4168
  136OSM    C6F14735   3.888   0.923   2.441 -0.4883  0.0792 -0.0071
  136OSM    H6F14736   3.927   1.024   2.464 -0.5382 -0.3338  2.1912
  136OSM    H6G14737   3.941   0.872   2.358 -0.1674  0.9554 -0.3458
  136OSM    C7F14738   3.933   0.832   2.558 -1.2618 -0.5156 -0.1128
  136OSM    H7F14739   4.035   0.794   2.540 -0.5801  0.9174  0.5411
  136OSM    H7G14740   3.862   0.747   2.570 -1.3701 -0.1752  1.9525
  136OSM    C8F14741   3.935   0.900   2.703 -0.4794 -0.0805 -0.2012
  136OSM    H8F14742   3.830   0.931   2.722 -0.5386 -0.3073 -0.1525
  136OSM    H8G14743   3.984   1.000   2.695  0.9257 -0.8625 -2.0113
  136OSM    C9F14744   3.997   0.803   2.801  0.0651 -0.6889  0.0729
  136OSM    H9F14745   4.092   0.756   2.771  0.7868  1.4231 -1.1769
  136OSM   C10F14746   3.963   0.782   2.929 -0.1635  0.2635 -0.2082
  136OSM   H10F14747   4.024   0.714   2.990 -0.6591 -0.3340 -0.3730
  136OSM   C11F14748   3.850   0.851   2.999  0.2572 -0.7877  0.6293
  136OSM   H11F14749   3.765   0.868   2.930 -0.2434 -0.9019  1.2025
  136OSM   H11G14750   3.879   0.952   3.033 -0.4921 -0.5355  0.5235
  136OSM   C12F14751   3.813   0.752   3.114  0.5665 -0.0442 -0.1574
  136OSM   H12F14752   3.787   0.655   3.069  1.0990  0.0638 -0.7050
  136OSM   H12G14753   3.715   0.790   3.149  0.1098 -0.7955 -0.6167
  136OSM   C13F14754   3.904   0.740   3.240  0.7455 -0.6126  0.4477
  136OSM   H13F14755   3.863   0.810   3.316 -1.1509 -0.7539 -0.4029
  136OSM   H13G14756   4.003   0.783   3.214 -0.4809  1.0715 -1.7400
  136OSM   C14F14757   3.919   0.590   3.277 -0.7322 -0.2134 -0.2606
  136OSM   H14F14758   3.961   0.545   3.185  0.2201 -0.8400  0.4531
  136OSM   H14G14759   3.825   0.532   3.274 -0.9597 -0.1710  2.8100
  136OSM   C15F14760   4.012   0.563   3.392  0.2714  0.1634  0.5504
  136OSM   H15F14761   3.952   0.513   3.471  0.6384 -1.8592 -0.3944
  136OSM   H15G14762   4.048   0.652   3.447  0.0621 -0.0538  1.0426
  136OSM   C16F14763   4.134   0.474   3.348 -0.6622  0.5603 -0.1983
  136OSM   H16F14764   4.194   0.520   3.266  0.7725 -2.4705 -0.9936
  136OSM   H16G14765   4.089   0.388   3.294  0.4635  0.5834 -1.2353
  136OSM   C17F14766   4.222   0.430   3.466  0.2861  0.0249  0.0308
  136OSM   H17F14767   4.255   0.514   3.530 -2.3517  0.7320  0.5854
  136OSM   H17G14768   4.320   0.385   3.436  0.7323 -0.8149  2.5168
  136OSM   C18F14769   4.151   0.329   3.552 -0.6469 -0.1508 -0.1130
  136OSM   H18F14770   4.082   0.262   3.497  0.4757 -0.8060 -0.7577
  136OSM   H18G14771   4.093   0.378   3.633  1.1997  0.3513  0.9700
  136OSM   H18H14772   4.226   0.263   3.601  0.5477  0.9459 -0.4059
  137OSM      N14773   0.617   3.549   1.686 -0.4028 -0.0909  0.1548
  137OSM    C1514774   0.505   3.545   1.589  0.2019 -0.2991 -0.4804
  137OSM   H15A14775   0.530   3.489   1.500 -0.5127  2.1773 -2.3415
  137OSM   H15B14776   0.471   3.645   1.567  1.0733  0.2834  0.7295
  137OSM   H15C14777   0.413   3.506   1.630  0.2721  0.3926  0.3531
  137OSM    C1414778   0.650   3.412   1.740 -0.1889  0.5974 -0.2115
  137OSM   H14A14779   0.678   3.335   1.669 -1.1037 -1.1834  1.2732
  137OSM   H14B14780   0.570   3.366   1.796 -0.1214  0.0106 -0.5813
  137OSM   H14C14781   0.728   3.414   1.815 -0.1871 -1.0225 -0.1328
  137OSM    C1314782   0.738   3.601   1.618 -0.3690  0.1764  0.6909
  137OSM   H13A14783   0.747   3.709   1.620 -0.5699  0.1914  0.8874
  137OSM   H13B14784   0.751   3.564   1.518 -1.8326 -2.1634  1.2860
  137OSM   H13C14785   0.826   3.574   1.675  0.9886 -2.3114 -2.2867
  137OSM    C1214786   0.592   3.636   1.805  0.0696  0.2414 -0.2804
  137OSM   H12A14787   0.683   3.646   1.864 -0.9833  1.1001  1.2710
  137OSM   H12B14788   0.515   3.586   1.861  1.0290  0.1321  1.0128
  137OSM    C1114789   0.538   3.779   1.783  0.0853 -0.0993  0.1233
  137OSM   H11A14790   0.512   3.824   1.881 -0.0974  0.1111 -0.0216
  137OSM   H11B14791   0.438   3.780   1.734  0.3869 -0.6774 -0.5249
  137OSM      P14792   0.618   4.009   1.698  0.4006  0.3530  0.1658
  137OSM    O1314793   0.649   4.057   1.562 -0.3209  0.4407  0.0857
  137OSM    O1414794   0.497   4.065   1.762  0.5549  0.2170 -0.3481
  137OSM    O1114795   0.738   4.044   1.786 -0.0737  0.2738  0.3717
  137OSM    O1214796   0.624   3.852   1.698 -0.1111  0.0984  0.5332
  137OSM    C1S14797   0.839   3.962   1.839  0.4645 -0.5715  0.0922
  137OSM    H1S14798   0.932   3.969   1.778 -0.9465  0.0600 -2.0715
  137OSM    H1T14799   0.824   3.852   1.843 -0.6004 -0.4221  0.4924
  137OSM     NF14800   0.977   3.950   2.047  0.7468 -0.1023  0.0853
  137OSM    HNF14801   0.952   3.871   2.103 -0.8143  0.7839  0.7251
  137OSM    C2S14802   0.861   4.016   1.986  0.2279 -1.3481  0.2191
  137OSM    H2S14803   0.888   4.123   1.999 -2.3591 -0.9852  4.3429
  137OSM    C3S14804   0.734   3.995   2.069  0.7282 -0.3095 -0.2930
  137OSM    H3S14805   0.700   3.890   2.062  2.5783 -0.9133 -0.8665
  137OSM     O314806   0.618   4.075   2.034 -0.6380  0.3107  0.3388
  137OSM    HO314807   0.637   4.116   1.949 -0.3441 -0.2315  0.1423
  137OSM    C4S14808   0.765   4.031   2.216  0.3859 -0.5113  0.0367
  137OSM    H4S14809   0.825   4.122   2.232 -0.2427 -0.3866  1.8257
  137OSM    C5S14810   0.762   3.945   2.318 -0.4954 -1.0592  0.4577
  137OSM    H5S14811   0.742   3.840   2.294 -2.5554 -0.2040 -2.1373
  137OSM    C6S14812   0.797   3.978   2.464  0.1782 -0.1575  0.1589
  137OSM    H6S14813   0.876   3.911   2.503 -1.2978 -1.7073  0.6170
  137OSM    H6T14814   0.704   3.973   2.524  0.7281 -1.1091  0.9553
  137OSM    C7S14815   0.857   4.119   2.488  0.3692 -0.6085 -0.3744
  137OSM    H7S14816   0.807   4.205   2.439  0.2619 -1.5747 -2.0274
  137OSM    H7T14817   0.955   4.119   2.435  1.1731  0.7838  1.0101
  137OSM    C8S14818   0.887   4.151   2.639 -0.3277 -0.1196 -0.5873
  137OSM    H8S14819   0.795   4.136   2.698 -1.9930  1.0251 -2.7506
  137OSM    H8T14820   0.922   4.256   2.643  1.2951 -0.6244 -0.5666
  137OSM    C9S14821   1.003   4.075   2.701 -0.1708  0.1015 -0.3122
  137OSM    H9S14822   1.094   4.083   2.637 -1.5064 -0.9158 -2.4335
  137OSM    H9T14823   0.968   3.970   2.704  1.8411 -0.6812 -1.8084
  137OSM   C10S14824   1.030   4.131   2.844  0.4713  0.6658 -0.2630
  137OSM   H10S14825   0.943   4.118   2.912  0.1106 -1.6312 -1.0773
  137OSM   H10T14826   1.037   4.242   2.834  0.2802  0.7702  0.7130
  137OSM   C11S14827   1.159   4.071   2.912 -0.1056 -0.2417  0.3704
  137OSM   H11S14828   1.244   4.115   2.857 -0.7138  2.1536  1.2351
  137OSM   H11T14829   1.165   3.961   2.895 -0.7215 -0.2437  0.1539
  137OSM   C12S14830   1.174   4.103   3.054 -0.2948  0.0756  0.1681
  137OSM   H12S14831   1.080   4.071   3.104 -0.1605 -0.0910  0.3138
  137OSM   H12T14832   1.180   4.213   3.070 -0.9660  0.0958  0.3466
  137OSM   C13S14833   1.302   4.048   3.124  0.4300  0.3173 -0.3503
  137OSM   H13S14834   1.397   4.081   3.079  1.3060 -1.4085  0.1228
  137OSM   H13T14835   1.307   3.937   3.113  0.1368  0.4738 -2.4347
  137OSM   C14S14836   1.292   4.097   3.267  0.0291 -0.0018 -0.3164
  137OSM   H14S14837   1.190   4.066   3.297  0.1502 -2.6209 -2.1993
  137OSM   H14T14838   1.303   4.206   3.285  2.9236 -0.6558  2.9611
  137OSM   C15S14839   1.393   4.007   3.354 -0.1694  0.7672  0.1729
  137OSM   H15S14840   1.497   4.030   3.321 -0.6496  0.2313 -1.8712
  137OSM   H15T14841   1.376   3.899   3.338 -0.9517  0.7664  0.9704
  137OSM   C16S14842   1.390   4.045   3.499 -0.0540 -0.6068  0.9100
  137OSM   H16S14843   1.293   4.018   3.545  0.6894 -0.1609  2.8488
  137OSM   H16T14844   1.406   4.155   3.509 -1.3098 -0.4603  1.4834
  137OSM   C17S14845   1.502   3.981   3.576  0.2360 -0.0089 -0.3764
  137OSM   H17S14846   1.604   4.007   3.540  0.2829  1.0205  0.4773
  137OSM   H17T14847   1.494   3.870   3.565 -0.4795  0.0716 -0.6848
  137OSM   C18S14848   1.507   4.017   3.725  0.2134  0.0012  0.3343
  137OSM   H18S14849   1.412   3.989   3.776  1.1703 -0.1679  2.0996
  137OSM   H18T14850   1.529   4.124   3.744 -2.6369  0.7584 -0.0628
  137OSM   H18U14851   1.577   3.946   3.773 -1.3747 -0.7307  1.6576
  137OSM    C1F14852   1.101   3.987   2.026 -0.4176 -0.3492  0.5099
  137OSM     OF14853   1.129   4.076   1.942 -0.2186 -0.3156  0.1274
  137OSM    C2F14854   1.215   3.914   2.091  0.1826 -0.6938 -0.1613
  137OSM    H2F14855   1.268   3.846   2.021 -3.1528 -2.2039 -1.4135
  137OSM    H2G14856   1.176   3.851   2.174  1.2779  1.0920  1.8263
  137OSM    C3F14857   1.306   4.004   2.180 -0.1680  0.6037 -0.1437
  137OSM    H3F14858   1.337   4.095   2.125  1.1727 -0.6464 -1.5557
  137OSM    H3G14859   1.404   3.953   2.197  0.5471  1.4614 -1.5203
  137OSM    C4F14860   1.230   4.028   2.316 -0.3468  0.2911 -0.0612
  137OSM    H4F14861   1.147   4.100   2.299  0.3157  0.6505 -2.0449
  137OSM    H4G14862   1.297   4.087   2.381 -1.6071  1.1444  0.5119
  137OSM    C5F14863   1.189   3.903   2.396 -0.2089 -0.6344  0.8690
  137OSM    H5F14864   1.097   3.856   2.357 -0.3162 -0.3930  0.8255
  137OSM    H5G14865   1.172   3.933   2.501 -1.2975  1.0795  0.2526
  137OSM    C6F14866   1.303   3.802   2.397 -0.3393 -0.2489 -0.3321
  137OSM    H6F14867   1.394   3.853   2.435  0.0028  1.2681 -2.9239
  137OSM    H6G14868   1.323   3.756   2.298 -1.8899  2.2170 -1.9001
  137OSM    C7F14869   1.266   3.687   2.490  0.6296 -0.0828  0.5864
  137OSM    H7F14870   1.336   3.605   2.464 -0.1315 -1.3817  2.4283
  137OSM    H7G14871   1.171   3.642   2.455 -0.5897  2.6001  0.1838
  137OSM    C8F14872   1.252   3.709   2.638 -0.4889 -0.3045 -0.0710
  137OSM    H8F14873   1.212   3.615   2.682 -0.9926 -0.4859 -0.8986
  137OSM    H8G14874   1.180   3.793   2.653  0.4303  0.6901 -1.0515
  137OSM    C9F14875   1.382   3.746   2.701  1.0666 -0.1020 -0.2232
  137OSM    H9F14876   1.432   3.832   2.654 -2.2581  1.4328 -1.3135
  137OSM   C10F14877   1.438   3.690   2.810 -0.0830  0.3005  0.2118
  137OSM   H10F14878   1.530   3.729   2.855  1.2589 -1.8595 -0.4930
  137OSM   C11F14879   1.376   3.585   2.901  0.1495  0.1468 -0.6358
  137OSM   H11F14880   1.404   3.483   2.865  0.6480  0.3944 -0.9575
  137OSM   H11G14881   1.266   3.600   2.896  0.4555  2.7543 -0.9072
  137OSM   C12F14882   1.404   3.588   3.047  0.3542  0.0322 -0.3434
  137OSM   H12F14883   1.369   3.687   3.084 -0.2639 -0.5024  0.5439
  137OSM   H12G14884   1.515   3.589   3.059  0.2529  1.4278  0.8020
  137OSM   C13F14885   1.347   3.471   3.127  1.0222 -0.4824 -0.0025
  137OSM   H13F14886   1.372   3.370   3.088  0.7862 -1.3160  1.9030
  137OSM   H13G14887   1.237   3.484   3.119  1.2127  0.8157 -0.9256
  137OSM   C14F14888   1.384   3.465   3.280 -0.5174  1.0565  0.0623
  137OSM   H14F14889   1.347   3.366   3.314  0.4842 -0.2500 -2.3929
  137OSM   H14G14890   1.349   3.553   3.338 -3.2231  0.1894 -0.1351
  137OSM   C15F14891   1.538   3.451   3.312 -0.6518  0.3000 -0.0030
  137OSM   H15F14892   1.592   3.539   3.272 -0.4797 -0.2918 -1.1268
  137OSM   H15G14893   1.599   3.369   3.268 -0.4039 -0.1198  1.0865
  137OSM   C16F14894   1.549   3.431   3.470  0.0885 -0.2246  0.3398
  137OSM   H16F14895   1.508   3.334   3.505 -2.8333  1.4233  1.9341
  137OSM   H16G14896   1.488   3.502   3.530 -0.6555 -0.4099 -0.1767
  137OSM   C17F14897   1.692   3.463   3.523  0.0524  0.5885  0.6049
  137OSM   H17F14898   1.723   3.567   3.500 -0.3462  0.2741 -1.5071
  137OSM   H17G14899   1.760   3.396   3.465  0.5336 -0.5325  2.3660
  137OSM   C18F14900   1.707   3.427   3.670  0.1363  0.7595  0.1661
  137OSM   H18F14901   1.619   3.466   3.726 -0.7441 -2.2620  1.0408
  137OSM   H18G14902   1.802   3.464   3.716  0.9711  0.0518 -0.9415
  137OSM   H18H14903   1.702   3.319   3.696 -1.5030  0.9814  0.8703
  138OSM      N14904   6.300   1.235   1.714 -0.9163  1.2654  0.7976
  138OSM    C1514905   6.364   1.197   1.853  0.3040 -0.3287 -0.1340
  138OSM   H15A14906   6.471   1.199   1.859  0.1986  2.0803  3.5333
  138OSM   H15B14907   6.336   1.097   1.883  0.2966  0.0797  1.2457
  138OSM   H15C14908   6.325   1.269   1.923 -1.5712 -0.4435 -0.9782
  138OSM    C1414909   6.314   1.378   1.681 -0.6551  0.4433  0.7862
  138OSM   H14A14910   6.231   1.398   1.615  0.9380 -0.7804 -1.7537
  138OSM   H14B14911   6.404   1.393   1.624 -0.6454  2.1512  1.2053
  138OSM   H14C14912   6.294   1.438   1.769  0.2315  1.6736  0.1643
  138OSM    C1314913   6.376   1.153   1.609 -0.5033  0.2976 -0.7620
  138OSM   H13A14914   6.349   1.050   1.627  1.1097 -0.1643 -0.8001
  138OSM   H13B14915   6.482   1.167   1.627 -0.8666  0.9018  1.1308
  138OSM   H13C14916   6.355   1.184   1.508  2.4737  0.2239 -1.5058
  138OSM    C1214917   6.152   1.174   1.709 -0.3114 -0.1768  0.2457
  138OSM   H12A14918   6.167   1.072   1.742  1.6428 -0.3141 -0.8894
  138OSM   H12B14919   6.119   1.169   1.607 -1.0438 -2.1164  0.5188
  138OSM    C1114920   6.047   1.237   1.794  0.7256  0.3509  0.5436
  138OSM   H11A14921   6.082   1.231   1.899  4.5242 -1.5330 -0.6354
  138OSM   H11B14922   5.955   1.176   1.781 -0.3109  1.6438  1.5828
  138OSM      P14923   5.898   1.455   1.787 -0.0578 -0.3158 -0.0365
  138OSM    O1314924   5.917   1.586   1.719  0.2460 -0.1339  0.3179
  138OSM    O1414925   5.778   1.376   1.749  0.1790 -0.5076 -0.0005
  138OSM    O1114926   5.905   1.482   1.939  0.2287  0.2699  0.3206
  138OSM    O1214927   6.030   1.371   1.758  0.2161 -0.0134 -0.1865
  138OSM    C1S14928   6.023   1.528   2.009 -0.1432  0.0532 -0.2456
  138OSM    H1S14929   6.051   1.634   1.991 -0.2973  0.2955  0.8797
  138OSM    H1T14930   6.115   1.469   1.990  1.4680  2.4920 -0.4059
  138OSM     NF14931   5.971   1.394   2.209 -0.3955  0.1575 -0.6932
  138OSM    HNF14932   5.879   1.357   2.203 -1.1287  1.5799  0.8688
  138OSM    C2S14933   6.007   1.529   2.159 -0.0553 -0.0022  0.4122
  138OSM    H2S14934   6.100   1.566   2.208 -0.6644 -0.5329  2.0110
  138OSM    C3S14935   5.910   1.641   2.195 -0.3031 -0.8213  0.7155
  138OSM    H3S14936   5.812   1.618   2.147 -0.0541 -0.6259  0.1018
  138OSM     O314937   5.948   1.775   2.162 -0.2874 -0.3838 -0.0297
  138OSM    HO314938   6.041   1.782   2.142 -0.4242  1.7820 -0.1523
  138OSM    C4S14939   5.891   1.629   2.344  0.0940  0.6274  0.3761
  138OSM    H4S14940   5.968   1.675   2.408  0.3759  1.0247 -0.2406
  138OSM    C5S14941   5.773   1.592   2.404  0.4504  0.6944  0.3130
  138OSM    H5S14942   5.691   1.558   2.339 -0.6964 -0.5594  2.3201
  138OSM    C6S14943   5.751   1.576   2.554 -0.0829  1.1067 -0.5543
  138OSM    H6S14944   5.673   1.500   2.577 -0.4354  1.6788  0.2273
  138OSM    H6T14945   5.715   1.672   2.598  2.0833  1.1509  1.3412
  138OSM    C7S14946   5.878   1.558   2.635  0.3351 -0.2235  0.6327
  138OSM    H7S14947   5.946   1.644   2.613 -1.2689  0.8824 -0.1682
  138OSM    H7T14948   5.916   1.464   2.591  0.5239  0.5851 -0.9862
  138OSM    C8S14949   5.848   1.549   2.785  0.6291  0.0369  0.1259
  138OSM    H8S14950   5.781   1.465   2.813  1.8169 -0.7693  0.6319
  138OSM    H8T14951   5.794   1.645   2.799 -0.5052 -0.4562 -0.7370
  138OSM    C9S14952   5.964   1.547   2.885  0.2849 -0.2987  0.0351
  138OSM    H9S14953   6.035   1.630   2.867 -0.0400  0.4350  1.9125
  138OSM    H9T14954   6.028   1.460   2.858  1.5995  0.5945  0.1899
  138OSM   C10S14955   5.914   1.545   3.029  0.8064 -0.1213 -0.6709
  138OSM   H10S14956   5.837   1.623   3.044  0.7761 -0.1429 -0.7140
  138OSM   H10T14957   5.999   1.549   3.101  1.4695 -0.0651 -1.4348
  138OSM   C11S14958   5.854   1.404   3.055  0.1673 -0.9050  0.7120
  138OSM   H11S14959   5.927   1.330   3.017 -0.5034 -0.6564 -1.1213
  138OSM   H11T14960   5.760   1.391   2.997  0.4039 -0.9134  0.3269
  138OSM   C12S14961   5.821   1.381   3.202  0.3171 -0.3873 -0.8828
  138OSM   H12S14962   5.734   1.441   3.236  1.5855  1.3588 -0.5403
  138OSM   H12T14963   5.915   1.408   3.256 -0.6504 -0.6604  1.0126
  138OSM   C13S14964   5.803   1.229   3.228  0.5277 -0.6150  0.2445
  138OSM   H13S14965   5.808   1.210   3.337 -1.2591  1.4648  0.7525
  138OSM   H13T14966   5.883   1.170   3.178 -0.7121 -1.2132 -1.1024
  138OSM   C14S14967   5.659   1.188   3.190 -0.3605  0.2289  0.1521
  138OSM   H14S14968   5.646   1.197   3.080  1.0354  1.1626  0.0484
  138OSM   H14T14969   5.576   1.240   3.243 -1.2673 -2.5846  1.7293
  138OSM   C15S14970   5.648   1.032   3.215  0.7814 -0.0902  0.3404
  138OSM   H15S14971   5.641   1.003   3.322 -1.3797 -0.6057  0.1006
  138OSM   H15T14972   5.734   0.991   3.158 -0.4130 -0.7801 -1.0274
  138OSM   C16S14973   5.518   0.986   3.145  0.4910  0.2285 -0.1789
  138OSM   H16S14974   5.533   0.990   3.035  4.1327  1.6141  0.2024
  138OSM   H16T14975   5.436   1.054   3.173 -0.6654 -0.1333 -2.4484
  138OSM   C17S14976   5.468   0.849   3.190 -0.1387  0.0276 -0.0718
  138OSM   H17S14977   5.475   0.841   3.300 -0.4159 -1.7401 -0.1606
  138OSM   H17T14978   5.536   0.776   3.142  0.2329  1.4014 -1.7641
  138OSM   C18S14979   5.318   0.804   3.158  0.2736 -0.2997  0.7246
  138OSM   H18S14980   5.304   0.799   3.048 -0.7215 -2.0204  0.8970
  138OSM   H18T14981   5.250   0.880   3.202  2.0136  2.0970 -0.4585
  138OSM   H18U14982   5.291   0.708   3.207 -1.1561  0.7253  2.0224
  138OSM    C1F14983   6.071   1.308   2.231  0.2137 -0.3138  0.2742
  138OSM     OF14984   6.192   1.337   2.236  0.4934 -0.0739  0.7738
  138OSM    C2F14985   6.034   1.162   2.261 -0.0654  0.1980  0.3284
  138OSM    H2F14986   6.008   1.121   2.161  0.5231  1.0455 -0.1917
  138OSM    H2G14987   5.946   1.155   2.327  0.6257 -3.0201  1.0938
  138OSM    C3F14988   6.145   1.064   2.317  0.1729  0.1839 -0.2539
  138OSM    H3F14989   6.217   1.059   2.232  1.0175 -1.1879  0.5115
  138OSM    H3G14990   6.095   0.965   2.324 -1.6000  0.7021 -3.3672
  138OSM    C4F14991   6.220   1.113   2.447 -0.0836  0.0235  0.0505
  138OSM    H4F14992   6.249   1.219   2.433 -1.0512  0.4165  0.8725
  138OSM    H4G14993   6.310   1.050   2.463  0.0426  0.3331  0.6035
  138OSM    C5F14994   6.134   1.086   2.572 -1.0472  0.6125  0.4276
  138OSM    H5F14995   6.104   0.979   2.574  0.2756  0.2120  0.2486
  138OSM    H5G14996   6.048   1.157   2.576 -0.5005  1.4266 -1.3468
  138OSM    C6F14997   6.205   1.111   2.710  0.3081 -0.2824 -0.4803
  138OSM    H6F14998   6.261   1.207   2.713  0.0931 -0.1892  1.5425
  138OSM    H6G14999   6.276   1.026   2.714 -0.6418 -1.2189 -2.0981
  138OSM    C7F15000   6.113   1.118   2.826  0.2952 -0.2718  0.2190
  138OSM    H7F15001   6.028   1.051   2.799 -0.3836 -0.6428  2.9526
  138OSM    H7G15002   6.077   1.223   2.817  2.4197  0.4298 -0.5479
  138OSM    C8F15003   6.173   1.088   2.956 -0.0197 -0.3333  0.2871
  138OSM    H8F15004   6.221   0.988   2.951  0.0689 -0.2340 -2.9160
  138OSM    H8G15005   6.088   1.070   3.025 -1.0898 -1.2714 -1.2149
  138OSM    C9F15006   6.274   1.185   3.013 -0.0006  0.6120  0.3345
  138OSM    H9F15007   6.342   1.232   2.939  0.4178 -0.2871  0.1353
  138OSM   C10F15008   6.286   1.231   3.135  0.2278  0.4350 -0.9406
  138OSM   H10F15009   6.380   1.279   3.167 -0.3546  0.4203  0.9705
  138OSM   C11F15010   6.191   1.194   3.254  0.1185  0.0352 -0.1519
  138OSM   H11F15011   6.096   1.153   3.214  0.6577 -1.7447  0.2928
  138OSM   H11G15012   6.156   1.273   3.323 -0.9897 -0.4867 -0.0942
  138OSM   C12F15013   6.259   1.079   3.334  0.6877 -0.3787 -0.3412
  138OSM   H12F15014   6.348   1.124   3.382  0.0131 -0.0649  0.6521
  138OSM   H12G15015   6.299   0.992   3.277 -0.4924 -2.3177  1.6384
  138OSM   C13F15016   6.164   1.033   3.444 -0.2141  1.1691  0.1697
  138OSM   H13F15017   6.223   0.973   3.517  0.6300  3.8967  1.8973
  138OSM   H13G15018   6.094   0.966   3.389  0.9371  1.3853 -1.6460
  138OSM   C14F15019   6.081   1.139   3.523  0.7311 -0.1255 -0.3853
  138OSM   H14F15020   6.016   1.197   3.454 -0.8381 -0.2291  0.9288
  138OSM   H14G15021   6.160   1.205   3.565  0.4765 -0.7052  1.0677
  138OSM   C15F15022   6.005   1.066   3.637 -0.2160  0.6326 -0.1901
  138OSM   H15F15023   5.970   1.142   3.710  2.0539  1.3750  0.2032
  138OSM   H15G15024   6.074   0.994   3.687 -0.1012  1.1434  0.3961
  138OSM   C16F15025   5.871   1.003   3.583 -0.2808 -0.2348 -0.3091
  138OSM   H16F15026   5.889   0.935   3.497 -0.0194 -1.3401  0.5867
  138OSM   H16G15027   5.800   1.083   3.552 -0.7440 -0.5180 -0.0023
  138OSM   C17F15028   5.801   0.919   3.692 -0.7822 -0.3298  0.0624
  138OSM   H17F15029   5.752   0.979   3.772 -0.0012 -2.0789  1.9293
  138OSM   H17G15030   5.889   0.868   3.737  0.7391  1.5648 -0.6458
  138OSM   C18F15031   5.707   0.813   3.648  0.1810  0.2233 -0.0493
  138OSM   H18F15032   5.666   0.753   3.731  4.1362 -0.1205  1.8807
  138OSM   H18G15033   5.764   0.737   3.589  1.1273 -0.7693  2.0314
  138OSM   H18H15034   5.619   0.852   3.593  0.2994  0.3048 -0.1844
  139OSM      N15035   7.085   3.489   1.762  0.1667 -0.3224 -0.2008
  139OSM    C1515036   6.963   3.416   1.795  0.1017 -0.5869 -0.2932
  139OSM   H15A15037   6.889   3.421   1.716 -0.3779  3.0970  0.1982
  139OSM   H15B15038   6.912   3.477   1.869 -0.3065 -1.3091  0.0255
  139OSM   H15C15039   6.976   3.319   1.839  0.7906 -0.0734  0.6829
  139OSM    C1415040   7.173   3.398   1.688  0.7902  0.9238 -0.4030
  139OSM   H14A15041   7.258   3.454   1.652  1.4951  1.9955  2.6443
  139OSM   H14B15042   7.113   3.357   1.608 -1.5177  0.1012  1.6221
  139OSM   H14C15043   7.213   3.322   1.753  0.1377  0.5632 -0.4113
  139OSM    C1315044   7.056   3.613   1.677  0.3418  0.0586 -0.3703
  139OSM   H13A15045   7.143   3.674   1.658  1.2497 -0.1998  2.4848
  139OSM   H13B15046   6.990   3.682   1.727 -0.6227  0.2032 -1.7986
  139OSM   H13C15047   7.010   3.582   1.584 -0.8034 -0.6491  0.4034
  139OSM    C1215048   7.155   3.535   1.887 -0.3747 -0.8753  0.2106
  139OSM   H12A15049   7.081   3.594   1.940 -0.7922 -1.1397 -0.0729
  139OSM   H12B15050   7.236   3.601   1.861 -0.4345 -0.4891  0.9877
  139OSM    C1115051   7.217   3.438   1.989 -0.3911 -0.6774  0.1445
  139OSM   H11A15052   7.143   3.356   2.006 -0.2165 -1.3993 -2.2117
  139OSM   H11B15053   7.231   3.494   2.084  0.0458  0.7694 -0.7387
  139OSM      P15054   7.469   3.455   1.982 -0.3154 -0.3264 -0.2042
  139OSM    O1315055   7.579   3.372   1.936  0.2008  0.5234 -0.3785
  139OSM    O1415056   7.465   3.593   1.937  0.7340 -0.2814 -0.6129
  139OSM    O1115057   7.472   3.478   2.136  0.4186 -0.3884 -0.5187
  139OSM    O1215058   7.335   3.384   1.948  0.1714  0.3241  0.2497
  139OSM    C1S15059   7.459   3.369   2.225 -1.1504 -0.4971 -0.4654
  139OSM    H1S15060   7.538   3.293   2.206  0.6394  1.5131 -1.5788
  139OSM    H1T15061   7.360   3.320   2.217 -0.0858 -2.9491  0.4244
  139OSM     NF15062   7.511   3.303   2.453  0.4986 -0.2793  0.1242
  139OSM    HNF15063   7.437   3.278   2.515 -0.2855 -0.8069 -0.9738
  139OSM    C2S15064   7.481   3.423   2.371  1.3185  0.6798  0.4389
  139OSM    H2S15065   7.567   3.494   2.377  2.0659 -0.1364 -0.3974
  139OSM    C3S15066   7.363   3.507   2.421  0.3036 -0.0596 -0.2871
  139OSM    H3S15067   7.272   3.444   2.430  0.6953 -0.8345 -1.5677
  139OSM     O315068   7.332   3.614   2.325  0.3903  0.2637 -0.2265
  139OSM    HO315069   7.363   3.579   2.242 -0.5220 -0.3611 -0.3177
  139OSM    C4S15070   7.401   3.551   2.561  0.4137  0.4505 -0.2727
  139OSM    H4S15071   7.324   3.530   2.636  2.2955 -2.9307  0.9066
  139OSM    C5S15072   7.505   3.623   2.602  0.3007  0.2566  0.3092
  139OSM    H5S15073   7.585   3.659   2.537  0.7085 -1.6743 -0.3430
  139OSM    C6S15074   7.512   3.677   2.743 -0.4396 -0.4506  0.3791
  139OSM    H6S15075   7.617   3.663   2.779  0.3473  1.0376 -1.1690
  139OSM    H6T15076   7.451   3.617   2.813  0.3160 -3.2445 -1.1960
  139OSM    C7S15077   7.475   3.831   2.755  0.1966 -0.4225  0.5604
  139OSM    H7S15078   7.469   3.867   2.860  0.1880  0.5061  0.2514
  139OSM    H7T15079   7.371   3.843   2.718 -0.4163 -2.7190  1.3707
  139OSM    C8S15080   7.573   3.916   2.667 -0.1852  0.3694 -0.6003
  139OSM    H8S15081   7.504   4.001   2.651 -2.0310 -0.8545  0.4642
  139OSM    H8T15082   7.600   3.865   2.573 -0.2535 -0.7974 -0.0113
  139OSM    C9S15083   7.703   3.960   2.734 -0.5632 -0.3150 -0.4247
  139OSM    H9S15084   7.743   4.055   2.694 -0.0077 -0.6452 -0.6727
  139OSM    H9T15085   7.782   3.883   2.717 -1.3096 -0.5420 -3.2995
  139OSM   C10S15086   7.697   3.987   2.890 -0.6029 -0.2227 -0.4231
  139OSM   H10S15087   7.655   3.892   2.929  2.2320 -1.8539 -1.0250
  139OSM   H10T15088   7.628   4.071   2.913  1.2277  1.3278 -0.3593
  139OSM   C11S15089   7.829   4.011   2.959  0.4208  0.8060 -0.4145
  139OSM   H11S15090   7.874   4.104   2.917  0.8708 -0.0955 -2.0193
  139OSM   H11T15091   7.900   3.928   2.939 -0.1030  0.4771 -0.9240
  139OSM   C12S15092   7.815   4.005   3.111  0.0879 -0.7574 -0.0323
  139OSM   H12S15093   7.769   3.910   3.145 -0.3561 -0.3900  0.4047
  139OSM   H12T15094   7.745   4.090   3.126  3.9898  3.1626 -1.7895
  139OSM   C13S15095   7.944   4.033   3.195  0.3843 -0.1648  0.0807
  139OSM   H13S15096   7.984   4.129   3.156 -3.5141  1.3390 -0.7579
  139OSM   H13T15097   8.018   3.951   3.191 -0.6322 -1.0643 -0.9168
  139OSM   C14S15098   7.912   4.046   3.344 -0.1545 -0.1873  0.5362
  139OSM   H14S15099   7.853   3.958   3.380 -1.5948  0.9808  1.1338
  139OSM   H14T15100   7.834   4.125   3.350 -0.7400 -0.4506 -2.3021
  139OSM   C15S15101   8.035   4.060   3.439 -0.7774 -0.3511 -0.0138
  139OSM   H15S15102   8.117   4.102   3.378 -1.4524 -0.4880 -1.0351
  139OSM   H15T15103   8.073   3.957   3.459  0.9860 -0.2480 -2.4350
  139OSM   C16S15104   8.010   4.150   3.559  0.0508  0.0098  0.1061
  139OSM   H16S15105   7.959   4.247   3.541  0.1204 -0.0447 -0.3937
  139OSM   H16T15106   8.107   4.161   3.612  0.3822 -0.9091 -0.2900
  139OSM   C17S15107   7.921   4.065   3.652 -0.4772  0.0685  0.0373
  139OSM   H17S15108   7.957   3.961   3.662 -1.1919 -0.3621 -1.5674
  139OSM   H17T15109   7.817   4.059   3.615  0.0167 -1.1989 -1.2120
  139OSM   C18S15110   7.909   4.121   3.793  0.2603  0.4598 -0.1976
  139OSM   H18S15111   7.843   4.210   3.801 -0.8542 -0.1738 -1.6455
  139OSM   H18T15112   8.011   4.147   3.826 -0.0586 -1.0444  2.1960
  139OSM   H18U15113   7.876   4.038   3.860  1.5412 -0.5361 -0.7708
  139OSM    C1F15114   7.627   3.237   2.456  0.2159  0.4108 -0.3337
  139OSM     OF15115   7.730   3.272   2.406 -0.0086  0.1184 -0.1024
  139OSM    C2F15116   7.622   3.111   2.533  0.2781  0.4360 -0.4905
  139OSM    H2F15117   7.520   3.096   2.573 -0.0238  2.0427 -0.5895
  139OSM    H2G15118   7.677   3.133   2.627 -0.2065  1.4083 -0.4181
  139OSM    C3F15119   7.679   2.982   2.463  0.6449  0.1029  0.0440
  139OSM    H3F15120   7.781   2.994   2.422  1.4725 -0.5885  1.8126
  139OSM    H3G15121   7.616   2.961   2.373 -1.2882 -0.7848  1.5137
  139OSM    C4F15122   7.685   2.862   2.563 -0.6284 -0.5658  0.0164
  139OSM    H4F15123   7.712   2.772   2.503  2.5539  0.3580 -0.1136
  139OSM    H4G15124   7.589   2.838   2.614  0.2888 -3.0839  0.7102
  139OSM    C5F15125   7.803   2.875   2.665 -0.6905 -0.9257  0.0906
  139OSM    H5F15126   7.794   2.970   2.722 -0.8743 -0.8549 -0.0542
  139OSM    H5G15127   7.896   2.879   2.604  0.9425  1.9855  2.5127
  139OSM    C6F15128   7.805   2.750   2.756  0.2453 -0.2850  0.5011
  139OSM    H6F15129   7.817   2.661   2.690 -0.3673  0.0637 -0.0895
  139OSM    H6G15130   7.700   2.748   2.792 -0.5038 -0.5064 -1.5897
  139OSM    C7F15131   7.903   2.746   2.867 -0.3832  0.2531  0.7128
  139OSM    H7F15132   8.005   2.756   2.824 -0.9887 -0.7884 -1.0527
  139OSM    H7G15133   7.903   2.642   2.905 -0.7060  0.0710  0.2247
  139OSM    C8F15134   7.887   2.853   2.966 -0.0086  0.1978  0.1382
  139OSM    H8F15135   7.909   2.948   2.914  0.4605 -0.8751 -1.6932
  139OSM    H8G15136   7.973   2.846   3.036  1.7578 -1.1100 -2.0488
  139OSM    C9F15137   7.764   2.855   3.055 -0.1396 -0.2358  0.0313
  139OSM    H9F15138   7.685   2.786   3.025 -0.3649  0.1181 -0.1968
  139OSM   C10F15139   7.730   2.960   3.140  0.1820 -0.3913 -0.0510
  139OSM   H10F15140   7.637   2.950   3.197  1.7792  0.2854  2.8786
  139OSM   C11F15141   7.815   3.083   3.159 -0.0220  0.1950 -0.1108
  139OSM   H11F15142   7.921   3.071   3.128 -0.0319  0.7109 -0.3453
  139OSM   H11G15143   7.811   3.100   3.269 -1.2419  0.5939 -0.2064
  139OSM   C12F15144   7.750   3.206   3.084 -0.7095  0.1163 -0.0075
  139OSM   H12F15145   7.639   3.213   3.096 -0.9037 -2.0188 -0.2167
  139OSM   H12G15146   7.774   3.206   2.976 -0.1349  0.5440  0.1176
  139OSM   C13F15147   7.809   3.336   3.139  0.5080  0.0305 -1.1566
  139OSM   H13F15148   7.818   3.413   3.058  3.5086 -0.0357 -1.0062
  139OSM   H13G15149   7.916   3.330   3.170 -0.0585  0.5133  1.0553
  139OSM   C14F15150   7.729   3.392   3.255 -0.0099 -0.3201 -0.8232
  139OSM   H14F15151   7.740   3.324   3.343  1.0080  1.1638  0.2439
  139OSM   H14G15152   7.621   3.407   3.237  0.0060 -0.0563 -0.7083
  139OSM   C15F15153   7.780   3.531   3.311  0.1845  0.0373  0.2050
  139OSM   H15F15154   7.777   3.608   3.231  1.8573  0.3717  0.4466
  139OSM   H15G15155   7.884   3.531   3.348  0.0758 -1.5406  0.6172
  139OSM   C16F15156   7.683   3.597   3.410  0.2460  0.0338 -0.2083
  139OSM   H16F15157   7.671   3.520   3.490  0.0546 -0.9864 -1.1931
  139OSM   H16G15158   7.581   3.598   3.367  0.6763  0.1610 -1.2628
  139OSM   C17F15159   7.730   3.733   3.458 -0.1692 -0.5247  1.4730
  139OSM   H17F15160   7.739   3.797   3.367  2.7344 -1.9301  0.6272
  139OSM   H17G15161   7.835   3.738   3.493  0.0854  1.6250  0.5789
  139OSM   C18F15162   7.639   3.804   3.553 -0.0511 -0.2799 -0.5179
  139OSM   H18F15163   7.532   3.802   3.522 -0.6343  2.3937  0.9395
  139OSM   H18G15164   7.652   3.914   3.544 -1.6397 -0.1683 -1.7995
  139OSM   H18H15165   7.646   3.774   3.660  1.2550 -1.6517 -0.9512
  140OSM      N15166   6.754   1.824   1.554 -0.1971  0.2195  0.4306
  140OSM    C1515167   6.629   1.910   1.532 -0.3442  0.1593  0.1131
  140OSM   H15A15168   6.648   2.016   1.537 -1.2284  0.2618  1.6902
  140OSM   H15B15169   6.567   1.894   1.619  0.5404 -0.1978  0.7001
  140OSM   H15C15170   6.579   1.882   1.441 -1.6842 -0.3569  0.9814
  140OSM    C1415171   6.843   1.837   1.426  0.3182 -0.3152 -0.1793
  140OSM   H14A15172   6.939   1.788   1.434  0.3449 -0.1861  0.3684
  140OSM   H14B15173   6.857   1.942   1.404 -0.2675 -0.2022 -0.0130
  140OSM   H14C15174   6.788   1.812   1.337 -0.2196  0.1400  0.0186
  140OSM    C1315175   6.827   1.887   1.668  0.1325  0.4706 -0.6258
  140OSM   H13A15176   6.910   1.827   1.705 -0.4865  0.4756  0.8628
  140OSM   H13B15177   6.758   1.881   1.751 -1.0814 -0.9567 -1.6751
  140OSM   H13C15178   6.859   1.988   1.648 -0.7567  1.4375  2.3380
  140OSM    C1215179   6.725   1.676   1.573  0.2874  0.5018 -0.0859
  140OSM   H12A15180   6.823   1.631   1.577 -0.8130 -2.3299 -1.9465
  140OSM   H12B15181   6.688   1.629   1.483  1.8708  2.9911 -2.2065
  140OSM    C1115182   6.644   1.638   1.694 -0.7889  0.2154  0.6388
  140OSM   H11A15183   6.693   1.656   1.792 -0.7171 -1.8574  1.0085
  140OSM   H11B15184   6.637   1.528   1.683 -2.1903  0.5045 -2.2048
  140OSM      P15185   6.453   1.759   1.834 -0.1379  0.1124 -0.1714
  140OSM    O1315186   6.511   1.892   1.844  0.2549  0.0277  0.2670
  140OSM    O1415187   6.301   1.745   1.842 -0.6061 -0.0023  0.4481
  140OSM    O1115188   6.527   1.680   1.955 -0.2024  0.1193  0.6058
  140OSM    O1215189   6.511   1.689   1.705  0.4492  0.5187 -0.2500
  140OSM    C1S15190   6.487   1.549   1.989  0.1388  0.5437 -0.2905
  140OSM    H1S15191   6.545   1.475   1.930  2.4951  1.0375  1.2528
  140OSM    H1T15192   6.380   1.530   1.965  0.1951 -1.1411  0.6137
  140OSM     NF15193   6.474   1.366   2.168  0.0697 -0.6374 -0.2899
  140OSM    HNF15194   6.391   1.338   2.215 -0.3495 -0.8792 -1.1457
  140OSM    C2S15195   6.496   1.511   2.138 -0.6235 -0.0482  0.2671
  140OSM    H2S15196   6.598   1.539   2.173 -0.8342  3.2542 -1.3443
  140OSM    C3S15197   6.409   1.600   2.225 -0.0836  0.6128  1.0540
  140OSM    H3S15198   6.304   1.594   2.187 -0.6667  0.9980  2.5374
  140OSM     O315199   6.442   1.742   2.221  0.3191 -0.2011  0.4683
  140OSM    HO315200   6.511   1.754   2.155  2.1735  0.5791  2.4293
  140OSM    C4S15201   6.412   1.557   2.363  0.3552  0.4194 -0.7645
  140OSM    H4S15202   6.513   1.530   2.399  1.4922  0.7004 -3.4753
  140OSM    C5S15203   6.312   1.533   2.444  0.3999 -0.0673 -0.8032
  140OSM    H5S15204   6.206   1.550   2.417  0.0765  2.4431  1.5470
  140OSM    C6S15205   6.313   1.492   2.589  0.6191 -0.2610 -0.7601
  140OSM    H6S15206   6.333   1.383   2.604 -2.9826 -0.7275  1.7818
  140OSM    H6T15207   6.213   1.518   2.628 -0.7762 -2.7610 -2.3833
  140OSM    C7S15208   6.419   1.573   2.665 -0.6185  0.0511  0.3312
  140OSM    H7S15209   6.415   1.682   2.645  0.0143  0.0332  0.0755
  140OSM    H7T15210   6.521   1.537   2.638 -0.5673  1.0137 -0.7933
  140OSM    C8S15211   6.398   1.568   2.818  0.5215 -0.0744  0.4122
  140OSM    H8S15212   6.369   1.465   2.849 -0.6576  0.3983  0.9593
  140OSM    H8T15213   6.309   1.634   2.827  0.8337  0.2421  1.1949
  140OSM    C9S15214   6.502   1.628   2.912  0.4627  1.4032  0.0610
  140OSM    H9S15215   6.498   1.739   2.899 -0.9868  1.3329 -0.3104
  140OSM    H9T15216   6.603   1.589   2.886 -0.4012  0.5308 -2.3044
  140OSM   C10S15217   6.461   1.587   3.056 -0.6979 -0.6232 -0.0217
  140OSM   H10S15218   6.445   1.477   3.055  1.1524 -0.9376  0.7467
  140OSM   H10T15219   6.369   1.641   3.087 -0.4580 -0.0959 -0.2239
  140OSM   C11S15220   6.564   1.602   3.169 -0.0272 -0.3549 -0.3105
  140OSM   H11S15221   6.579   1.708   3.197  0.1391  0.0333 -1.7872
  140OSM   H11T15222   6.667   1.570   3.142 -0.5650 -2.5898  0.0321
  140OSM   C12S15223   6.526   1.519   3.296 -0.1282 -0.0142  0.0546
  140OSM   H12S15224   6.582   1.423   3.294  1.3380  0.8123 -0.5633
  140OSM   H12T15225   6.417   1.501   3.293  0.1175 -1.7493  0.1210
  140OSM   C13S15226   6.559   1.579   3.434 -0.4890 -0.1454  0.1986
  140OSM   H13S15227   6.535   1.687   3.440 -1.0970 -0.2759  0.1070
  140OSM   H13T15228   6.669   1.578   3.449 -0.6314  1.9518  1.9169
  140OSM   C14S15229   6.500   1.519   3.563 -0.1941  0.0553  0.1076
  140OSM   H14S15230   6.456   1.419   3.544 -1.5900  0.8899 -1.2471
  140OSM   H14T15231   6.416   1.585   3.594  0.3420  0.5141  0.6372
  140OSM   C15S15232   6.602   1.511   3.679  0.2789  0.8363  0.7576
  140OSM   H15S15233   6.651   1.610   3.683  0.6286  0.6371  3.3075
  140OSM   H15T15234   6.681   1.437   3.656  0.7777  1.8747 -1.0426
  140OSM   C16S15235   6.548   1.460   3.814  0.4118 -0.7279  0.3485
  140OSM   H16S15236   6.495   1.367   3.784 -0.6129  0.5817 -2.2198
  140OSM   H16T15237   6.475   1.530   3.860 -0.1591 -0.3549 -1.0859
  140OSM   C17S15238   6.660   1.435   3.924  0.4537 -0.0121  0.6503
  140OSM   H17S15239   6.714   1.348   3.881 -0.6616 -1.0718  1.3594
  140OSM   H17T15240   6.634   1.387   4.020  1.0487 -1.6720  0.0250
  140OSM   C18S15241   6.764   1.544   3.945  0.3643  0.0563 -0.2183
  140OSM   H18S15242   6.853   1.515   4.004 -0.3979  0.5837  1.2587
  140OSM   H18T15243   6.725   1.642   3.982  0.5273  1.9483 -4.5068
  140OSM   H18U15244   6.802   1.562   3.842 -1.3417  1.5677 -0.6451
  140OSM    C1F15245   6.573   1.280   2.156  0.5249 -0.1609 -1.1242
  140OSM     OF15246   6.687   1.312   2.118  0.2678  0.5288  0.3833
  140OSM    C2F15247   6.547   1.135   2.197  0.6399  0.4550 -0.6280
  140OSM    H2F15248   6.527   1.070   2.110 -1.2525  0.4236 -0.2197
  140OSM    H2G15249   6.463   1.142   2.270 -0.6291  1.0830 -2.0795
  140OSM    C3F15250   6.668   1.079   2.267  0.1926  0.9158  0.2449
  140OSM    H3F15251   6.748   1.071   2.191 -1.1018 -0.9410 -1.0250
  140OSM    H3G15252   6.636   0.975   2.292  0.5550  0.9629  0.9362
  140OSM    C4F15253   6.724   1.145   2.391  0.4116  0.4157  0.0634
  140OSM    H4F15254   6.760   1.249   2.374  0.7786  0.4452  0.9689
  140OSM    H4G15255   6.811   1.089   2.433 -2.2957 -3.1579  1.3796
  140OSM    C5F15256   6.626   1.151   2.507  0.2290  0.1182  0.6692
  140OSM    H5F15257   6.599   1.046   2.532  1.9722 -0.5647 -0.1305
  140OSM    H5G15258   6.531   1.205   2.484  0.4248  0.1581 -0.0780
  140OSM    C6F15259   6.673   1.224   2.631 -0.8919  0.0729 -0.3173
  140OSM    H6F15260   6.661   1.331   2.602  0.8345 -0.0056 -1.4940
  140OSM    H6G15261   6.780   1.206   2.655 -0.7744 -1.5708 -1.8296
  140OSM    C7F15262   6.588   1.205   2.754  0.1766 -0.5010  0.1188
  140OSM    H7F15263   6.571   1.096   2.771 -0.6862 -0.5923 -1.2020
  140OSM    H7G15264   6.500   1.271   2.741  0.2866 -0.3527  0.1183
  140OSM    C8F15265   6.648   1.270   2.884 -0.3379  0.7093 -0.2257
  140OSM    H8F15266   6.568   1.286   2.960 -0.8698 -0.8833 -0.4071
  140OSM    H8G15267   6.672   1.368   2.837  1.3629 -0.2739 -1.5139
  140OSM    C9F15268   6.772   1.201   2.931  0.0680  0.1033  0.1854
  140OSM    H9F15269   6.855   1.228   2.864  0.1446 -2.7031 -0.9897
  140OSM   C10F15270   6.793   1.141   3.054 -0.0873  0.2326 -0.2573
  140OSM   H10F15271   6.885   1.082   3.071  0.4788  0.1399 -3.1283
  140OSM   C11F15272   6.689   1.123   3.164  0.5886 -0.5691 -0.0681
  140OSM   H11F15273   6.597   1.074   3.126 -0.9755  0.4176  2.2442
  140OSM   H11G15274   6.648   1.221   3.197  2.9455  0.2220  0.7225
  140OSM   C12F15275   6.721   1.072   3.303  0.2475  0.7560 -0.1103
  140OSM   H12F15276   6.783   0.979   3.295  0.1578  0.7660 -0.9961
  140OSM   H12G15277   6.624   1.042   3.347  0.6392 -1.2408 -0.4847
  140OSM   C13F15278   6.797   1.171   3.388  0.2801 -0.0513  0.2920
  140OSM   H13F15279   6.753   1.272   3.372 -2.5307 -0.9434  1.7357
  140OSM   H13G15280   6.900   1.184   3.348 -0.1234  3.5513  0.0650
  140OSM   C14F15281   6.801   1.133   3.538 -0.1982 -0.0668 -0.7139
  140OSM   H14F15282   6.847   1.032   3.544  0.3717  0.1668 -1.0363
  140OSM   H14G15283   6.702   1.122   3.587 -0.9563 -2.0246 -2.5523
  140OSM   C15F15284   6.902   1.216   3.622 -0.0752  0.5374  0.8578
  140OSM   H15F15285   6.861   1.319   3.627  0.3482  0.7354  0.3168
  140OSM   H15G15286   6.998   1.231   3.568 -0.0356  0.2723  0.8559
  140OSM   C16F15287   6.928   1.150   3.762  0.1192 -0.4118 -0.3391
  140OSM   H16F15288   6.970   1.048   3.749 -0.6368 -0.7506 -0.2017
  140OSM   H16G15289   6.835   1.145   3.823  0.0685 -0.0897 -0.3889
  140OSM   C17F15290   7.024   1.247   3.840  0.1099 -0.2972  0.4124
  140OSM   H17F15291   6.976   1.347   3.842  0.4095 -0.0697 -1.8220
  140OSM   H17G15292   7.114   1.258   3.776 -1.0229 -0.9190 -1.3616
  140OSM   C18F15293   7.054   1.193   3.981  0.1557 -0.0599  0.8532
  140OSM   H18F15294   7.096   1.090   3.978  0.3254  0.0291 -0.5991
  140OSM   H18G15295   6.958   1.182   4.035 -1.8897 -2.6714 -2.8692
  140OSM   H18H15296   7.125   1.260   4.034 -1.1229  2.5323 -0.5185
  141OSM      N15297   1.398   6.600   1.572  0.5914 -0.3449 -0.3872
  141OSM    C1515298   1.309   6.713   1.625 -0.0684 -0.3418 -0.5538
  141OSM   H15A15299   1.352   6.797   1.678 -4.6230  1.7108  0.3644
  141OSM   H15B15300   1.237   6.670   1.694  2.1207  0.0385  2.1303
  141OSM   H15C15301   1.264   6.754   1.536  0.2991 -1.8095 -1.4532
  141OSM    C1415302   1.309   6.489   1.533  0.0909  0.0817 -0.1625
  141OSM   H14A15303   1.269   6.492   1.433 -1.5166 -0.6204  0.4314
  141OSM   H14B15304   1.236   6.480   1.611  0.0794 -0.8019 -0.2706
  141OSM   H14C15305   1.364   6.396   1.541 -0.6651 -0.6163 -2.3504
  141OSM    C1315306   1.483   6.639   1.458 -0.6025 -0.6545 -1.0027
  141OSM   H13A15307   1.423   6.657   1.370  0.5120 -1.0179 -1.8701
  141OSM   H13B15308   1.552   6.560   1.430  0.0871  0.1964 -1.7575
  141OSM   H13C15309   1.548   6.721   1.486  1.3770 -2.5270  0.2887
  141OSM    C1215310   1.495   6.556   1.678  0.6481  0.0776 -0.4722
  141OSM   H12A15311   1.434   6.526   1.762  1.1041 -0.9553 -0.4855
  141OSM   H12B15312   1.553   6.641   1.710 -1.3782  1.5005 -0.3919
  141OSM    C1115313   1.595   6.447   1.654  0.4486 -0.1907  0.1272
  141OSM   H11A15314   1.679   6.447   1.726  0.5473 -1.7182  0.0613
  141OSM   H11B15315   1.643   6.471   1.556 -3.2047 -0.8882 -2.0501
  141OSM      P15316   1.504   6.240   1.767  0.1087  0.0514  0.2124
  141OSM    O1315317   1.417   6.131   1.722  0.3737  0.3109  0.0755
  141OSM    O1415318   1.621   6.193   1.848 -1.3117 -0.4351  0.1759
  141OSM    O1115319   1.415   6.348   1.842  0.5625  0.2042  0.1840
  141OSM    O1215320   1.543   6.316   1.646  0.6920  0.1967  0.6136
  141OSM    C1S15321   1.371   6.322   1.976 -0.0124 -0.0875  0.9524
  141OSM    H1S15322   1.459   6.320   2.043  0.5631 -1.4553  0.2046
  141OSM    H1T15323   1.328   6.220   1.987 -0.3966  0.0794  1.0258
  141OSM     NF15324   1.229   6.424   2.160 -0.1919  0.2744 -0.8496
  141OSM    HNF15325   1.163   6.360   2.198  0.8832  0.2831  1.1626
  141OSM    C2S15326   1.249   6.429   2.014 -0.0480  0.8714 -0.4450
  141OSM    H2S15327   1.278   6.533   1.988 -1.5229  1.0742 -1.3300
  141OSM    C3S15328   1.123   6.399   1.928 -0.3119 -0.3071 -0.0508
  141OSM    H3S15329   1.094   6.293   1.942 -0.0488 -0.5750 -1.4241
  141OSM     O315330   1.151   6.392   1.791  0.1706  0.2760  0.2107
  141OSM    HO315331   1.245   6.372   1.792 -0.3754 -2.7745  0.4443
  141OSM    C4S15332   1.023   6.491   1.963  0.1169 -0.5632  0.3090
  141OSM    H4S15333   1.045   6.596   1.940 -1.2933 -0.4839 -0.7614
  141OSM    C5S15334   0.912   6.461   2.030  0.5881 -0.8511  0.3609
  141OSM    H5S15335   0.887   6.363   2.072 -0.6535 -2.2494 -3.2548
  141OSM    C6S15336   0.821   6.577   2.081  0.3876  0.1351  0.0570
  141OSM    H6S15337   0.719   6.539   2.106  0.0775  1.7820  1.5010
  141OSM    H6T15338   0.805   6.656   2.005  2.5175 -0.7490 -1.4069
  141OSM    C7S15339   0.860   6.650   2.210 -0.5102  0.2795 -0.6998
  141OSM    H7S15340   0.784   6.723   2.243  0.4355  0.0432  2.3194
  141OSM    H7T15341   0.954   6.706   2.188  0.5039  0.0789  2.6342
  141OSM    C8S15342   0.881   6.552   2.321  0.3782 -0.5827  0.0729
  141OSM    H8S15343   0.970   6.490   2.299  2.9685  2.1815  1.8525
  141OSM    H8T15344   0.808   6.471   2.340  0.6991 -0.6892  0.9027
  141OSM    C9S15345   0.920   6.618   2.448 -0.5660 -0.2434  0.0888
  141OSM    H9S15346   0.841   6.691   2.475  1.0216  1.2505  0.8914
  141OSM    H9T15347   1.000   6.688   2.418 -0.4059  1.2102  3.4358
  141OSM   C10S15348   0.955   6.525   2.565 -0.3102  0.5671  0.0375
  141OSM   H10S15349   0.969   6.586   2.657  0.9789  0.3237  0.0242
  141OSM   H10T15350   1.049   6.468   2.547  1.8958  3.7067  0.7816
  141OSM   C11S15351   0.839   6.428   2.603 -0.8326 -0.1038 -0.3622
  141OSM   H11S15352   0.840   6.345   2.529  1.0952 -0.2401 -0.2351
  141OSM   H11T15353   0.740   6.479   2.597 -1.8866 -2.0505 -0.3878
  141OSM   C12S15354   0.866   6.357   2.735  1.3786 -0.1899 -0.0479
  141OSM   H12S15355   0.866   6.426   2.823  2.6143  0.7566 -0.7654
  141OSM   H12T15356   0.969   6.317   2.730  2.0830  1.2234  1.9361
  141OSM   C13S15357   0.756   6.259   2.777 -0.7001  0.2807 -0.5951
  141OSM   H13S15358   0.759   6.180   2.698  0.7065 -1.1580  0.8350
  141OSM   H13T15359   0.657   6.308   2.765 -1.4920 -1.0260  0.3731
  141OSM   C14S15360   0.784   6.196   2.915  0.1084  0.3196  0.6083
  141OSM   H14S15361   0.883   6.145   2.919 -0.3427 -0.9474 -2.2008
  141OSM   H14T15362   0.710   6.114   2.930  1.2082 -0.4798  1.8940
  141OSM   C15S15363   0.764   6.283   3.032  0.1481  0.0600 -0.8729
  141OSM   H15S15364   0.671   6.343   3.020 -0.1743 -0.1518  0.4626
  141OSM   H15T15365   0.845   6.358   3.029  0.6330 -0.4687 -1.3031
  141OSM   C16S15366   0.765   6.222   3.171  0.2117  0.2890 -0.5687
  141OSM   H16S15367   0.862   6.172   3.190 -0.4811 -0.7084  0.4774
  141OSM   H16T15368   0.683   6.148   3.160  0.7170 -0.3417 -0.1842
  141OSM   C17S15369   0.720   6.322   3.284 -0.4788  0.3198  0.5796
  141OSM   H17S15370   0.628   6.379   3.260  0.7561  1.7083 -1.0498
  141OSM   H17T15371   0.805   6.392   3.277  1.5745 -2.1269 -0.9748
  141OSM   C18S15372   0.719   6.268   3.425  0.4564 -0.5297 -0.1812
  141OSM   H18S15373   0.815   6.215   3.442  1.3360  0.8194 -0.6923
  141OSM   H18T15374   0.647   6.184   3.431 -0.7974  0.4392 -1.0792
  141OSM   H18U15375   0.700   6.342   3.506 -0.1975 -0.1536 -0.6618
  141OSM    C1F15376   1.327   6.462   2.238 -0.2056 -0.4637 -0.4673
  141OSM     OF15377   1.413   6.534   2.191 -0.6222 -0.5566 -1.1337
  141OSM    C2F15378   1.311   6.400   2.375  0.0491  0.3843  0.0362
  141OSM    H2F15379   1.361   6.300   2.373 -0.6113  0.0488  0.0528
  141OSM    H2G15380   1.203   6.376   2.386 -0.0681  0.8499 -0.0903
  141OSM    C3F15381   1.359   6.488   2.492  0.6698  0.8230  0.0742
  141OSM    H3F15382   1.299   6.582   2.490 -0.7779 -0.0568  0.3817
  141OSM    H3G15383   1.467   6.512   2.491  0.6037  1.5530  2.5595
  141OSM    C4F15384   1.340   6.438   2.636  0.0128 -0.3224 -0.5013
  141OSM    H4F15385   1.418   6.361   2.658 -0.0214  0.0666  1.1146
  141OSM    H4G15386   1.245   6.380   2.633 -0.3449  0.2996 -1.5426
  141OSM    C5F15387   1.361   6.540   2.746  0.5208  0.8649  0.1603
  141OSM    H5F15388   1.294   6.623   2.715 -1.1405 -1.0258 -1.6554
  141OSM    H5G15389   1.464   6.582   2.742  0.9388 -0.1624 -0.1960
  141OSM    C6F15390   1.325   6.495   2.887  0.6199 -0.1639 -0.1349
  141OSM    H6F15391   1.221   6.457   2.876  0.7105 -0.9282  1.3150
  141OSM    H6G15392   1.312   6.591   2.942 -1.7521 -0.7110  0.3429
  141OSM    C7F15393   1.423   6.391   2.937 -0.2004 -0.5028  0.5565
  141OSM    H7F15394   1.435   6.402   3.047  0.0117 -0.7466  0.5605
  141OSM    H7G15395   1.522   6.413   2.892 -1.3276 -1.2308 -2.5478
  141OSM    C8F15396   1.389   6.240   2.918 -0.5517 -1.0885  0.5061
  141OSM    H8F15397   1.471   6.194   2.978  0.3461 -0.9465 -0.5853
  141OSM    H8G15398   1.406   6.222   2.810  1.3345  2.3994  0.0640
  141OSM    C9F15399   1.253   6.184   2.960 -0.0293 -0.3702 -0.0199
  141OSM    H9F15400   1.175   6.189   2.883  1.2660 -0.4294 -1.3772
  141OSM   C10F15401   1.217   6.129   3.079 -0.0644 -0.5674  0.1148
  141OSM   H10F15402   1.112   6.102   3.096 -0.4036 -0.8702 -2.1215
  141OSM   C11F15403   1.311   6.091   3.195  1.2167  0.2740 -0.1613
  141OSM   H11F15404   1.401   6.038   3.158 -1.0700 -2.9406 -1.6047
  141OSM   H11G15405   1.263   6.017   3.262  2.4932  1.9794  2.8515
  141OSM   C12F15406   1.346   6.208   3.282  0.2921 -0.6698 -0.5276
  141OSM   H12F15407   1.257   6.243   3.337 -0.0233  1.2922 -2.1519
  141OSM   H12G15408   1.385   6.297   3.228 -1.9490  0.1419 -0.9226
  141OSM   C13F15409   1.445   6.167   3.392  0.0174 -0.1117  0.4809
  141OSM   H13F15410   1.422   6.066   3.431  2.8607  0.6106  4.6538
  141OSM   H13G15411   1.433   6.244   3.472 -1.1662  0.4265 -0.1696
  141OSM   C14F15412   1.584   6.166   3.333 -0.2673 -0.2934  0.4823
  141OSM   H14F15413   1.599   6.267   3.289  0.1012  0.5835  2.5171
  141OSM   H14G15414   1.601   6.092   3.252  1.6071  1.4054 -0.7808
  141OSM   C15F15415   1.700   6.149   3.440 -0.3333 -0.5833  0.4146
  141OSM   H15F15416   1.713   6.230   3.515 -0.5060 -0.4270  0.2774
  141OSM   H15G15417   1.787   6.130   3.373 -0.0429 -0.3729  0.7283
  141OSM   C16F15418   1.681   6.016   3.515 -0.1111 -0.2438 -0.3109
  141OSM   H16F15419   1.675   5.936   3.439  0.6325 -0.7818  0.1883
  141OSM   H16G15420   1.591   6.019   3.580  0.2720 -1.6587  0.3115
  141OSM   C17F15421   1.801   5.987   3.602 -0.3119 -0.0230 -0.4764
  141OSM   H17F15422   1.857   6.082   3.620  0.9721 -0.7378 -0.5381
  141OSM   H17G15423   1.870   5.918   3.548 -2.6587 -0.6907 -2.7740
  141OSM   C18F15424   1.767   5.924   3.740  0.0168 -0.1011  0.1682
  141OSM   H18F15425   1.707   5.996   3.798 -0.8404  1.0998 -2.0757
  141OSM   H18G15426   1.864   5.900   3.790  0.1048 -2.6634 -1.0434
  141OSM   H18H15427   1.717   5.825   3.728  0.6726 -0.3467 -0.6614
  142OSM      N15428   1.002   1.422   1.593  0.5177  0.9067 -0.0899
  142OSM    C1515429   1.140   1.349   1.579  0.5432  0.2189 -0.1401
  142OSM   H15A15430   1.129   1.263   1.515 -1.4272 -0.8671  1.5311
  142OSM   H15B15431   1.185   1.318   1.672  1.2800  2.4671  0.3196
  142OSM   H15C15432   1.216   1.417   1.544 -0.8033  2.7364  1.5079
  142OSM    C1415433   0.980   1.495   1.461  0.2574 -0.4539 -0.0990
  142OSM   H14A15434   1.061   1.558   1.430 -1.0756  1.1860 -0.3812
  142OSM   H14B15435   0.888   1.552   1.462 -0.2936 -1.3087 -0.3566
  142OSM   H14C15436   0.976   1.421   1.382 -0.3567 -1.6306  0.9978
  142OSM    C1315437   0.898   1.312   1.606  0.1739  0.1819 -0.4658
  142OSM   H13A15438   0.808   1.364   1.637  0.6378  0.6435  0.1220
  142OSM   H13B15439   0.929   1.239   1.679 -0.1683 -1.2844 -1.7175
  142OSM   H13C15440   0.889   1.263   1.510  1.0445  0.5098 -0.7172
  142OSM    C1215441   0.986   1.518   1.711 -0.6866  0.0028  0.2497
  142OSM   H12A15442   0.901   1.582   1.690  1.2435  2.3088 -1.0771
  142OSM   H12B15443   1.063   1.592   1.695 -0.3066 -0.3934  0.2200
  142OSM    C1115444   1.014   1.471   1.857  0.1211  0.4623 -0.1218
  142OSM   H11A15445   0.931   1.411   1.901  1.0592 -0.9059 -0.1447
  142OSM   H11B15446   1.026   1.560   1.921  2.2360  1.2677 -1.5450
  142OSM      P15447   1.133   1.254   1.935 -0.0809 -0.6111  0.2974
  142OSM    O1315448   1.261   1.186   1.896  0.1091  0.2306 -0.1350
  142OSM    O1415449   1.114   1.271   2.082 -0.1227  0.2360 -0.3294
  142OSM    O1115450   1.006   1.191   1.868  0.3931  0.0221  0.1216
  142OSM    O1215451   1.136   1.395   1.864 -0.6552  0.2405 -0.5800
  142OSM    C1S15452   0.986   1.055   1.859  0.0246  0.0209 -0.3309
  142OSM    H1S15453   1.075   0.996   1.889 -0.3126 -1.2118 -1.6391
  142OSM    H1T15454   0.969   1.026   1.753  0.7913  2.1522 -1.0905
  142OSM     NF15455   0.855   0.878   1.985  0.7984 -0.3706 -0.0494
  142OSM    HNF15456   0.795   0.814   1.937  1.1178 -1.8303  1.4160
  142OSM    C2S15457   0.866   1.016   1.951  0.1000 -0.5413 -0.5961
  142OSM    H2S15458   0.865   1.076   2.045  0.0066 -2.2287  0.5469
  142OSM    C3S15459   0.734   1.068   1.880 -0.2382 -0.3751 -0.5460
  142OSM    H3S15460   0.728   1.020   1.780 -0.7288  1.3501 -1.4012
  142OSM     O315461   0.738   1.207   1.855 -0.1227 -0.5293  0.4545
  142OSM    HO315462   0.830   1.225   1.878 -0.2321  0.1146  0.4059
  142OSM    C4S15463   0.611   1.036   1.962 -0.4106  0.1418  0.1263
  142OSM    H4S15464   0.567   0.941   1.929  0.7436  0.0676 -1.3015
  142OSM    C5S15465   0.558   1.108   2.059  0.0528  0.0543 -0.1027
  142OSM    H5S15466   0.611   1.198   2.093  0.2119  1.3151 -3.2790
  142OSM    C6S15467   0.432   1.076   2.137 -0.2778  0.2373  1.3242
  142OSM    H6S15468   0.469   1.033   2.232 -0.0685 -2.7657 -0.0033
  142OSM    H6T15469   0.366   1.003   2.086 -0.4198  0.0567  1.7609
  142OSM    C7S15470   0.367   1.206   2.182  0.5021  0.3933  0.5522
  142OSM    H7S15471   0.275   1.187   2.241  1.4511  3.0857  3.1616
  142OSM    H7T15472   0.342   1.266   2.092  0.2005  1.4371  1.3208
  142OSM    C8S15473   0.440   1.298   2.267 -0.2390  0.4168 -0.4590
  142OSM    H8S15474   0.380   1.391   2.274 -0.0404  0.9837 -4.1946
  142OSM    H8T15475   0.529   1.345   2.218  0.4126  1.2030  1.3967
  142OSM    C9S15476   0.479   1.236   2.400  0.2128 -0.1296  0.0615
  142OSM    H9S15477   0.567   1.167   2.406  0.1032 -0.4853 -1.9480
  142OSM    H9T15478   0.396   1.163   2.412 -1.3486  1.6276  0.3341
  142OSM   C10S15479   0.493   1.324   2.521  0.3202  0.5167 -0.0790
  142OSM   H10S15480   0.409   1.394   2.540 -0.4007 -0.6192  1.1587
  142OSM   H10T15481   0.585   1.386   2.513  0.8372  0.0486  1.7788
  142OSM   C11S15482   0.516   1.242   2.656 -0.2276  0.2703 -0.2975
  142OSM   H11S15483   0.594   1.168   2.629  0.3057 -0.3174  2.4781
  142OSM   H11T15484   0.415   1.198   2.667 -0.5190  0.1129 -3.0740
  142OSM   C12S15485   0.572   1.314   2.782  0.4595 -0.0437  0.6035
  142OSM   H12S15486   0.506   1.398   2.814  0.8676  0.4963  0.0537
  142OSM   H12T15487   0.673   1.353   2.757  0.3208  0.1594  0.3568
  142OSM   C13S15488   0.599   1.234   2.906 -0.1718  0.3255  0.6271
  142OSM   H13S15489   0.666   1.147   2.890  0.8341  0.6105  2.8661
  142OSM   H13T15490   0.503   1.193   2.942 -0.7840 -0.1421 -1.4175
  142OSM   C14S15491   0.652   1.323   3.014  0.2008  0.4124 -0.2125
  142OSM   H14S15492   0.593   1.417   3.013 -0.1116  0.2313 -2.0691
  142OSM   H14T15493   0.750   1.355   2.970  0.5663 -0.6355 -0.1787
  142OSM   C15S15494   0.656   1.270   3.152  0.2595  0.6110  0.6933
  142OSM   H15S15495   0.718   1.179   3.139 -0.4514  0.3289 -0.9771
  142OSM   H15T15496   0.555   1.231   3.178 -1.4705  2.4394 -2.6042
  142OSM   C16S15497   0.718   1.370   3.249  0.1159  0.0598  0.1213
  142OSM   H16S15498   0.677   1.472   3.234 -1.3586 -0.4719  0.3706
  142OSM   H16T15499   0.818   1.373   3.201  0.1312 -1.5525 -0.0176
  142OSM   C17S15500   0.719   1.341   3.397  0.3126  0.0645 -0.4823
  142OSM   H17S15501   0.765   1.429   3.448  1.2046  0.1071 -1.3189
  142OSM   H17T15502   0.790   1.257   3.408 -1.3217 -1.7512 -2.8262
  142OSM   C18S15503   0.584   1.331   3.476  0.5138  0.0893  0.2167
  142OSM   H18S15504   0.535   1.236   3.448  1.8611 -0.1894 -1.3422
  142OSM   H18T15505   0.517   1.415   3.446 -0.3861 -0.1742  1.4304
  142OSM   H18U15506   0.602   1.344   3.585  2.4010 -0.3927  0.0026
  142OSM    C1F15507   0.938   0.825   2.070  0.0368  0.7278 -0.0437
  142OSM     OF15508   1.047   0.873   2.089 -0.3703  0.2033 -0.2318
  142OSM    C2F15509   0.882   0.705   2.136 -0.7393  0.1168 -0.2505
  142OSM    H2F15510   0.879   0.622   2.062 -0.2195 -0.6925  0.6173
  142OSM    H2G15511   0.782   0.727   2.180  0.7980  0.8540  3.1557
  142OSM    C3F15512   0.975   0.660   2.245  0.4976  0.6940  0.2587
  142OSM    H3F15513   1.010   0.728   2.327 -0.3067  0.1463  1.0739
  142OSM    H3G15514   1.070   0.634   2.195  0.8496 -2.2904  2.2252
  142OSM    C4F15515   0.924   0.532   2.314  0.8319  0.1223  0.6047
  142OSM    H4F15516   1.007   0.467   2.349 -0.9166 -2.0818  0.8723
  142OSM    H4G15517   0.868   0.463   2.247  1.5088  1.1122 -1.0416
  142OSM    C5F15518   0.836   0.570   2.436 -0.2853  0.1070  0.0960
  142OSM    H5F15519   0.754   0.495   2.436 -1.2141  1.0487 -1.5289
  142OSM    H5G15520   0.798   0.674   2.437  2.2404  1.1091  1.3301
  142OSM    C6F15521   0.914   0.542   2.569  0.2247 -0.0835 -0.2770
  142OSM    H6F15522   1.009   0.596   2.548  0.2642 -0.8372 -2.2365
  142OSM    H6G15523   0.919   0.433   2.589 -0.8011 -0.2650 -0.9267
  142OSM    C7F15524   0.849   0.616   2.693 -0.6283  0.3923 -0.5735
  142OSM    H7F15525   0.750   0.654   2.660 -1.4250 -0.5038  0.7056
  142OSM    H7G15526   0.915   0.701   2.721  1.5741 -1.2411 -0.4717
  142OSM    C8F15527   0.831   0.530   2.818  0.0235  0.3045  0.0134
  142OSM    H8F15528   0.921   0.464   2.818  1.1775  1.8037 -1.3028
  142OSM    H8G15529   0.745   0.461   2.805  0.1383 -0.0334  0.9519
  142OSM    C9F15530   0.795   0.604   2.936 -0.8253 -0.0132 -0.2051
  142OSM    H9F15531   0.776   0.712   2.927 -0.3222  0.3238  2.0072
  142OSM   C10F15532   0.788   0.562   3.061  0.2375 -0.0791 -0.2313
  142OSM   H10F15533   0.774   0.631   3.146 -0.3919 -0.5835  0.0848
  142OSM   C11F15534   0.813   0.424   3.115 -0.5679  0.4580  0.5562
  142OSM   H11F15535   0.908   0.397   3.065 -0.4534  3.6582 -1.1458
  142OSM   H11G15536   0.738   0.359   3.064  0.6452  2.1654 -3.7610
  142OSM   C12F15537   0.833   0.404   3.263 -0.8061 -0.1226 -0.6201
  142OSM   H12F15538   0.868   0.300   3.281 -1.7684 -0.1465  1.4471
  142OSM   H12G15539   0.749   0.425   3.332 -0.1923 -2.4063  0.9623
  142OSM   C13F15540   0.950   0.484   3.321 -0.7461 -0.2531 -0.1090
  142OSM   H13F15541   0.942   0.589   3.285 -0.0869 -0.3326 -0.5008
  142OSM   H13G15542   1.040   0.443   3.271 -1.3674  0.3249 -1.8038
  142OSM   C14F15543   0.962   0.482   3.476  0.0394  0.2750  0.4362
  142OSM   H14F15544   0.867   0.449   3.524  0.1608  0.6300  0.9240
  142OSM   H14G15545   0.993   0.582   3.513 -1.6999  1.2220 -0.4918
  142OSM   C15F15546   1.056   0.378   3.540  0.4762 -0.3350  1.0367
  142OSM   H15F15547   1.160   0.405   3.512  1.0368 -1.8047  1.6059
  142OSM   H15G15548   1.035   0.286   3.483  0.6830  0.4914 -0.4218
  142OSM   C16F15549   1.027   0.376   3.689  0.2327  0.5566 -0.5355
  142OSM   H16F15550   0.920   0.357   3.714  0.3468 -3.2929 -2.2435
  142OSM   H16G15551   1.062   0.472   3.732  0.4177  1.1402 -1.9332
  142OSM   C17F15552   1.119   0.265   3.749  0.0931  0.3207  0.1217
  142OSM   H17F15553   1.222   0.271   3.706 -0.2488  1.2881 -0.5995
  142OSM   H17G15554   1.074   0.171   3.709 -0.6235  0.8803 -0.4138
  142OSM   C18F15555   1.124   0.281   3.900 -0.0635 -0.6827  1.4513
  142OSM   H18F15556   1.179   0.199   3.952 -0.7788 -1.5608  0.8523
  142OSM   H18G15557   1.022   0.280   3.943 -1.3505 -0.7097 -1.3795
  142OSM   H18H15558   1.171   0.374   3.938 -1.2458  0.1282  0.9808
  143OSM      N15559   1.229   5.786   1.791  0.3287  0.1352  0.0354
  143OSM    C1515560   1.283   5.687   1.890  0.3390 -1.0434 -0.4978
  143OSM   H15A15561   1.293   5.591   1.841  1.8273 -0.5080 -1.3015
  143OSM   H15B15562   1.227   5.696   1.982 -0.3621  3.1729 -1.1137
  143OSM   H15C15563   1.385   5.717   1.910  0.3667 -0.3324 -1.6056
  143OSM    C1415564   1.321   5.784   1.668 -0.7273 -0.7240  0.0288
  143OSM   H14A15565   1.271   5.829   1.584  2.0039  1.1501 -0.7459
  143OSM   H14B15566   1.346   5.684   1.635 -4.8751 -1.3050 -1.9901
  143OSM   H14C15567   1.406   5.845   1.696 -3.1206  1.2150  3.8509
  143OSM    C1315568   1.094   5.742   1.743 -0.0218 -0.3063 -0.4046
  143OSM   H13A15569   1.023   5.720   1.821 -1.5222  1.5547 -1.1541
  143OSM   H13B15570   1.106   5.652   1.684  0.0869 -1.8055  1.7926
  143OSM   H13C15571   1.047   5.817   1.680 -0.8096 -0.8179 -0.4448
  143OSM    C1215572   1.231   5.923   1.844 -0.8093  0.0160  0.0511
  143OSM   H12A15573   1.189   5.990   1.771  2.1018 -0.3427 -2.1289
  143OSM   H12B15574   1.334   5.947   1.867 -1.2858 -0.3356  2.8814
  143OSM    C1115575   1.154   5.946   1.976  0.0432  0.2436 -0.4620
  143OSM   H11A15576   1.174   6.053   1.998 -2.9493  0.7786  0.1457
  143OSM   H11B15577   1.208   5.888   2.054  1.8486  1.4708 -0.7450
  143OSM      P15578   0.915   6.006   1.893 -0.2042  0.3780 -0.0509
  143OSM    O1315579   0.994   6.081   1.791 -0.5528 -0.1062  0.6389
  143OSM    O1415580   0.802   5.924   1.842  0.6261  0.0614  0.0528
  143OSM    O1115581   0.873   6.110   2.005  0.0860 -0.1177 -0.3602
  143OSM    O1215582   1.010   5.913   1.979  0.5603  0.6173  0.1551
  143OSM    C1S15583   0.795   6.073   2.118  0.5405 -0.4723  0.4803
  143OSM    H1S15584   0.717   6.000   2.089  1.1065 -2.0694  2.7128
  143OSM    H1T15585   0.743   6.167   2.146  1.3370 -0.0148  0.4834
  143OSM     NF15586   0.768   5.979   2.354 -0.4340  0.4173  0.6610
  143OSM    HNF15587   0.775   6.008   2.449  2.9383  1.9755  0.1103
  143OSM    C2S15588   0.867   6.024   2.251  0.1845 -0.0837 -0.0039
  143OSM    H2S15589   0.928   5.941   2.212 -0.3161 -0.2415 -0.4647
  143OSM    C3S15590   0.976   6.131   2.291 -0.5506  0.4853 -0.0043
  143OSM    H3S15591   0.915   6.219   2.317 -1.3303 -0.1851  0.4902
  143OSM     O315592   1.067   6.178   2.191  0.0911  0.1563 -0.0799
  143OSM    HO315593   1.026   6.162   2.105  1.3358 -0.8505 -0.5285
  143OSM    C4S15594   1.051   6.073   2.403 -0.1713  0.6757  0.5813
  143OSM    H4S15595   1.073   5.967   2.386  2.9285  1.3582 -0.2266
  143OSM    C5S15596   1.079   6.121   2.524  0.2636 -0.8585  0.6069
  143OSM    H5S15597   1.040   6.220   2.552  0.7220 -0.5607  0.2298
  143OSM    C6S15598   1.149   6.032   2.622  0.0474 -0.4248  0.2253
  143OSM    H6S15599   1.206   6.092   2.696  0.9408 -0.6507 -0.2695
  143OSM    H6T15600   1.216   5.965   2.565  0.3927  1.8750 -2.2689
  143OSM    C7S15601   1.040   5.949   2.701  0.2232  0.0215  0.7073
  143OSM    H7S15602   0.989   5.878   2.633 -0.8867  2.1462 -0.8195
  143OSM    H7T15603   0.964   6.024   2.734  0.5776  0.3834  0.7037
  143OSM    C8S15604   1.086   5.868   2.820 -0.2809  0.2234  0.5027
  143OSM    H8S15605   1.150   5.938   2.877 -1.6120  2.2931 -0.4416
  143OSM    H8T15606   1.152   5.788   2.780 -0.7087  0.1359 -0.0461
  143OSM    C9S15607   0.972   5.815   2.904 -0.1731  0.4925  0.7454
  143OSM    H9S15608   0.919   5.903   2.945  0.5404  0.7568  1.1134
  143OSM    H9T15609   1.016   5.762   2.991  1.4222  2.5520  1.2673
  143OSM   C10S15610   0.850   5.738   2.839 -0.2745 -0.0646 -0.2589
  143OSM   H10S15611   0.887   5.680   2.751 -0.1262 -0.3396 -0.0185
  143OSM   H10T15612   0.775   5.813   2.808 -1.0336 -0.0628  1.4850
  143OSM   C11S15613   0.764   5.653   2.943  0.9604 -0.0211 -0.3639
  143OSM   H11S15614   0.831   5.575   2.985  0.9597 -0.0111 -0.3446
  143OSM   H11T15615   0.684   5.611   2.878  1.0239  1.1247 -1.2181
  143OSM   C12S15616   0.698   5.737   3.056  0.1262 -1.3387  0.5165
  143OSM   H12S15617   0.673   5.838   3.017  0.6955 -1.3111  0.1903
  143OSM   H12T15618   0.772   5.745   3.138  0.6148  0.0568 -0.0260
  143OSM   C13S15619   0.579   5.672   3.119  0.5075 -0.4878 -0.4125
  143OSM   H13S15620   0.593   5.565   3.145 -0.4250 -0.9561 -1.7295
  143OSM   H13T15621   0.494   5.680   3.049 -1.3578 -0.0205  1.7604
  143OSM   C14S15622   0.523   5.745   3.245  0.3949  0.4521 -0.1359
  143OSM   H14S15623   0.413   5.733   3.247  0.0068  3.3675 -0.2306
  143OSM   H14T15624   0.527   5.856   3.241  0.6883  0.4610  0.2878
  143OSM   C15S15625   0.585   5.686   3.373 -0.6066 -0.3393 -0.0318
  143OSM   H15S15626   0.695   5.700   3.368 -0.6995  2.3116  2.6644
  143OSM   H15T15627   0.550   5.580   3.374 -2.0203  0.0897  1.7403
  143OSM   C16S15628   0.547   5.748   3.505  0.0052 -0.4407  0.3867
  143OSM   H16S15629   0.576   5.681   3.589  1.5646 -0.6754 -0.2992
  143OSM   H16T15630   0.436   5.745   3.498 -0.0030 -1.3588  0.8292
  143OSM   C17S15631   0.601   5.884   3.535 -0.1945 -0.4264  0.4107
  143OSM   H17S15632   0.574   5.954   3.453  1.1328  0.6006  0.8096
  143OSM   H17T15633   0.711   5.871   3.543 -0.0456  0.6189  0.3239
  143OSM   C18S15634   0.563   5.938   3.673  0.3977 -0.0262  0.5898
  143OSM   H18S15635   0.643   6.009   3.703  1.2446  0.6187 -2.7551
  143OSM   H18T15636   0.558   5.854   3.746  0.3667 -0.7278 -0.1948
  143OSM   H18U15637   0.460   5.980   3.673  0.2212 -0.4470  1.5456
  143OSM    C1F15638   0.672   5.887   2.329  0.2445  0.2258 -0.4025
  143OSM     OF15639   0.673   5.807   2.241  0.0992 -0.6618 -0.5677
  143OSM    C2F15640   0.571   5.873   2.437 -0.2202 -0.6989  0.0158
  143OSM    H2F15641   0.492   5.805   2.399 -0.8360 -1.4299  2.4403
  143OSM    H2G15642   0.532   5.976   2.453 -0.4817 -0.2311 -2.9810
  143OSM    C3F15643   0.625   5.819   2.574  0.6123 -0.6792  0.1691
  143OSM    H3F15644   0.702   5.885   2.619 -0.9924 -0.7188  3.2905
  143OSM    H3G15645   0.663   5.716   2.554  0.7350 -0.6401  0.1998
  143OSM    C4F15646   0.522   5.817   2.688 -0.4362  0.5752  0.0082
  143OSM    H4F15647   0.535   5.738   2.764 -1.1170 -0.2954 -0.7584
  143OSM    H4G15648   0.424   5.794   2.641 -1.2310 -0.3869  2.0310
  143OSM    C5F15649   0.522   5.963   2.746  0.7958 -0.3720 -0.3808
  143OSM    H5F15650   0.532   6.041   2.668 -1.2009  2.2763  1.7889
  143OSM    H5G15651   0.607   5.976   2.817  0.2811  0.1675  0.1414
  143OSM    C6F15652   0.393   5.989   2.830 -0.6120  0.2210 -0.4180
  143OSM    H6F15653   0.383   5.902   2.899 -1.0806 -0.7487 -1.6706
  143OSM    H6G15654   0.301   5.988   2.767 -1.7726  0.0106  1.1881
  143OSM    C7F15655   0.413   6.128   2.901  0.1351  0.5628  0.1750
  143OSM    H7F15656   0.475   6.192   2.834  1.4417 -1.0887 -0.2366
  143OSM    H7G15657   0.484   6.109   2.985 -1.5924 -2.6487  1.0644
  143OSM    C8F15658   0.281   6.189   2.955 -0.4048 -0.7107  0.0621
  143OSM    H8F15659   0.223   6.113   3.011 -1.2648 -0.3527 -0.3219
  143OSM    H8G15660   0.206   6.219   2.878 -0.2143  0.6845  0.3838
  143OSM    C9F15661   0.304   6.304   3.050  0.3576 -0.4332 -0.0697
  143OSM    H9F15662   0.290   6.405   3.008 -0.2466 -0.6690 -0.4419
  143OSM   C10F15663   0.347   6.290   3.174  0.5870 -1.0040 -0.7359
  143OSM   H10F15664   0.374   6.382   3.228  0.0181 -1.2774  0.0329
  143OSM   C11F15665   0.380   6.162   3.250 -0.1802  0.0264 -0.4479
  143OSM   H11F15666   0.487   6.160   3.279 -0.1987 -2.3988 -0.3416
  143OSM   H11G15667   0.360   6.069   3.192 -1.3918  1.1783 -1.9554
  143OSM   C12F15668   0.303   6.132   3.384 -0.1473 -0.2651  0.1109
  143OSM   H12F15669   0.337   6.035   3.427 -0.1333 -0.6422 -0.7381
  143OSM   H12G15670   0.195   6.111   3.371 -0.1054  0.0918 -0.8891
  143OSM   C13F15671   0.320   6.241   3.485  0.1414 -0.3512  0.1518
  143OSM   H13F15672   0.278   6.335   3.444  1.5667  0.8433  1.3353
  143OSM   H13G15673   0.428   6.253   3.508  0.7181 -0.9504 -2.0035
  143OSM   C14F15674   0.247   6.206   3.614 -0.1246  0.2439  0.1420
  143OSM   H14F15675   0.256   6.100   3.644 -1.3499 -0.0169 -0.3504
  143OSM   H14G15676   0.139   6.217   3.593 -0.1592  0.1625  0.2794
  143OSM   C15F15677   0.288   6.284   3.740  0.1080 -0.1288  0.5818
  143OSM   H15F15678   0.287   6.394   3.722 -1.3272 -0.4197 -1.4463
  143OSM   H15G15679   0.392   6.247   3.755 -0.5939 -2.1982  0.6774
  143OSM   C16F15680   0.189   6.269   3.865 -0.0595 -0.0787  0.5303
  143OSM   H16F15681   0.179   6.161   3.892  2.0250  0.6540  5.3948
  143OSM   H16G15682   0.093   6.320   3.843  0.7630  2.0150  1.5397
  143OSM   C17F15683   0.244   6.313   4.000  0.0393 -0.7594  0.3931
  143OSM   H17F15684   0.309   6.232   4.039  0.6813 -1.5047 -2.0053
  143OSM   H17G15685   0.158   6.312   4.070  0.7515 -2.4881  1.3127
  143OSM   C18F15686   0.307   6.452   3.999  0.6847 -0.2375 -0.5341
  143OSM   H18F15687   0.326   6.480   4.105  2.6582 -1.2604 -0.5651
  143OSM   H18G15688   0.250   6.531   3.947 -1.1241  0.2554  2.0007
  143OSM   H18H15689   0.404   6.431   3.949  0.6300 -1.3665 -0.1976
  144OSM      N15690   6.728   6.843   1.640 -0.2274 -0.1496  0.1090
  144OSM    C1515691   6.722   6.693   1.634  0.4993  0.7747  0.0009
  144OSM   H15A15692   6.735   6.639   1.727  2.5139  1.0599 -0.0701
  144OSM   H15B15693   6.800   6.657   1.568 -0.9158 -1.7330 -0.4094
  144OSM   H15C15694   6.631   6.662   1.586  0.1327 -1.3282  1.8830
  144OSM    C1415695   6.714   6.892   1.496  0.2505 -0.4789  0.2063
  144OSM   H14A15696   6.808   6.870   1.447  1.2316 -2.1774  2.6727
  144OSM   H14B15697   6.700   6.998   1.481 -0.0067 -0.8004 -2.3314
  144OSM   H14C15698   6.629   6.843   1.451  0.3146 -0.1841 -0.2477
  144OSM    C1315699   6.604   6.886   1.715 -0.1116 -0.7432  0.5059
  144OSM   H13A15700   6.590   6.992   1.698  0.3831 -0.7626 -0.0660
  144OSM   H13B15701   6.622   6.865   1.819  0.1853  0.2207  0.6605
  144OSM   H13C15702   6.511   6.842   1.682 -0.8048  1.5867 -0.9638
  144OSM    C1215703   6.848   6.897   1.702 -0.3970  0.2384 -0.8736
  144OSM   H12A15704   6.849   6.862   1.805  0.0143  0.9026 -0.6484
  144OSM   H12B15705   6.834   7.004   1.704  0.9760  0.4453 -1.2590
  144OSM    C1115706   6.981   6.867   1.624  1.0576  0.4672  0.5278
  144OSM   H11A15707   6.985   6.760   1.595  0.1566  0.6269 -0.2191
  144OSM   H11B15708   7.062   6.877   1.700  0.9411 -1.1164  0.8794
  144OSM      P15709   7.099   7.064   1.512 -0.1293  0.1079  0.0708
  144OSM    O1315710   7.235   7.003   1.511  0.2061  0.1974  0.1679
  144OSM    O1415711   7.069   7.174   1.420 -0.0493  0.3381  0.3470
  144OSM    O1115712   7.086   7.117   1.660 -0.9306 -0.1986 -0.2126
  144OSM    O1215713   7.002   6.942   1.503 -0.2252 -0.4058  0.3235
  144OSM    C1S15714   6.991   7.216   1.696  0.0168 -0.5801 -0.6008
  144OSM    H1S15715   6.908   7.223   1.622  0.0687  2.6122 -0.4911
  144OSM    H1T15716   7.032   7.319   1.685 -1.9398  0.1445 -1.6742
  144OSM     NF15717   6.839   7.294   1.862  0.8493 -0.5879 -0.4778
  144OSM    HNF15718   6.855   7.391   1.881 -0.7623 -0.3416 -0.2281
  144OSM    C2S15719   6.946   7.202   1.846 -0.3872 -0.2827 -0.3786
  144OSM    H2S15720   6.928   7.093   1.856  2.3896 -0.7159  1.0395
  144OSM    C3S15721   7.066   7.232   1.946  0.1780 -0.5414 -0.1088
  144OSM    H3S15722   7.102   7.336   1.934  0.5076 -0.4944  1.1787
  144OSM     O315723   7.178   7.154   1.903  0.2092  0.5802 -0.2207
  144OSM    HO315724   7.151   7.108   1.823 -2.7537  0.0961  0.9175
  144OSM    C4S15725   7.032   7.206   2.092 -0.7878  0.3453 -0.4751
  144OSM    H4S15726   7.022   7.100   2.117  1.4897  0.0564 -0.5279
  144OSM    C5S15727   7.018   7.295   2.196  0.7416 -0.2514  0.2217
  144OSM    H5S15728   7.025   7.402   2.172 -1.8600 -0.0465  0.1142
  144OSM    C6S15729   6.984   7.266   2.338 -0.6371  0.2556 -0.1494
  144OSM    H6S15730   6.890   7.312   2.374 -0.7392  0.4473 -0.6685
  144OSM    H6T15731   7.065   7.310   2.401  1.6382 -0.2369 -2.5331
  144OSM    C7S15732   6.975   7.115   2.380 -0.0865  0.6529  0.2926
  144OSM    H7S15733   7.073   7.070   2.352 -0.4901  0.3035 -0.5788
  144OSM    H7T15734   6.894   7.059   2.330 -0.1510  1.4457 -0.5241
  144OSM    C8S15735   6.960   7.098   2.532  0.2686 -0.5962 -0.8250
  144OSM    H8S15736   7.045   7.146   2.586 -2.0581  0.4794  2.2023
  144OSM    H8T15737   6.966   6.993   2.566  0.2756 -0.5537 -0.6913
  144OSM    C9S15738   6.819   7.135   2.579  0.0729  0.6277 -0.6451
  144OSM    H9S15739   6.741   7.098   2.509 -0.4702 -1.3214  0.8986
  144OSM    H9T15740   6.816   7.246   2.581  1.9936  0.7226  2.0260
  144OSM   C10S15741   6.787   7.082   2.724 -0.3731 -0.0398 -0.5667
  144OSM   H10S15742   6.800   6.971   2.727  3.0691  0.2606 -0.5175
  144OSM   H10T15743   6.684   7.113   2.750 -0.0453  0.1484  0.5558
  144OSM   C11S15744   6.872   7.135   2.841 -0.4597 -0.2405  0.5422
  144OSM   H11S15745   6.888   7.243   2.821  0.7617 -0.5601 -0.3204
  144OSM   H11T15746   6.973   7.090   2.843  1.0037  2.6454 -1.3672
  144OSM   C12S15747   6.807   7.131   2.979 -0.1735 -0.3837 -0.7458
  144OSM   H12S15748   6.798   7.025   3.011 -0.2020  0.0862  0.9126
  144OSM   H12T15749   6.705   7.175   2.981  0.9637  2.4115 -0.0854
  144OSM   C13S15750   6.890   7.210   3.084  0.1983  0.9929 -0.1719
  144OSM   H13S15751   6.839   7.219   3.183  0.2178  1.5694 -0.2128
  144OSM   H13T15752   6.899   7.315   3.050  0.8690  0.2219 -2.5566
  144OSM   C14S15753   7.027   7.153   3.110  0.3141 -0.0202  0.1344
  144OSM   H14S15754   7.107   7.196   3.046  0.4808 -1.0424 -0.3495
  144OSM   H14T15755   7.020   7.044   3.094 -1.0276  0.1036 -0.2497
  144OSM   C15S15756   7.077   7.161   3.258 -0.8173  0.5299  0.1249
  144OSM   H15S15757   7.020   7.097   3.329 -0.2042 -1.7285 -1.3126
  144OSM   H15T15758   7.077   7.268   3.287  0.0571  1.5608 -3.2398
  144OSM   C16S15759   7.225   7.117   3.253  0.3440 -0.1664  0.1617
  144OSM   H16S15760   7.278   7.158   3.165 -1.1884  0.0232 -0.7159
  144OSM   H16T15761   7.229   7.006   3.240 -0.5166 -0.5568  2.6114
  144OSM   C17S15762   7.296   7.151   3.388  0.5001  0.7597 -0.6736
  144OSM   H17S15763   7.268   7.247   3.437  1.1734  0.4661  0.3186
  144OSM   H17T15764   7.399   7.177   3.357  0.9926  0.3320  0.5242
  144OSM   C18S15765   7.305   7.033   3.487 -0.0946  0.4526  0.0554
  144OSM   H18S15766   7.248   6.947   3.447 -2.4371  1.0981  1.7627
  144OSM   H18T15767   7.254   7.068   3.579 -2.1297 -3.4532  0.6090
  144OSM   H18U15768   7.412   7.006   3.504  0.0429 -0.2532 -1.7361
  144OSM    C1F15769   6.709   7.258   1.840  0.1820  0.8113  0.2096
  144OSM     OF15770   6.672   7.158   1.782 -0.4063  0.0544  0.0918
  144OSM    C2F15771   6.613   7.369   1.864 -0.2026  0.8249  0.1953
  144OSM    H2F15772   6.508   7.331   1.860 -1.0287  2.9999 -0.0618
  144OSM    H2G15773   6.615   7.446   1.784  1.3880  1.4177  0.7615
  144OSM    C3F15774   6.635   7.451   1.994  0.3700  0.1922 -0.4170
  144OSM    H3F15775   6.565   7.535   2.012  0.6814  0.3863 -0.0906
  144OSM    H3G15776   6.733   7.501   2.003  1.5281 -1.9867 -0.0264
  144OSM    C4F15777   6.626   7.359   2.117  1.0236  0.0494 -0.5626
  144OSM    H4F15778   6.704   7.382   2.192  4.3601 -1.8216 -3.1516
  144OSM    H4G15779   6.640   7.250   2.098 -1.3057 -0.4102  0.0474
  144OSM    C5F15780   6.478   7.359   2.172 -0.2678 -0.1951  0.5095
  144OSM    H5F15781   6.415   7.304   2.099 -1.9030  2.2951 -0.0922
  144OSM    H5G15782   6.428   7.458   2.187  0.0398 -0.1145  1.0497
  144OSM    C6F15783   6.453   7.283   2.302  0.3190  0.8139  0.4271
  144OSM    H6F15784   6.463   7.173   2.309 -2.7695  0.4502  0.2426
  144OSM    H6G15785   6.349   7.309   2.328  0.5851  0.8806  1.4512
  144OSM    C7F15786   6.528   7.340   2.413  0.0246 -1.3066  0.0639
  144OSM    H7F15787   6.518   7.450   2.410 -0.0645 -1.2940  0.5844
  144OSM    H7G15788   6.635   7.329   2.385  0.7208  1.3560  1.3315
  144OSM    C8F15789   6.499   7.291   2.556  0.9990  0.5410 -0.1857
  144OSM    H8F15790   6.579   7.300   2.633 -1.8843 -0.0887  3.1878
  144OSM    H8G15791   6.511   7.182   2.537  1.1839  0.2237  1.5581
  144OSM    C9F15792   6.362   7.331   2.620 -0.0513 -1.2431 -0.2628
  144OSM    H9F15793   6.277   7.309   2.553 -0.0286  1.6912 -1.4101
  144OSM   C10F15794   6.353   7.386   2.744  0.1781 -0.1732 -0.6662
  144OSM   H10F15795   6.248   7.400   2.775 -0.1287 -1.6306 -0.9965
  144OSM   C11F15796   6.464   7.431   2.845 -0.2300 -0.5006 -0.7011
  144OSM   H11F15797   6.492   7.534   2.816 -1.2707  0.1920  0.6395
  144OSM   H11G15798   6.549   7.360   2.836  0.0364 -0.3475  0.4857
  144OSM   C12F15799   6.404   7.440   2.989  0.9860 -0.0966  0.7736
  144OSM   H12F15800   6.333   7.356   3.006 -0.7361  1.7300  3.3260
  144OSM   H12G15801   6.339   7.530   2.993  1.6062  0.5051 -1.2820
  144OSM   C13F15802   6.508   7.430   3.099 -0.7689  0.0345 -0.0902
  144OSM   H13F15803   6.577   7.518   3.101  0.4484 -0.7971 -2.4185
  144OSM   H13G15804   6.577   7.345   3.080  1.0540  1.4372  0.0325
  144OSM   C14F15805   6.450   7.420   3.237  0.5715 -0.2633  0.7990
  144OSM   H14F15806   6.365   7.349   3.232 -1.3643  1.9980 -0.6428
  144OSM   H14G15807   6.402   7.516   3.264  3.7692  1.2513  1.5862
  144OSM   C15F15808   6.540   7.367   3.349 -0.0821  0.5308 -0.1936
  144OSM   H15F15809   6.541   7.446   3.427  0.5436  1.5313 -1.1764
  144OSM   H15G15810   6.646   7.361   3.317  0.7609  2.5518  1.9749
  144OSM   C16F15811   6.496   7.236   3.418 -0.7214 -0.0139  0.0070
  144OSM   H16F15812   6.486   7.166   3.332 -3.3743  0.1755  0.0944
  144OSM   H16G15813   6.404   7.246   3.479  0.2661 -0.2012  1.5776
  144OSM   C17F15814   6.596   7.181   3.510 -0.0355  0.4749  0.1200
  144OSM   H17F15815   6.597   7.242   3.603  0.3121 -0.1405  0.5292
  144OSM   H17G15816   6.700   7.181   3.471  0.0128 -0.1460  0.2385
  144OSM   C18F15817   6.567   7.032   3.530  0.7086 -0.0070  0.2388
  144OSM   H18F15818   6.465   7.021   3.573 -0.6052  1.3012 -2.3192
  144OSM   H18G15819   6.641   6.980   3.594  2.7947  2.5128  0.0193
  144OSM   H18H15820   6.575   6.983   3.430  0.0249  1.7546 -0.7312
  145SAPE     N15821   2.168   2.897   5.932  0.5136 -0.0623 -0.5565
  145SAPE   HN115822   2.263   2.875   5.967  1.6325 -0.0438 -3.3657
  145SAPE   HN215823   2.089   2.843   5.973  1.6442  0.0075  1.9236
  145SAPE   HN315824   2.169   2.884   5.829  0.6506 -0.5146 -0.4995
  145SAPE   C1215825   2.155   3.043   5.956  0.3764 -0.7988  0.3534
  145SAPE  H12A15826   2.227   3.097   5.891 -1.4172  2.1551  0.6113
  145SAPE  H12B15827   2.161   3.073   6.063 -2.8722  1.2352  0.1161
  145SAPE   C1115828   2.021   3.089   5.902  0.1594 -0.0091 -0.4677
  145SAPE  H11A15829   2.021   3.068   5.793  1.2831  1.4910 -0.7923
  145SAPE  H11B15830   2.019   3.200   5.907 -0.4448 -0.0481  0.4372
  145SAPE     P15831   1.842   3.102   6.088  0.1401 -0.1211 -0.2245
  145SAPE   O1315832   1.751   3.008   6.155  0.5623 -0.5084 -0.8798
  145SAPE   O1415833   1.956   3.157   6.167  0.3215 -0.2251  0.7439
  145SAPE   O1215834   1.921   3.027   5.971  0.2865  0.0454 -0.2548
  145SAPE   O1115835   1.763   3.211   6.013 -0.4474 -0.7950  0.1152
  145SAPE    C115836   1.677   3.166   5.905  0.5366  0.1168  0.2452
  145SAPE    HA15837   1.723   3.086   5.844 -0.4662 -0.6281  0.4324
  145SAPE    HB15838   1.578   3.128   5.940  1.5390 -0.2684  2.8667
  145SAPE    C215839   1.648   3.288   5.817 -0.2627  0.2780  0.6461
  145SAPE    HS15840   1.607   3.364   5.886 -1.6133  0.0586  0.1203
  145SAPE   O2115841   1.541   3.251   5.728  0.1636  0.1229  1.0000
  145SAPE   C2115842   1.502   3.337   5.637  0.8034  1.0047 -0.4474
  145SAPE   O2215843   1.528   3.454   5.628 -0.7037  0.2956 -0.0702
  145SAPE   C2215844   1.383   3.271   5.562 -0.7785 -0.2432  0.0363
  145SAPE   H2R15845   1.312   3.349   5.527  0.8548  1.3232  0.0826
  145SAPE   H2S15846   1.419   3.227   5.467 -0.1351  0.1526  0.0932
  145SAPE    C315847   1.775   3.339   5.742  0.5264 -0.4790  0.3416
  145SAPE    HX15848   1.854   3.375   5.811 -0.7031  0.4623  1.3069
  145SAPE    HY15849   1.752   3.437   5.694 -0.5863 -0.9181 -0.0695
  145SAPE   O3115850   1.819   3.242   5.644  0.0238  0.0425  0.2910
  145SAPE   C3115851   1.941   3.257   5.609 -0.2394 -0.9501 -0.3581
  145SAPE   O3215852   2.021   3.342   5.648  0.2983  0.0512  0.0536
  145SAPE   C3215853   1.961   3.167   5.487  0.2237  0.0812 -0.4585
  145SAPE   H2X15854   1.891   3.211   5.413  0.9612  0.1090 -1.1629
  145SAPE   H2Y15855   1.920   3.066   5.508 -2.1389  0.8490 -1.0555
  145SAPE   C2315856   1.305   3.166   5.641  0.2872 -0.2020  0.1852
  145SAPE   H3R15857   1.283   3.200   5.745  2.5229 -2.9838  1.6777
  145SAPE   H3S15858   1.372   3.083   5.669 -1.4966 -0.8550  2.8323
  145SAPE   C2415859   1.175   3.125   5.575 -0.3873 -0.3631 -0.0190
  145SAPE   H4R15860   1.106   3.211   5.560  1.2759  1.2503  1.0439
  145SAPE   H4S15861   1.120   3.062   5.649  0.0587 -0.1781  0.4757
  145SAPE   C2515862   1.191   3.048   5.447 -0.0095  0.1979 -0.5177
  145SAPE   H5R15863   1.282   2.986   5.440 -0.3755 -0.3986 -0.0863
  145SAPE   C2615864   1.086   3.019   5.364 -0.3263 -0.5247  0.3834
  145SAPE   H6R15865   1.111   2.969   5.269 -1.3462  1.7578 -1.2032
  145SAPE   C2715866   0.945   3.069   5.365 -0.1349  0.1343 -0.5397
  145SAPE   H7R15867   0.893   3.052   5.462 -1.7988 -0.2708 -1.4529
  145SAPE   H7S15868   0.886   3.017   5.286 -0.4248 -1.4089  0.6278
  145SAPE   C2815869   0.941   3.220   5.335  0.0665  0.2326  0.7498
  145SAPE   H8R15870   0.904   3.286   5.415 -1.8771 -0.0563  0.1486
  145SAPE   C2915871   0.943   3.270   5.211  0.0836  0.2684  0.0788
  145SAPE   H9R15872   0.931   3.379   5.212  1.6097  0.4638  1.8843
  145SAPE  C21015873   0.959   3.201   5.080  0.4226 -0.4312  0.0273
  145SAPE  H10R15874   1.016   3.106   5.092 -1.4515 -1.8776 -1.6832
  145SAPE  H10S15875   1.045   3.247   5.027  1.1324 -1.2326  0.4587
  145SAPE  C21115876   0.827   3.172   5.013  0.4946  1.0540  0.0319
  145SAPE  H11R15877   0.746   3.151   5.084  0.0288  1.1229 -0.4723
  145SAPE  C21215878   0.804   3.156   4.881  1.1264  0.3919 -0.2132
  145SAPE  H12R15879   0.707   3.123   4.839  2.2903 -0.1417 -2.6829
  145SAPE  C21315880   0.908   3.169   4.771 -0.8869 -1.5209  0.0813
  145SAPE  H13R15881   1.009   3.133   4.798  0.1307  1.0338 -0.0776
  145SAPE  H13S15882   0.913   3.277   4.746 -1.7480 -0.8458  2.5774
  145SAPE  C21415883   0.852   3.091   4.649 -0.4990  0.4893 -0.7166
  145SAPE  H14R15884   0.776   3.017   4.677 -0.6268  1.0798  0.5631
  145SAPE  C21515885   0.894   3.105   4.529 -0.4607  0.5284  0.4250
  145SAPE  H15R15886   0.854   3.047   4.445  1.5112  0.3667 -0.4552
  145SAPE  C21615887   1.000   3.208   4.489 -0.4897  0.4011  0.5245
  145SAPE  H16R15888   1.095   3.151   4.481  0.8669  2.1844  2.6744
  145SAPE  H16S15889   1.025   3.287   4.563  1.2131  0.3011  0.1016
  145SAPE  C21715890   0.969   3.286   4.354 -0.0387 -0.1523  0.4110
  145SAPE  H17R15891   1.049   3.363   4.345  1.0673 -1.3113  0.0220
  145SAPE  H17S15892   0.866   3.329   4.357 -0.3866 -0.9529  0.1249
  145SAPE  C21815893   0.985   3.187   4.232  0.2959  0.3698  0.2521
  145SAPE  H18R15894   0.926   3.094   4.246  0.1304  0.5600  0.8955
  145SAPE  H18S15895   1.087   3.143   4.230 -1.3869 -3.9382 -0.6668
  145SAPE  C21915896   0.934   3.245   4.102  1.0281 -0.1426  0.6211
  145SAPE  H19R15897   0.836   3.296   4.116  1.3142  0.4028  0.6616
  145SAPE  H19S15898   0.906   3.154   4.045  3.1587 -1.5395  1.6700
  145SAPE  C22015899   1.039   3.321   4.015  0.3672  0.5561  0.0795
  145SAPE  H20R15900   1.122   3.249   3.997  0.8443  1.2405 -0.4686
  145SAPE  H20S15901   1.071   3.413   4.069  1.3110  0.7900 -0.8535
  145SAPE  H20T15902   0.988   3.353   3.922  3.9847  0.1714 -2.2506
  145SAPE   C3315903   2.104   3.157   5.442  0.1201 -0.9119 -0.5404
  145SAPE   H3X15904   2.175   3.128   5.523 -0.5874 -2.0409 -0.3040
  145SAPE   H3Y15905   2.138   3.256   5.405  0.6021 -1.6263 -2.0620
  145SAPE   C3415906   2.113   3.064   5.317  0.0770 -0.0379  0.6920
  145SAPE   H4X15907   2.026   2.999   5.295  0.7068 -1.0801  1.1882
  145SAPE   H4Y15908   2.202   2.998   5.326 -0.6984 -1.0475  1.1268
  145SAPE   C3515909   2.141   3.153   5.190 -0.3965 -0.1993 -0.1833
  145SAPE   H5X15910   2.236   3.207   5.209 -1.6847  2.2993 -0.4783
  145SAPE   H5Y15911   2.061   3.229   5.185 -0.1609  0.2200  1.6929
  145SAPE   C3615912   2.141   3.065   5.064  0.3421 -0.2011 -0.4793
  145SAPE   H6X15913   2.040   3.018   5.071  0.6479 -0.8145 -0.1349
  145SAPE   H6Y15914   2.213   2.983   5.080  1.3737  0.6946 -0.3972
  145SAPE   C3715915   2.152   3.136   4.932 -0.0663 -0.1137 -0.4844
  145SAPE   H7X15916   2.262   3.143   4.914  0.4138 -0.1623  2.0628
  145SAPE   H7Y15917   2.114   3.240   4.934  1.1991  0.3619  1.6966
  145SAPE   C3815918   2.109   3.056   4.805 -0.0532 -0.0363 -0.3603
  145SAPE   H8X15919   2.174   2.967   4.791  1.6900  1.6028 -4.3403
  145SAPE   H8Y15920   2.123   3.120   4.715  1.5107  0.1392 -0.0070
  145SAPE   C3915921   1.962   3.030   4.811 -0.2270  0.0604  0.1074
  145SAPE   H9X15922   1.920   3.116   4.867 -0.1081 -0.7365  1.4641
  145SAPE   H9Y15923   1.951   2.945   4.882  0.2791 -0.4159 -0.3740
  145SAPE  C31015924   1.889   3.005   4.683  0.2835  0.1613 -0.0547
  145SAPE  H10X15925   1.951   2.926   4.636  1.1590  1.4816 -1.1890
  145SAPE  H10Y15926   1.900   3.089   4.611  0.4110  1.4576  1.4211
  145SAPE  C31115927   1.744   2.963   4.709  0.1881  0.2580  0.3213
  145SAPE  H11X15928   1.707   3.035   4.785  1.2082 -0.2865  1.3633
  145SAPE  H11Y15929   1.745   2.868   4.765 -0.6282  0.1910  0.2311
  145SAPE  C31215930   1.651   2.953   4.586  0.5465  0.3379  1.1714
  145SAPE  H12X15931   1.665   3.044   4.525  0.6024  0.1846  0.9525
  145SAPE  H12Y15932   1.543   2.952   4.614 -0.3000 -0.1708 -1.7613
  145SAPE  C31315933   1.677   2.825   4.513  1.1021  0.0656  0.5497
  145SAPE  H13X15934   1.662   2.731   4.571  3.8780 -1.0247 -0.3498
  145SAPE  H13Y15935   1.783   2.818   4.482  0.7058 -1.9285 -0.5464
  145SAPE  C31415936   1.591   2.807   4.386  0.1622  0.4356 -0.3042
  145SAPE  H14X15937   1.483   2.829   4.401 -0.2243 -1.1486 -0.6670
  145SAPE  H14Y15938   1.610   2.708   4.341 -1.7823  1.0030 -2.5644
  145SAPE  C31515939   1.624   2.901   4.271 -0.1720  0.6240 -0.0997
  145SAPE  H15X15940   1.606   3.005   4.306 -1.3375 -0.1141  1.6421
  145SAPE  H15Y15941   1.574   2.864   4.180 -1.5041  3.0029 -0.4031
  145SAPE  C31615942   1.772   2.890   4.223  0.0304 -0.3235 -0.6755
  145SAPE  H16X15943   1.788   2.783   4.200 -1.0206 -1.1251  1.9667
  145SAPE  H16Y15944   1.847   2.919   4.299 -2.1620  2.5400  0.5723
  145SAPE  C31715945   1.793   2.959   4.085 -0.0945 -0.2448  0.6034
  145SAPE  H17X15946   1.713   2.919   4.019  0.0865 -0.5230  0.5524
  145SAPE  H17Y15947   1.888   2.927   4.038  0.0604  0.5143  0.3807
  145SAPE  C31815948   1.790   3.114   4.075 -0.0218  0.4950  0.9573
  145SAPE  H18X15949   1.692   3.149   4.115  0.0798  1.5686  0.3141
  145SAPE  H18Y15950   1.790   3.150   3.970  0.2379 -0.2574  0.6906
  145SAPE  H18Z15951   1.875   3.160   4.129 -0.2230 -0.3804  2.0739
  146SAPE     N15952   4.148   2.558   6.029  0.0011  0.0146  0.1325
  146SAPE   HN115953   4.051   2.518   6.031  0.6181 -1.7024 -1.3587
  146SAPE   HN215954   4.203   2.515   6.106 -1.7038 -2.6825 -0.0037
  146SAPE   HN315955   4.135   2.658   6.052 -0.3199 -0.2096  1.0099
  146SAPE   C1215956   4.199   2.539   5.891  0.7112  1.1350 -0.8105
  146SAPE  H12A15957   4.176   2.639   5.848  0.9089  1.1659 -0.8465
  146SAPE  H12B15958   4.121   2.474   5.845  2.2038 -0.2814 -1.4359
  146SAPE   C1115959   4.340   2.484   5.870 -0.8333  0.1703 -0.4580
  146SAPE  H11A15960   4.355   2.481   5.760  0.9024 -0.7461 -0.2284
  146SAPE  H11B15961   4.345   2.375   5.889 -1.5078  0.3397  0.8763
  146SAPE     P15962   4.585   2.507   5.989 -0.0056  0.1204  0.4199
  146SAPE   O1315963   4.676   2.621   5.990 -0.1765 -0.3760  0.1734
  146SAPE   O1415964   4.575   2.428   6.117 -0.3704 -0.2237 -0.0265
  146SAPE   O1215965   4.441   2.561   5.949  0.0830  0.4619  0.0735
  146SAPE   O1115966   4.624   2.410   5.871  0.5561 -0.5381 -0.1482
  146SAPE    C115967   4.694   2.462   5.756  0.4125  0.9080  0.1543
  146SAPE    HA15968   4.650   2.399   5.676 -0.5961 -0.8396  1.9924
  146SAPE    HB15969   4.665   2.568   5.742 -0.6385  0.7481  0.9448
  146SAPE    C215970   4.850   2.433   5.750 -0.0553  0.3591 -0.1750
  146SAPE    HS15971   4.902   2.502   5.819  3.0842 -0.4875 -1.4940
  146SAPE   O2115972   4.909   2.443   5.619  0.0204 -0.0930  0.1957
  146SAPE   C2115973   4.941   2.567   5.588  0.1641  0.2048  0.3969
  146SAPE   O2215974   4.917   2.667   5.650  0.2147  0.5061 -0.2052
  146SAPE   C2215975   5.011   2.556   5.448 -0.0296  0.7593 -0.4695
  146SAPE   H2R15976   5.106   2.507   5.476  0.4943  1.4209 -1.0535
  146SAPE   H2S15977   4.947   2.498   5.378  0.6328  0.4808 -0.8444
  146SAPE    C315978   4.877   2.288   5.799 -0.2653  0.2310  0.1239
  146SAPE    HX15979   4.840   2.282   5.903  0.0749  1.8449  0.3510
  146SAPE    HY15980   4.987   2.278   5.799  0.1945  3.6078  3.1696
  146SAPE   O3115981   4.821   2.179   5.722  0.6933 -0.9008 -0.0654
  146SAPE   C3115982   4.902   2.094   5.664  0.0566  0.4194 -0.4097
  146SAPE   O3215983   5.024   2.083   5.683  0.4507 -0.0773  0.0335
  146SAPE   C3215984   4.824   2.014   5.561 -0.0703  0.4899  0.5966
  146SAPE   H2X15985   4.716   2.038   5.571  0.4401  3.2094  0.4547
  146SAPE   H2Y15986   4.848   1.906   5.569 -0.2615  0.3283 -0.6697
  146SAPE   C2315987   5.012   2.699   5.397  0.4533  0.0203 -0.0264
  146SAPE   H3R15988   5.058   2.764   5.475 -3.7130  1.2681  1.6575
  146SAPE   H3S15989   4.907   2.732   5.386  0.0345 -0.6446  1.7117
  146SAPE   C2415990   5.085   2.719   5.255  0.5714 -0.4706 -0.1772
  146SAPE   H4R15991   5.068   2.824   5.224 -3.8139 -1.7213 -2.8585
  146SAPE   H4S15992   5.022   2.658   5.187 -0.5114  1.7845 -1.2812
  146SAPE   C2515993   5.230   2.676   5.252  0.7480  0.3372 -0.2404
  146SAPE   H5R15994   5.261   2.620   5.341  1.9078  0.2152 -0.7124
  146SAPE   C2615995   5.315   2.709   5.155  0.6110  0.7282 -0.4179
  146SAPE   H6R15996   5.416   2.666   5.165  0.4721  0.3545 -0.5955
  146SAPE   C2715997   5.271   2.777   5.027  0.3076  0.3412  0.5707
  146SAPE   H7R15998   5.350   2.834   4.974 -0.6727  2.6012  1.3752
  146SAPE   H7S15999   5.213   2.869   5.053 -1.0762 -0.2322 -0.3470
  146SAPE   C2816000   5.194   2.682   4.940 -0.0992  0.0694  0.0099
  146SAPE   H8R16001   5.141   2.603   4.996  2.5784 -0.6371  1.7360
  146SAPE   C2916002   5.175   2.693   4.803  0.9796 -0.4991 -0.5659
  146SAPE   H9R16003   5.103   2.625   4.756 -2.9884  1.9536  1.4592
  146SAPE  C21016004   5.243   2.805   4.732 -0.1039 -0.4617 -0.5253
  146SAPE  H10R16005   5.340   2.829   4.781 -0.8094 -1.6067  1.5463
  146SAPE  H10S16006   5.175   2.886   4.766 -0.9799 -1.0966 -0.7370
  146SAPE  C21116007   5.260   2.796   4.578  0.1986  0.6537  0.2545
  146SAPE  H11R16008   5.227   2.887   4.526 -1.8274  0.0152  0.3282
  146SAPE  C21216009   5.326   2.696   4.507  0.1371  0.2836 -1.5347
  146SAPE  H12R16010   5.311   2.696   4.398  0.4207 -0.6494 -1.5893
  146SAPE  C21316011   5.395   2.576   4.559 -0.1450 -0.0033  0.1779
  146SAPE  H13R16012   5.438   2.586   4.661 -1.0597 -1.1739  0.7055
  146SAPE  H13S16013   5.483   2.560   4.493 -1.7474 -0.9063 -1.8363
  146SAPE  C21416014   5.321   2.443   4.572  1.0289 -0.1694  0.0626
  146SAPE  H14R16015   5.213   2.432   4.554  0.9259 -2.6148  1.6793
  146SAPE  C21516016   5.379   2.325   4.593  0.4391 -0.2128 -0.0211
  146SAPE  H15R16017   5.306   2.245   4.613 -0.0693  0.3106  0.2634
  146SAPE  C21616018   5.530   2.298   4.610  0.3348  0.6815  0.1198
  146SAPE  H16R16019   5.556   2.260   4.711 -1.0133 -0.7713 -0.0343
  146SAPE  H16S16020   5.594   2.382   4.576  1.2721 -0.7897 -1.9613
  146SAPE  C21716021   5.564   2.178   4.527  0.6216 -0.7259  0.1292
  146SAPE  H17R16022   5.480   2.107   4.537  0.4511 -0.8334 -1.8427
  146SAPE  H17S16023   5.657   2.135   4.572  1.9268  1.5847 -0.1755
  146SAPE  C21816024   5.565   2.207   4.376  0.3541 -0.1650  0.3946
  146SAPE  H18R16025   5.468   2.243   4.337  0.6976  1.9887  1.3590
  146SAPE  H18S16026   5.601   2.120   4.317  1.2259  1.9940 -2.4894
  146SAPE  C21916027   5.673   2.314   4.334 -0.0259 -0.0662 -0.4621
  146SAPE  H19R16028   5.762   2.289   4.396 -1.5457  2.8523  3.3049
  146SAPE  H19S16029   5.650   2.415   4.375 -0.1019  0.0755 -0.8462
  146SAPE  C22016030   5.709   2.307   4.188 -0.6510  0.3916 -0.1008
  146SAPE  H20R16031   5.629   2.343   4.119 -1.8056 -1.6529  0.1106
  146SAPE  H20S16032   5.743   2.205   4.161 -0.8734  0.6325 -1.3439
  146SAPE  H20T16033   5.803   2.365   4.179 -1.1746  1.1535 -0.8444
  146SAPE   C3316034   4.860   2.050   5.418 -0.2044 -0.6501  0.1006
  146SAPE   H3X16035   4.815   1.979   5.345  2.6209 -0.3027 -2.1634
  146SAPE   H3Y16036   4.968   2.025   5.418  0.0284  0.2979  0.8475
  146SAPE   C3416037   4.831   2.198   5.378  0.2426 -0.5492 -0.3420
  146SAPE   H4X16038   4.923   2.238   5.333 -1.2346  0.9386 -2.2064
  146SAPE   H4Y16039   4.807   2.263   5.465 -1.8098  0.1873 -1.3973
  146SAPE   C3516040   4.718   2.214   5.275 -0.0149 -0.1099  0.7157
  146SAPE   H5X16041   4.619   2.185   5.316  0.8303 -1.9744  1.5601
  146SAPE   H5Y16042   4.736   2.145   5.189  2.1229  0.9848  0.2102
  146SAPE   C3616043   4.694   2.361   5.232 -0.2023  0.2545 -0.0624
  146SAPE   H6X16044   4.795   2.408   5.231 -0.5700  1.1289  1.2171
  146SAPE   H6Y16045   4.658   2.411   5.324  1.9388 -2.7746  2.6518
  146SAPE   C3716046   4.592   2.389   5.119 -0.4874  0.5976  0.5390
  146SAPE   H7X16047   4.487   2.397   5.155 -0.2148  3.7478  0.8912
  146SAPE   H7Y16048   4.575   2.306   5.047 -0.2596 -0.3691  1.5552
  146SAPE   C3816049   4.632   2.520   5.050  1.1823  0.1539  0.5837
  146SAPE   H8X16050   4.734   2.506   5.007  0.4595 -1.6147 -0.6563
  146SAPE   H8Y16051   4.648   2.604   5.121 -3.5686  0.9387  1.0183
  146SAPE   C3916052   4.535   2.548   4.931  0.3885 -0.0161 -0.5780
  146SAPE   H9X16053   4.438   2.550   4.986  0.0465 -1.2218 -1.1100
  146SAPE   H9Y16054   4.541   2.465   4.857 -0.3394 -1.0909  0.5175
  146SAPE  C31016055   4.563   2.685   4.860  0.2570  0.2770 -0.1639
  146SAPE  H10X16056   4.659   2.676   4.805 -0.3392 -0.8281 -1.0743
  146SAPE  H10Y16057   4.570   2.765   4.937  1.6908 -0.8565  0.9352
  146SAPE  C31116058   4.457   2.722   4.751 -0.4163  0.0309 -0.0850
  146SAPE  H11X16059   4.359   2.728   4.803 -0.0863 -0.0891  0.5566
  146SAPE  H11Y16060   4.439   2.642   4.676  1.4059 -0.7018  0.2145
  146SAPE  C31216061   4.492   2.853   4.680  0.1361 -0.0266  0.0217
  146SAPE  H12X16062   4.589   2.837   4.629 -0.1944  1.2563 -1.0476
  146SAPE  H12Y16063   4.500   2.936   4.754  0.7722 -0.4436  0.4394
  146SAPE  C31316064   4.392   2.896   4.573 -0.2882 -0.7040 -0.1634
  146SAPE  H13X16065   4.289   2.885   4.612 -0.9146  2.0948 -0.8243
  146SAPE  H13Y16066   4.391   2.835   4.480 -0.9651  0.7961 -1.1656
  146SAPE  C31416067   4.411   3.039   4.526  0.2226 -0.5666  0.1151
  146SAPE  H14X16068   4.513   3.050   4.484  0.1082 -0.5277 -0.1537
  146SAPE  H14Y16069   4.423   3.111   4.610  3.4712 -1.7145  0.7896
  146SAPE  C31516070   4.292   3.100   4.439 -0.2722 -0.3492 -0.3008
  146SAPE  H15X16071   4.195   3.102   4.493  0.4636 -2.4429  1.2456
  146SAPE  H15Y16072   4.282   3.032   4.351  0.0409 -1.1747  0.2909
  146SAPE  C31616073   4.327   3.244   4.404 -0.3483 -0.2610 -0.4092
  146SAPE  H16X16074   4.347   3.307   4.493  3.0183  1.8042 -2.3959
  146SAPE  H16Y16075   4.239   3.291   4.356 -0.8252  2.9388  3.1113
  146SAPE  C31716076   4.439   3.255   4.301 -0.2494 -0.2121  0.4983
  146SAPE  H17X16077   4.414   3.182   4.220  1.2762 -1.7953  1.3679
  146SAPE  H17Y16078   4.538   3.213   4.329  0.1621 -0.4414 -1.1776
  146SAPE  C31816079   4.471   3.399   4.259  0.1501  0.1082  0.6923
  146SAPE  H18X16080   4.508   3.455   4.348  1.3106 -0.8797  0.8646
  146SAPE  H18Y16081   4.383   3.448   4.213  0.0738  0.5528  1.3055
  146SAPE  H18Z16082   4.553   3.395   4.184 -0.8185 -1.2100 -0.3413
  147SAPE     N16083   3.647   6.370   6.009 -0.2055 -0.2335 -0.1038
  147SAPE   HN116084   3.605   6.441   5.947 -0.6997  3.1057  3.6250
  147SAPE   HN216085   3.568   6.348   6.074 -0.3619 -0.8434 -0.4875
  147SAPE   HN316086   3.721   6.420   6.062  0.6352 -1.4469 -0.0861
  147SAPE   C1216087   3.702   6.252   5.928  0.5784  0.3016 -0.4960
  147SAPE  H12A16088   3.732   6.174   6.002  0.2495 -0.7541 -1.4411
  147SAPE  H12B16089   3.779   6.281   5.854 -0.2536 -0.8877 -1.8807
  147SAPE   C1116090   3.590   6.187   5.840 -0.4996  0.2480  0.2436
  147SAPE  H11A16091   3.635   6.109   5.775 -0.4783  0.0724  0.4670
  147SAPE  H11B16092   3.544   6.269   5.781 -2.6829 -0.1197  1.3288
  147SAPE     P16093   3.358   6.188   5.981 -0.2084 -0.3887  0.2773
  147SAPE   O1316094   3.281   6.072   6.034 -0.6289  0.2195  0.4849
  147SAPE   O1416095   3.386   6.289   6.087  0.4564  0.2378  0.2048
  147SAPE   O1216096   3.501   6.130   5.930 -0.9984 -0.6172  0.4617
  147SAPE   O1116097   3.283   6.257   5.849 -0.6974  0.4585 -0.1150
  147SAPE    C116098   3.167   6.203   5.790  0.0145 -0.5298  0.6762
  147SAPE    HA16099   3.085   6.166   5.854 -1.2846 -2.2026 -1.7755
  147SAPE    HB16100   3.125   6.281   5.723  1.4103 -1.6766 -1.6762
  147SAPE    C216101   3.197   6.086   5.694  0.5576  0.0907 -0.2188
  147SAPE    HS16102   3.258   6.014   5.753  0.1447  0.0502  0.1629
  147SAPE   O2116103   3.272   6.141   5.586 -0.3872 -0.5989 -0.1191
  147SAPE   C2116104   3.351   6.054   5.534  0.4942  0.3329  0.8014
  147SAPE   O2216105   3.385   5.946   5.578 -0.1245  0.1824  0.3569
  147SAPE   C2216106   3.408   6.124   5.408 -0.3728 -0.0112 -0.9229
  147SAPE   H2R16107   3.313   6.162   5.364 -1.0315  1.2526  1.4492
  147SAPE   H2S16108   3.474   6.211   5.429  0.4681 -1.4915  3.7572
  147SAPE    C316109   3.071   6.019   5.641 -0.1171 -0.3896 -0.5080
  147SAPE    HX16110   3.007   6.095   5.592  1.4471  0.7034 -0.9683
  147SAPE    HY16111   3.013   5.983   5.728  0.2787 -0.5941 -0.3223
  147SAPE   O3116112   3.106   5.923   5.547 -0.0550  0.7719  0.0164
  147SAPE   C3116113   3.049   5.797   5.538 -0.7689  0.3666  0.1810
  147SAPE   O3216114   2.962   5.748   5.607 -0.4993  0.3223  0.0765
  147SAPE   C3216115   3.105   5.715   5.421 -0.0464 -0.0161  1.1714
  147SAPE   H2X16116   3.066   5.612   5.435  2.1144 -1.2587 -1.2477
  147SAPE   H2Y16117   3.215   5.713   5.433 -0.0915  0.1977  1.6441
  147SAPE   C2316118   3.495   6.034   5.315 -0.0681  0.4365  0.3354
  147SAPE   H3R16119   3.579   5.994   5.376  1.9526  0.4780 -2.2732
  147SAPE   H3S16120   3.541   6.106   5.245  0.7652 -0.0185  0.3924
  147SAPE   C2416121   3.411   5.925   5.251 -0.0923 -0.2477  0.8855
  147SAPE   H4R16122   3.364   5.975   5.163  0.8578 -1.3386 -0.2752
  147SAPE   H4S16123   3.328   5.901   5.321 -0.6219 -1.2575 -0.0581
  147SAPE   C2516124   3.492   5.802   5.208 -0.7283 -0.0442  0.1940
  147SAPE   H5R16125   3.497   5.726   5.287  0.7745 -1.1235 -0.8714
  147SAPE   C2616126   3.556   5.785   5.088 -0.0897  0.0538  0.3390
  147SAPE   H6R16127   3.616   5.694   5.078  0.1712  0.2854 -0.2412
  147SAPE   C2716128   3.560   5.895   4.981  0.0092 -0.2080 -0.1302
  147SAPE   H7R16129   3.663   5.935   4.967  0.0633 -0.9011 -1.8906
  147SAPE   H7S16130   3.497   5.981   5.011  1.1913  0.6552 -0.0480
  147SAPE   C2816131   3.530   5.840   4.847  0.5837 -0.2695 -0.7594
  147SAPE   H8R16132   3.511   5.732   4.838 -0.3990 -0.1459 -0.3336
  147SAPE   C2916133   3.514   5.921   4.741  0.2019 -0.0554 -0.0712
  147SAPE   H9R16134   3.477   5.878   4.647 -0.5711  0.9210 -0.2265
  147SAPE  C21016135   3.527   6.074   4.740 -0.3250  0.6731  0.0820
  147SAPE  H10R16136   3.630   6.099   4.708  0.2259  0.6176  1.7343
  147SAPE  H10S16137   3.503   6.115   4.840 -0.0023  2.5038 -0.5437
  147SAPE  C21116138   3.430   6.138   4.638 -0.6559  0.2235 -0.3296
  147SAPE  H11R16139   3.472   6.138   4.536  1.7722 -0.0518  0.5999
  147SAPE  C21216140   3.315   6.189   4.669  0.2581 -0.3945 -0.7083
  147SAPE  H12R16141   3.255   6.234   4.588 -0.3955  1.2035  0.6142
  147SAPE  C21316142   3.253   6.188   4.812  0.0463 -0.1955  0.2778
  147SAPE  H13R16143   3.307   6.115   4.877  3.3921 -0.1881 -2.2372
  147SAPE  H13S16144   3.151   6.145   4.803  0.6541 -1.3973 -1.7115
  147SAPE  C21416145   3.258   6.328   4.871  0.0222  0.6952 -0.8534
  147SAPE  H14R16146   3.265   6.416   4.805 -1.9950  0.9022 -0.8731
  147SAPE  C21516147   3.244   6.358   4.999  0.3645 -0.0876 -0.5960
  147SAPE  H15R16148   3.246   6.463   5.033  1.9262 -0.5973  1.0266
  147SAPE  C21616149   3.231   6.260   5.107  0.1617  0.5816 -0.5482
  147SAPE  H16R16150   3.321   6.266   5.172 -0.1158 -0.2630 -0.0727
  147SAPE  H16S16151   3.224   6.157   5.065  1.3872 -0.5476  1.7910
  147SAPE  C21716152   3.106   6.269   5.201  0.7226 -0.2612  0.6788
  147SAPE  H17R16153   3.098   6.168   5.248 -0.3484  0.1973  1.5271
  147SAPE  H17S16154   3.011   6.282   5.144 -0.0320  0.6019  2.0873
  147SAPE  C21816155   3.124   6.373   5.307 -0.4489 -0.4049  0.3114
  147SAPE  H18R16156   3.139   6.472   5.260 -1.8563 -0.4439 -0.2711
  147SAPE  H18S16157   3.218   6.357   5.363  0.0370  1.4844  0.1105
  147SAPE  C21916158   3.013   6.381   5.419 -0.7855 -0.6292  0.4320
  147SAPE  H19R16159   3.015   6.290   5.483 -1.1949 -2.5391 -2.1044
  147SAPE  H19S16160   2.915   6.409   5.377  0.6992  1.2186 -2.0500
  147SAPE  C22016161   3.049   6.494   5.518  0.1969  0.0667 -0.1314
  147SAPE  H20R16162   2.976   6.495   5.602  0.1747 -1.1387 -0.1331
  147SAPE  H20S16163   3.042   6.596   5.474 -1.2853 -1.1159 -2.8556
  147SAPE  H20T16164   3.153   6.484   5.557 -0.1585  1.2193  1.2257
  147SAPE   C3316165   3.054   5.784   5.292 -0.0628  0.4875 -0.5681
  147SAPE   H3X16166   3.077   5.893   5.295  2.4490  0.1663 -3.1784
  147SAPE   H3Y16167   2.944   5.773   5.296 -0.0869  0.5189 -1.0114
  147SAPE   C3416168   3.132   5.730   5.167 -0.2581 -0.6958  0.1313
  147SAPE   H4X16169   3.111   5.623   5.146  1.7134 -0.8586 -1.2776
  147SAPE   H4Y16170   3.238   5.745   5.195 -0.4590  1.0542  0.0428
  147SAPE   C3516171   3.099   5.814   5.043 -0.0872 -0.1347 -0.1312
  147SAPE   H5X16172   3.119   5.919   5.074 -0.8508 -0.1942  0.6212
  147SAPE   H5Y16173   2.989   5.806   5.032 -0.1905  1.7560 -0.7615
  147SAPE   C3616174   3.180   5.776   4.913  0.8278 -0.4985 -0.3444
  147SAPE   H6X16175   3.285   5.766   4.950  0.4221 -0.3590  0.8928
  147SAPE   H6Y16176   3.161   5.864   4.847 -1.6037 -0.1704  0.6726
  147SAPE   C3716177   3.126   5.644   4.854 -0.3437 -0.3328 -0.8317
  147SAPE   H7X16178   3.015   5.659   4.850 -0.4682 -1.1394 -0.4821
  147SAPE   H7Y16179   3.158   5.567   4.927  4.4719  1.6222 -0.5441
  147SAPE   C3816180   3.194   5.616   4.721  0.1477  0.2706  0.3528
  147SAPE   H8X16181   3.168   5.515   4.682  0.9408 -0.8175  2.4805
  147SAPE   H8Y16182   3.305   5.621   4.722  0.1898 -0.4450  0.1954
  147SAPE   C3916183   3.151   5.708   4.611  0.0144 -0.0861 -0.3650
  147SAPE   H9X16184   3.157   5.815   4.640  0.0115 -0.7654  2.4251
  147SAPE   H9Y16185   3.040   5.701   4.605 -0.3631  1.8508  2.2915
  147SAPE  C31016186   3.234   5.709   4.478  0.4551 -0.0190  0.6657
  147SAPE  H10X16187   3.334   5.746   4.510 -0.9446  1.3775  3.8253
  147SAPE  H10Y16188   3.193   5.788   4.411 -0.4544 -0.0994  1.1052
  147SAPE  C31116189   3.237   5.580   4.403  0.7787 -0.3279 -0.0314
  147SAPE  H11X16190   3.130   5.550   4.394  0.4588 -0.3662  2.8662
  147SAPE  H11Y16191   3.284   5.499   4.463 -0.9347 -0.2284  1.5503
  147SAPE  C31216192   3.278   5.597   4.254  0.0190 -0.3478 -0.1244
  147SAPE  H12X16193   3.223   5.686   4.216  0.5214  1.2483  2.6503
  147SAPE  H12Y16194   3.244   5.507   4.197  3.5297 -2.0024  0.1175
  147SAPE  C31316195   3.427   5.599   4.236 -0.5447  0.6594  0.5214
  147SAPE  H13X16196   3.480   5.536   4.310  1.0080  0.0905 -1.0077
  147SAPE  H13Y16197   3.454   5.705   4.256 -1.6261  1.0057  0.2301
  147SAPE  C31416198   3.471   5.555   4.100 -0.4946 -0.1725 -0.7789
  147SAPE  H14X16199   3.428   5.624   4.024  1.3032 -1.5425 -3.1777
  147SAPE  H14Y16200   3.428   5.454   4.081 -2.9424  1.0437 -2.2169
  147SAPE  C31516201   3.621   5.552   4.074  0.1620 -0.2208  0.0512
  147SAPE  H15X16202   3.675   5.514   4.163 -0.2575 -1.9259 -0.3867
  147SAPE  H15Y16203   3.670   5.647   4.046  2.1897 -1.3100 -0.3188
  147SAPE  C31616204   3.641   5.460   3.954  0.1494  0.1809 -0.6925
  147SAPE  H16X16205   3.745   5.473   3.917  0.8254 -1.6002  0.4509
  147SAPE  H16Y16206   3.559   5.472   3.880 -1.2438 -0.6772  0.6689
  147SAPE  C31716207   3.633   5.308   3.989  0.7156 -1.0409  0.1691
  147SAPE  H17X16208   3.529   5.292   4.025  0.3962  3.5427  1.9172
  147SAPE  H17Y16209   3.701   5.287   4.074 -0.1463 -1.5603  0.7570
  147SAPE  C31816210   3.657   5.213   3.871 -0.2032 -0.4800 -0.1905
  147SAPE  H18X16211   3.650   5.108   3.907 -0.0367 -0.1086  0.9690
  147SAPE  H18Y16212   3.748   5.243   3.815  0.0534  0.2592  0.6071
  147SAPE  H18Z16213   3.569   5.215   3.803 -0.4033 -3.1464 -0.1291
  148SAPE     N16214   1.949   2.289   6.305  0.4180  0.2852  0.2917
  148SAPE   HN116215   1.925   2.228   6.386 -2.7667  1.0344  0.0351
  148SAPE   HN216216   2.021   2.240   6.247 -0.6276 -0.5517 -0.3414
  148SAPE   HN316217   1.985   2.382   6.334  0.7105  0.0246  0.7836
  148SAPE   C1216218   1.829   2.307   6.219 -0.3070 -0.4550 -0.1084
  148SAPE  H12A16219   1.750   2.365   6.272  0.3617  0.4229 -0.0382
  148SAPE  H12B16220   1.783   2.209   6.195 -1.4403  0.4294 -1.7471
  148SAPE   C1116221   1.862   2.373   6.081  0.2192  0.3212 -0.8138
  148SAPE  H11A16222   1.770   2.396   6.023 -0.9007 -1.3011  0.2473
  148SAPE  H11B16223   1.920   2.295   6.027  1.6704 -0.2181  1.4034
  148SAPE     P16224   1.994   2.575   5.974 -0.0902  0.0371  0.2307
  148SAPE   O1316225   1.992   2.714   6.027 -0.0684 -0.1573  0.1597
  148SAPE   O1416226   2.127   2.539   5.918 -0.0326 -0.6022 -0.5501
  148SAPE   O1216227   1.947   2.488   6.092  0.0958 -0.1306 -0.1405
  148SAPE   O1116228   1.890   2.557   5.857 -0.6914  0.3787 -0.3786
  148SAPE    C116229   1.774   2.635   5.840  0.6061  0.0361 -0.0430
  148SAPE    HA16230   1.690   2.563   5.845  1.0296 -0.6174 -1.6867
  148SAPE    HB16231   1.750   2.698   5.928 -2.5099 -2.2636  0.9207
  148SAPE    C216232   1.765   2.696   5.697 -0.4966  0.3832 -0.5646
  148SAPE    HS16233   1.677   2.764   5.699 -0.5498  0.3498  2.3290
  148SAPE   O2116234   1.736   2.589   5.604 -0.0484  0.2805 -0.0803
  148SAPE   C2116235   1.713   2.620   5.477  0.4158  0.4930  0.0030
  148SAPE   O2216236   1.672   2.728   5.440 -0.1339 -0.0078 -0.0875
  148SAPE   C2216237   1.748   2.497   5.393 -0.0108  0.0874  0.0772
  148SAPE   H2R16238   1.846   2.460   5.428 -0.4758  1.1609  2.7188
  148SAPE   H2S16239   1.671   2.416   5.403  0.2782 -0.1599  0.3118
  148SAPE    C316240   1.891   2.773   5.652  0.4121 -0.5495 -1.1769
  148SAPE    HX16241   1.913   2.827   5.747 -2.2286  0.3800 -1.0067
  148SAPE    HY16242   1.858   2.844   5.573 -0.5864  2.7659  1.9077
  148SAPE   O3116243   1.990   2.673   5.614 -0.8659 -0.3714  0.3873
  148SAPE   C3116244   2.113   2.703   5.639  0.1491 -0.0068  0.1775
  148SAPE   O3216245   2.154   2.813   5.680  0.2517  0.6691  0.4224
  148SAPE   C3216246   2.207   2.588   5.608  0.7519  0.6788 -0.3172
  148SAPE   H2X16247   2.160   2.489   5.627  3.8115 -0.5030  1.7825
  148SAPE   H2Y16248   2.281   2.582   5.691 -2.8866  0.4542  3.2220
  148SAPE   C2316249   1.768   2.512   5.242 -0.2378  0.6004  0.7566
  148SAPE   H3R16250   1.826   2.424   5.208  0.8974  1.4151  0.5520
  148SAPE   H3S16251   1.832   2.599   5.217  0.8607  0.1384  1.8412
  148SAPE   C2416252   1.632   2.507   5.163 -0.1123 -0.1742  0.8974
  148SAPE   H4R16253   1.566   2.582   5.211 -2.7038 -1.3603 -0.6090
  148SAPE   H4S16254   1.584   2.408   5.167 -1.2425  0.2905 -0.4051
  148SAPE   C2516255   1.659   2.555   5.024  0.1096  0.2288 -0.0086
  148SAPE   H5R16256   1.658   2.473   4.951  0.0572  1.0921 -1.0073
  148SAPE   C2616257   1.653   2.682   4.980  0.5501  0.6284 -0.2971
  148SAPE   H6R16258   1.671   2.699   4.873  2.0019  0.2978 -0.1363
  148SAPE   C2716259   1.617   2.801   5.068 -0.4060 -0.3486  0.0781
  148SAPE   H7R16260   1.702   2.871   5.054  0.0793 -0.7358  1.0381
  148SAPE   H7S16261   1.627   2.772   5.175  0.5991 -2.7787 -0.6096
  148SAPE   C2816262   1.493   2.867   5.017 -0.2160  0.8650  0.0674
  148SAPE   H8R16263   1.428   2.792   4.970  0.6807  0.6544 -0.8780
  148SAPE   C2916264   1.468   2.999   5.017 -0.0451  0.7306 -0.2722
  148SAPE   H9R16265   1.368   3.030   4.982  0.4645  1.5104 -1.0766
  148SAPE  C21016266   1.566   3.097   5.069 -0.8782 -0.4893 -0.7996
  148SAPE  H10R16267   1.645   3.122   4.995 -1.7087  1.1662 -1.1749
  148SAPE  H10S16268   1.608   3.065   5.167 -1.9642  0.1360 -0.1145
  148SAPE  C21116269   1.499   3.225   5.114  0.3012 -0.0801  0.2865
  148SAPE  H11R16270   1.400   3.245   5.070 -0.3838  0.6146  2.0478
  148SAPE  C21216271   1.547   3.321   5.196  0.0993  1.0605  0.3431
  148SAPE  H12R16272   1.490   3.413   5.215  0.0263  1.1347 -0.2036
  148SAPE  C21316273   1.682   3.322   5.262 -0.2711  0.3976  1.2067
  148SAPE  H13R16274   1.754   3.244   5.229  1.4049  2.2845  0.1757
  148SAPE  H13S16275   1.674   3.308   5.372 -0.7242  0.3249  1.1657
  148SAPE  C21416276   1.764   3.448   5.248  0.3495  0.2228  0.3109
  148SAPE  H14R16277   1.749   3.527   5.323  0.1549 -0.5267  1.0751
  148SAPE  C21516278   1.850   3.481   5.150  0.6864  0.3782  0.2225
  148SAPE  H15R16279   1.882   3.586   5.143 -2.8284  1.5466 -0.4708
  148SAPE  C21616280   1.897   3.404   5.027  0.6201  0.3615 -0.3376
  148SAPE  H16R16281   1.876   3.296   5.039  1.0052  0.3978  0.7407
  148SAPE  H16S16282   2.007   3.416   5.024  0.7674 -0.4906  0.8687
  148SAPE  C21716283   1.843   3.447   4.895  0.3453  0.2160  0.0123
  148SAPE  H17R16284   1.893   3.388   4.815  1.5656 -2.3307  2.4678
  148SAPE  H17S16285   1.861   3.552   4.864 -1.7952  0.4058 -0.6986
  148SAPE  C21816286   1.690   3.428   4.892  0.0639 -0.4117 -0.5731
  148SAPE  H18R16287   1.645   3.500   4.963 -1.4042 -0.2109 -1.6597
  148SAPE  H18S16288   1.673   3.324   4.929 -1.2229  0.2244  0.6861
  148SAPE  C21916289   1.624   3.441   4.753 -0.2961  0.4219 -0.1374
  148SAPE  H19R16290   1.661   3.529   4.696 -1.2560  0.7677 -0.2507
  148SAPE  H19S16291   1.516   3.461   4.772  0.0502  1.2751  0.9908
  148SAPE  C22016292   1.623   3.321   4.653  1.1354 -0.0365 -0.0759
  148SAPE  H20R16293   1.611   3.229   4.715  2.8463 -0.9144 -0.9754
  148SAPE  H20S16294   1.721   3.316   4.601  1.4168  0.2501  0.4184
  148SAPE  H20T16295   1.545   3.324   4.574  0.5891  2.4993  0.4744
  148SAPE   C3316296   2.244   2.594   5.462  0.1195 -0.3336 -0.2218
  148SAPE   H3X16297   2.300   2.501   5.437  0.0716 -0.9059  1.6830
  148SAPE   H3Y16298   2.318   2.676   5.443  0.3947 -0.7798 -1.1324
  148SAPE   C3416299   2.136   2.614   5.363  0.8489 -0.4537 -1.3700
  148SAPE   H4X16300   2.083   2.710   5.381 -2.1176 -1.7325 -2.6508
  148SAPE   H4Y16301   2.063   2.532   5.376 -0.0822  0.5293 -0.0968
  148SAPE   C3516302   2.194   2.612   5.225 -0.1831 -0.5268 -0.1724
  148SAPE   H5X16303   2.243   2.512   5.220 -1.7557 -1.3423  0.2114
  148SAPE   H5Y16304   2.266   2.695   5.209 -1.3263  0.6556  0.6177
  148SAPE   C3616305   2.093   2.626   5.114 -0.2894  0.2618 -0.7637
  148SAPE   H6X16306   2.040   2.724   5.115  1.3461  1.2012  0.9245
  148SAPE   H6Y16307   2.011   2.552   5.119 -0.3297  0.3925  1.9881
  148SAPE   C3716308   2.161   2.612   4.975 -0.0159  0.4439 -0.4773
  148SAPE   H7X16309   2.205   2.510   4.974  2.7291  1.5159 -2.7444
  148SAPE   H7Y16310   2.250   2.678   4.966  0.4559  0.1515  1.6212
  148SAPE   C3816311   2.063   2.637   4.856  0.3131 -0.1570  0.5963
  148SAPE   H8X16312   2.017   2.737   4.869  0.7090  0.4020 -1.9074
  148SAPE   H8Y16313   1.974   2.573   4.874  0.7276 -1.5502 -1.9461
  148SAPE   C3916314   2.124   2.616   4.712 -0.5906 -0.4691  0.0365
  148SAPE   H9X16315   2.165   2.513   4.720 -1.1080 -0.6880 -0.0755
  148SAPE   H9Y16316   2.212   2.679   4.690  0.1037 -1.9357 -1.5886
  148SAPE  C31016317   2.032   2.615   4.591 -0.1055 -0.6016  0.4193
  148SAPE  H10X16318   1.999   2.719   4.569  0.7457 -0.8090 -2.1590
  148SAPE  H10Y16319   1.937   2.565   4.621 -0.6902  0.3297  0.1497
  148SAPE  C31116320   2.100   2.555   4.471  0.3231  0.2254  0.7409
  148SAPE  H11X16321   2.129   2.453   4.501 -1.9239 -0.4274  0.8472
  148SAPE  H11Y16322   2.193   2.612   4.449 -0.1363  0.3694 -0.9476
  148SAPE  C31216323   2.001   2.564   4.355 -1.2533 -0.3444  0.5791
  148SAPE  H12X16324   1.968   2.669   4.339 -0.5429 -0.3990 -1.5980
  148SAPE  H12Y16325   1.905   2.509   4.355 -2.1893  1.1987  1.4829
  148SAPE  C31316326   2.078   2.523   4.224  0.4662 -0.5575 -0.0237
  148SAPE  H13X16327   2.106   2.416   4.226  0.6466 -0.5256  2.4482
  148SAPE  H13Y16328   2.168   2.588   4.221 -0.1667  0.3073 -2.0130
  148SAPE  C31416329   1.992   2.549   4.096 -0.0943  0.7798  0.1222
  148SAPE  H14X16330   1.952   2.651   4.114  2.0509  1.8543 -0.8424
  148SAPE  H14Y16331   1.908   2.477   4.090 -0.5346  1.3349 -0.4793
  148SAPE  C31516332   2.079   2.555   3.973  0.2710 -0.1824  0.4084
  148SAPE  H15X16333   2.108   2.455   3.933  1.0583  0.0199  0.4583
  148SAPE  H15Y16334   2.175   2.605   3.998  0.8569 -0.8120 -0.4735
  148SAPE  C31616335   2.005   2.631   3.861 -0.1285  0.1027 -0.1425
  148SAPE  H16X16336   2.060   2.651   3.767 -0.9230 -0.2904 -0.6985
  148SAPE  H16Y16337   1.979   2.730   3.906 -0.2590 -0.2757  0.6312
  148SAPE  C31716338   1.877   2.555   3.824 -0.1132 -0.4373 -0.0816
  148SAPE  H17X16339   1.801   2.554   3.905 -0.7311  0.4155 -0.6289
  148SAPE  H17Y16340   1.914   2.455   3.791  0.3939  0.1749 -1.4730
  148SAPE  C31816341   1.811   2.621   3.700  0.4983  0.5300  0.3303
  148SAPE  H18X16342   1.781   2.726   3.720  1.0312  1.0461 -1.4796
  148SAPE  H18Y16343   1.721   2.561   3.674  1.8001 -1.0587 -0.6753
  148SAPE  H18Z16344   1.876   2.607   3.612 -0.7797 -2.7459 -0.2401
  149SAPE     N16345   2.431   1.647   5.996  0.0151  0.3471  0.0617
  149SAPE   HN116346   2.386   1.694   5.914 -0.0666  1.0048  0.4747
  149SAPE   HN216347   2.391   1.555   6.023  1.0322 -0.1343 -0.0239
  149SAPE   HN316348   2.412   1.712   6.075  1.9046  1.0592 -0.0281
  149SAPE   C1216349   2.585   1.638   5.961  0.2595  0.2429 -0.3272
  149SAPE  H12A16350   2.580   1.623   5.851  1.8258 -2.1039 -0.1475
  149SAPE  H12B16351   2.620   1.544   6.008  4.0333  1.2177 -0.8994
  149SAPE   C1116352   2.673   1.758   6.002 -0.5255 -0.7848  0.7130
  149SAPE  H11A16353   2.774   1.744   5.958 -0.4681 -3.7538  1.6168
  149SAPE  H11B16354   2.691   1.753   6.112  1.5424 -2.3521  0.3632
  149SAPE     P16355   2.619   1.954   5.833 -0.0938  0.3246 -0.3730
  149SAPE   O1316356   2.489   2.003   5.806  0.0842 -0.0902 -0.3465
  149SAPE   O1416357   2.733   2.045   5.855 -0.8235  0.4107 -0.3136
  149SAPE   O1216358   2.604   1.877   5.972  0.1207  0.0311  0.1159
  149SAPE   O1116359   2.658   1.835   5.732  0.0489 -0.4001  0.4593
  149SAPE    C116360   2.671   1.868   5.592  0.7156 -0.3640  0.5040
  149SAPE    HA16361   2.572   1.884   5.544  1.4445  1.0685 -0.5709
  149SAPE    HB16362   2.737   1.954   5.570  0.6765 -0.7083 -1.0691
  149SAPE    C216363   2.725   1.740   5.509  0.2175  0.5646  0.3068
  149SAPE    HS16364   2.660   1.654   5.537  1.9124 -1.5461 -1.8427
  149SAPE   O2116365   2.859   1.717   5.542 -0.2965  0.4624 -0.2994
  149SAPE   C2116366   2.879   1.650   5.651 -0.0372  0.5458  0.2034
  149SAPE   O2216367   2.800   1.576   5.706  0.0952  0.4480  0.1103
  149SAPE   C2216368   3.004   1.694   5.716 -0.1305  0.1676 -0.2948
  149SAPE   H2R16369   3.047   1.769   5.646 -3.2168  0.6747 -1.8159
  149SAPE   H2S16370   2.969   1.751   5.805 -1.4584  0.8025 -1.2045
  149SAPE    C316371   2.717   1.761   5.357 -0.5866 -0.7373 -0.7485
  149SAPE    HX16372   2.765   1.670   5.316  1.0425 -0.0124 -0.4956
  149SAPE    HY16373   2.790   1.843   5.342  1.3421 -2.4268 -0.9980
  149SAPE   O3116374   2.590   1.792   5.302 -0.0538  0.5694 -0.0980
  149SAPE   C3116375   2.511   1.686   5.274 -0.1740  0.4172  0.0800
  149SAPE   O3216376   2.522   1.579   5.329  0.3884 -0.2092 -0.6844
  149SAPE   C3216377   2.406   1.728   5.167  0.1333  0.3690 -0.4286
  149SAPE   H2X16378   2.464   1.791   5.097  1.5067  0.6108  0.8873
  149SAPE   H2Y16379   2.334   1.799   5.215 -0.4610 -0.2770 -0.3476
  149SAPE   C2316380   3.094   1.575   5.757 -0.2864  0.1857 -0.4393
  149SAPE   H3R16381   3.031   1.489   5.789  0.1510  0.6647  1.9202
  149SAPE   H3S16382   3.157   1.608   5.843  0.1471  0.2895 -0.7936
  149SAPE   C2416383   3.183   1.531   5.643 -0.3027 -0.0354 -0.0344
  149SAPE   H4R16384   3.270   1.477   5.687  0.7412  1.5491 -0.0248
  149SAPE   H4S16385   3.222   1.619   5.587 -1.1960 -0.9004 -2.1036
  149SAPE   C2516386   3.122   1.434   5.547 -0.8765 -0.0290 -0.3641
  149SAPE   H5R16387   3.079   1.343   5.592  1.0133 -1.8201 -1.9428
  149SAPE   C2616388   3.130   1.437   5.409  0.0897 -0.2460  0.3226
  149SAPE   H6R16389   3.065   1.365   5.356 -0.5756  0.5658  0.0170
  149SAPE   C2716390   3.211   1.543   5.330  0.4555  0.3156 -0.5906
  149SAPE   H7R16391   3.309   1.569   5.376  0.1363 -2.3549  1.8558
  149SAPE   H7S16392   3.152   1.637   5.328  0.3081  0.2473  0.3034
  149SAPE   C2816393   3.221   1.488   5.188  0.2044 -0.2681  0.9356
  149SAPE   H8R16394   3.131   1.503   5.126 -0.4229 -2.4500  1.2193
  149SAPE   C2916395   3.332   1.428   5.133  0.0324 -0.2823  0.4059
  149SAPE   H9R16396   3.316   1.401   5.028 -1.0093  0.1738  0.4370
  149SAPE  C21016397   3.468   1.398   5.199  0.9994  0.5005  0.4629
  149SAPE  H10R16398   3.508   1.297   5.174  1.5143  0.9803 -0.7362
  149SAPE  H10S16399   3.453   1.389   5.308 -3.3673 -3.0277 -0.1280
  149SAPE  C21116400   3.571   1.510   5.174 -0.1629  0.5831 -0.4542
  149SAPE  H11R16401   3.568   1.584   5.255 -1.1822  1.4804 -1.2806
  149SAPE  C21216402   3.664   1.524   5.078 -0.0502 -0.5200 -0.0432
  149SAPE  H12R16403   3.737   1.606   5.085  0.0256 -0.7568  2.9335
  149SAPE  C21316404   3.682   1.428   4.963 -0.1909  0.2443  0.1932
  149SAPE  H13R16405   3.613   1.343   4.982 -1.4097  1.0635 -0.3632
  149SAPE  H13S16406   3.785   1.388   4.967  0.0988  1.0230  3.6614
  149SAPE  C21416407   3.662   1.504   4.832 -0.4240 -0.4897 -0.9144
  149SAPE  H14R16408   3.710   1.602   4.831  0.4356 -0.8548  0.7023
  149SAPE  C21516409   3.581   1.461   4.736 -0.2930 -0.4034  0.0046
  149SAPE  H15R16410   3.564   1.532   4.653 -0.1755 -3.0800 -2.4553
  149SAPE  C21616411   3.510   1.331   4.738  0.5102  0.2513  0.3116
  149SAPE  H16R16412   3.464   1.319   4.838  0.7227  1.3445  0.5623
  149SAPE  H16S16413   3.577   1.244   4.724 -0.8308 -0.8448  0.4690
  149SAPE  C21716414   3.406   1.328   4.623  0.6290 -0.0854 -0.3247
  149SAPE  H17R16415   3.352   1.232   4.607 -4.0646  2.1562  0.0989
  149SAPE  H17S16416   3.452   1.353   4.525 -0.9673 -1.8405 -1.6026
  149SAPE  C21816417   3.276   1.406   4.662  0.0107  0.2425  0.1630
  149SAPE  H18R16418   3.311   1.494   4.718  0.1497 -0.2861  0.9228
  149SAPE  H18S16419   3.216   1.339   4.727 -0.2523 -1.3823 -1.6648
  149SAPE  C21916420   3.190   1.440   4.535 -0.6003  0.6885  0.4689
  149SAPE  H19R16421   3.233   1.526   4.481 -2.4258  0.5642 -1.2938
  149SAPE  H19S16422   3.088   1.476   4.560 -0.3321  0.3476  2.1930
  149SAPE  C22016423   3.197   1.327   4.432 -0.3910 -0.5976 -0.4233
  149SAPE  H20R16424   3.294   1.333   4.378 -1.3169  0.0766 -2.0446
  149SAPE  H20S16425   3.118   1.339   4.355  0.3032  0.0411 -1.0524
  149SAPE  H20T16426   3.195   1.225   4.477 -0.7810  0.5162  2.3106
  149SAPE   C3316427   2.340   1.607   5.106 -0.4270  0.9153 -0.0550
  149SAPE   H3X16428   2.272   1.556   5.177 -0.9138  0.5309 -0.7725
  149SAPE   H3Y16429   2.412   1.531   5.068 -0.3777 -0.2789  2.2667
  149SAPE   C3416430   2.250   1.632   4.988 -0.9492 -0.6496 -0.5643
  149SAPE   H4X16431   2.309   1.700   4.922 -0.4340  0.3190  0.8474
  149SAPE   H4Y16432   2.159   1.676   5.033  0.3570  1.0858  0.4916
  149SAPE   C3516433   2.213   1.501   4.922  0.1237  1.0004 -0.5767
  149SAPE   H5X16434   2.117   1.508   4.867 -0.0322  0.4602 -0.3822
  149SAPE   H5Y16435   2.186   1.432   5.005 -1.7324 -0.4324 -2.2930
  149SAPE   C3616436   2.317   1.432   4.830  0.1304 -0.1546 -0.4184
  149SAPE   H6X16437   2.266   1.345   4.786 -0.8549  0.7779 -1.1642
  149SAPE   H6Y16438   2.412   1.414   4.885  0.3342 -2.4312 -1.4258
  149SAPE   C3716439   2.344   1.538   4.715  0.3752 -0.0465 -0.6053
  149SAPE   H7X16440   2.415   1.614   4.755 -1.0636  0.9478  0.1715
  149SAPE   H7Y16441   2.249   1.592   4.694 -0.1157 -0.4124  0.5920
  149SAPE   C3816442   2.397   1.466   4.590  0.6522  0.4537  0.8100
  149SAPE   H8X16443   2.320   1.403   4.540  1.1664  0.9500 -0.6600
  149SAPE   H8Y16444   2.469   1.385   4.615  0.4103 -0.3590 -0.9881
  149SAPE   C3916445   2.458   1.557   4.497  0.3707  0.4479  0.7661
  149SAPE   H9X16446   2.555   1.591   4.540  1.8064 -2.6443  0.2569
  149SAPE   H9Y16447   2.384   1.637   4.478 -2.1399 -1.8943  0.1877
  149SAPE  C31016448   2.490   1.485   4.363 -0.3423 -0.1882 -0.3567
  149SAPE  H10X16449   2.394   1.450   4.319 -0.9946  0.8375  0.2241
  149SAPE  H10Y16450   2.567   1.404   4.362  1.4587  1.3999 -2.6436
  149SAPE  C31116451   2.561   1.576   4.253 -0.3826 -0.7069  0.0610
  149SAPE  H11X16452   2.583   1.520   4.160  1.8391 -1.5081  0.9928
  149SAPE  H11Y16453   2.655   1.620   4.292 -0.8370 -0.0776  0.4812
  149SAPE  C31216454   2.484   1.702   4.210 -0.1851  0.3376 -0.6931
  149SAPE  H12X16455   2.450   1.760   4.299 -0.3369  1.2351 -1.3211
  149SAPE  H12Y16456   2.389   1.670   4.162  0.9387 -1.3816 -1.8749
  149SAPE  C31316457   2.560   1.794   4.121  0.0956 -0.6624 -0.3062
  149SAPE  H13X16458   2.643   1.834   4.183 -0.4872  3.1772 -1.7454
  149SAPE  H13Y16459   2.496   1.882   4.100  0.3997 -0.1416  0.8662
  149SAPE  C31416460   2.610   1.741   3.992  0.0291  0.7307  0.5083
  149SAPE  H14X16461   2.683   1.661   4.014  1.3150  1.7584  0.0666
  149SAPE  H14Y16462   2.668   1.820   3.941 -0.0836  0.1819 -0.4950
  149SAPE  C31516463   2.499   1.690   3.900 -0.2710 -0.0175  0.7131
  149SAPE  H15X16464   2.438   1.781   3.879  2.1906  1.6884  0.5392
  149SAPE  H15Y16465   2.437   1.612   3.949  0.8250 -1.1833  0.2849
  149SAPE  C31616466   2.569   1.622   3.780  0.3746  0.1172 -0.0784
  149SAPE  H16X16467   2.497   1.557   3.724  2.3565  1.5551 -4.8261
  149SAPE  H16Y16468   2.650   1.563   3.827 -0.7054  0.6529  2.6316
  149SAPE  C31716469   2.615   1.724   3.679 -0.0453 -0.8288  0.1805
  149SAPE  H17X16470   2.705   1.781   3.711 -0.8014 -0.5595  1.8901
  149SAPE  H17Y16471   2.540   1.806   3.685  1.5372  0.7811 -1.0000
  149SAPE  C31816472   2.620   1.678   3.528 -0.1720 -0.0760  0.2857
  149SAPE  H18X16473   2.669   1.578   3.526 -0.8724 -0.4629  1.5578
  149SAPE  H18Y16474   2.683   1.749   3.470 -0.0795 -0.1928  0.2441
  149SAPE  H18Z16475   2.518   1.673   3.485  0.6749 -0.2163 -1.8244
  150SAPE     N16476   5.075   3.785   5.871  0.0109  0.1317  0.8559
  150SAPE   HN116477   5.048   3.798   5.771 -0.4719  1.5948  1.1571
  150SAPE   HN216478   5.027   3.697   5.902 -0.8284  0.2609 -0.0277
  150SAPE   HN316479   5.031   3.866   5.918  1.5497  1.3037  0.3741
  150SAPE   C1216480   5.223   3.807   5.877  0.7204 -0.8527  0.2446
  150SAPE  H12A16481   5.248   3.790   5.984 -1.4413  0.4275  1.0109
  150SAPE  H12B16482   5.238   3.912   5.845 -2.5717 -0.2565  0.3236
  150SAPE   C1116483   5.310   3.716   5.788  0.1376 -0.5094 -0.5806
  150SAPE  H11A16484   5.414   3.747   5.810  0.2276 -1.9688  1.3414
  150SAPE  H11B16485   5.288   3.727   5.680  0.5207 -0.9818 -0.7081
  150SAPE     P16486   5.365   3.459   5.775 -0.0728 -0.5178 -0.3014
  150SAPE   O1316487   5.463   3.443   5.882  0.0338  0.0823  0.3280
  150SAPE   O1416488   5.275   3.344   5.747  0.4590 -0.6924  0.0468
  150SAPE   O1216489   5.271   3.579   5.810  0.1555 -0.8361  0.1199
  150SAPE   O1116490   5.441   3.504   5.642 -0.4860 -0.2219  0.1706
  150SAPE    C116491   5.544   3.428   5.579 -0.2248  0.1450  0.0508
  150SAPE    HA16492   5.544   3.324   5.618  0.5385  0.6531  1.5017
  150SAPE    HB16493   5.527   3.424   5.470  1.0521  0.4612 -0.1839
  150SAPE    C216494   5.682   3.500   5.582  0.5849 -0.6330 -0.2893
  150SAPE    HS16495   5.707   3.541   5.683  0.3183 -1.7735  0.2564
  150SAPE   O2116496   5.684   3.613   5.488 -0.3446 -0.6018 -0.5575
  150SAPE   C2116497   5.778   3.711   5.509  0.0532  0.1172 -0.0664
  150SAPE   O2216498   5.855   3.709   5.605  0.0581 -0.7808  0.3014
  150SAPE   C2216499   5.783   3.807   5.394 -0.7930 -0.4664  0.1139
  150SAPE   H2R16500   5.712   3.892   5.407  2.5307  2.5044  0.2639
  150SAPE   H2S16501   5.879   3.862   5.388 -2.0554  1.7754 -0.7318
  150SAPE    C316502   5.791   3.400   5.549  0.3057  0.8558 -0.3777
  150SAPE    HX16503   5.794   3.322   5.628 -0.8733 -2.4168 -3.3132
  150SAPE    HY16504   5.889   3.452   5.555  2.1530 -2.1322 -1.9572
  150SAPE   O3116505   5.769   3.330   5.422  0.0779  0.1320 -0.2614
  150SAPE   C3116506   5.881   3.316   5.358  0.0052 -0.4094 -0.1759
  150SAPE   O3216507   5.992   3.348   5.403 -0.2952 -0.0618  0.2696
  150SAPE   C3216508   5.866   3.242   5.225 -0.3739  0.0388  0.2002
  150SAPE   H2X16509   5.764   3.259   5.184 -0.5062 -2.1022 -0.4862
  150SAPE   H2Y16510   5.867   3.134   5.250  1.6106 -0.1085 -0.3369
  150SAPE   C2316511   5.752   3.741   5.260 -0.3288  0.3975 -0.3685
  150SAPE   H3R16512   5.656   3.686   5.254  0.2599 -1.3252  3.0677
  150SAPE   H3S16513   5.829   3.662   5.244 -0.8557 -0.8746  2.5982
  150SAPE   C2416514   5.767   3.853   5.151  0.0876 -0.1530 -0.5532
  150SAPE   H4R16515   5.871   3.889   5.162  0.6580 -0.7220 -3.2422
  150SAPE   H4S16516   5.697   3.937   5.169  0.8988  0.3994  0.0608
  150SAPE   C2516517   5.751   3.800   5.010 -0.0506 -0.2961 -0.4450
  150SAPE   H5R16518   5.646   3.780   4.986 -0.6844 -1.5539  2.8865
  150SAPE   C2616519   5.854   3.787   4.919 -0.0467 -0.9708 -0.0520
  150SAPE   H6R16520   5.824   3.756   4.817 -1.2138  0.4308 -0.1701
  150SAPE   C2716521   6.003   3.818   4.947  0.2845  0.7515 -0.2313
  150SAPE   H7R16522   6.038   3.748   5.027 -3.5804 -1.9242 -0.5630
  150SAPE   H7S16523   6.006   3.917   4.997  0.8618  0.7261 -0.2126
  150SAPE   C2816524   6.100   3.807   4.834 -0.8116 -0.0220  1.1952
  150SAPE   H8R16525   6.100   3.721   4.765 -0.2958 -0.1861  1.3965
  150SAPE   C2916526   6.190   3.904   4.799  0.0070 -0.1820 -0.2628
  150SAPE   H9R16527   6.258   3.891   4.713  1.8017  5.2320 -0.0360
  150SAPE  C21016528   6.184   4.046   4.846  0.7552  0.4922 -0.3330
  150SAPE  H10R16529   6.199   4.047   4.956 -0.9953  0.4228 -0.0762
  150SAPE  H10S16530   6.077   4.076   4.843  0.8656  1.2613  1.6298
  150SAPE  C21116531   6.281   4.141   4.787  0.1816 -0.1413  0.6538
  150SAPE  H11R16532   6.312   4.226   4.851  0.5434 -0.0649  0.3796
  150SAPE  C21216533   6.315   4.159   4.657 -0.3433 -0.5904  0.0587
  150SAPE  H12R16534   6.391   4.235   4.635  0.5389 -1.6548 -0.6445
  150SAPE  C21316535   6.264   4.088   4.533  0.3970 -0.4856 -0.7648
  150SAPE  H13R16536   6.256   4.162   4.450 -2.3267  0.3310  0.1548
  150SAPE  H13S16537   6.159   4.057   4.550  0.4288 -0.2788 -0.1975
  150SAPE  C21416538   6.356   3.980   4.489 -0.7657 -0.0386  0.4176
  150SAPE  H14R16539   6.465   3.988   4.506 -0.5543 -0.2285 -0.7345
  150SAPE  C21516540   6.309   3.868   4.445 -0.7991 -0.5601  0.0329
  150SAPE  H15R16541   6.380   3.794   4.406 -0.4544 -0.0284 -0.3741
  150SAPE  C21616542   6.172   3.823   4.417 -0.0337  0.3874 -0.2367
  150SAPE  H16R16543   6.089   3.898   4.419  0.9675  1.5326 -0.0811
  150SAPE  H16S16544   6.143   3.748   4.493  2.2952 -1.0054 -0.6220
  150SAPE  C21716545   6.156   3.768   4.278 -0.0947 -0.2286  0.3193
  150SAPE  H17R16546   6.236   3.696   4.253  0.3993  0.1237  0.8654
  150SAPE  H17S16547   6.145   3.840   4.194 -2.0338 -1.3142 -0.4069
  150SAPE  C21816548   6.031   3.680   4.265  0.4330 -0.1522  0.0569
  150SAPE  H18R16549   5.935   3.732   4.285  0.0700 -0.9037  0.3356
  150SAPE  H18S16550   6.034   3.600   4.343 -0.7102  0.0185  0.2974
  150SAPE  C21916551   6.011   3.624   4.119  0.9064 -0.1528 -0.1446
  150SAPE  H19R16552   6.083   3.542   4.095  2.3381  0.8690  0.5091
  150SAPE  H19S16553   6.033   3.699   4.041 -0.0735  0.1466 -0.1432
  150SAPE  C22016554   5.867   3.565   4.099 -0.7603  0.1499 -0.3631
  150SAPE  H20R16555   5.855   3.479   4.168 -1.3148  1.5152  1.3196
  150SAPE  H20S16556   5.846   3.515   4.002 -1.2718 -0.9903  0.3272
  150SAPE  H20T16557   5.778   3.625   4.130 -2.0928 -1.9053 -0.0436
  150SAPE   C3316558   5.969   3.263   5.108 -0.2800 -0.4311 -0.7420
  150SAPE   H3X16559   5.937   3.204   5.019 -0.2882 -1.4296 -0.0892
  150SAPE   H3Y16560   6.069   3.221   5.132 -1.7066 -3.2657  0.7551
  150SAPE   C3416561   5.984   3.414   5.077 -0.0723  1.0918  0.6472
  150SAPE   H4X16562   6.059   3.462   5.142  0.1373  1.1898  0.3361
  150SAPE   H4Y16563   5.886   3.465   5.087 -1.1745 -0.4923 -1.2479
  150SAPE   C3516564   6.035   3.438   4.932 -0.0637 -0.4509  0.1719
  150SAPE   H5X16565   6.115   3.366   4.906  0.9743  0.2696  1.2934
  150SAPE   H5Y16566   6.075   3.541   4.931 -1.3234  0.0559 -0.8991
  150SAPE   C3616567   5.919   3.420   4.834  0.5082 -0.2938  0.8629
  150SAPE   H6X16568   5.839   3.496   4.850  1.0734  0.5361 -0.1871
  150SAPE   H6Y16569   5.871   3.325   4.865  0.5240 -0.0091  1.7909
  150SAPE   C3716570   5.959   3.434   4.693 -0.0659 -0.2543  0.4531
  150SAPE   H7X16571   6.015   3.340   4.672 -1.5073 -1.2224  0.7987
  150SAPE   H7Y16572   6.031   3.518   4.685 -0.4268  0.2094  1.8199
  150SAPE   C3816573   5.841   3.452   4.597  0.4651 -0.2637 -0.7081
  150SAPE   H8X16574   5.760   3.382   4.625  0.8686 -1.1790 -1.7553
  150SAPE   H8Y16575   5.882   3.433   4.495 -1.8459 -0.1726 -1.7242
  150SAPE   C3916576   5.789   3.596   4.593 -0.1365 -0.0245 -0.1196
  150SAPE   H9X16577   5.872   3.668   4.610 -1.2148  0.8442  1.7918
  150SAPE   H9Y16578   5.732   3.617   4.685  2.6231  1.7303  1.3405
  150SAPE  C31016579   5.704   3.620   4.471 -0.5668 -0.1313  0.4133
  150SAPE  H10X16580   5.754   3.612   4.373  1.1380 -1.3838  1.3331
  150SAPE  H10Y16581   5.674   3.727   4.480  0.6148  0.1783  0.9211
  150SAPE  C31116582   5.575   3.535   4.475 -0.3014  0.5140  0.6486
  150SAPE  H11X16583   5.519   3.551   4.570 -2.1843  0.0390 -0.3337
  150SAPE  H11Y16584   5.615   3.433   4.460  0.4780  0.8874  0.1216
  150SAPE  C31216585   5.471   3.570   4.368 -0.0186  0.0676  0.5679
  150SAPE  H12X16586   5.389   3.496   4.359  0.4086 -0.2909 -0.6347
  150SAPE  H12Y16587   5.527   3.552   4.273  1.1484  1.2351  1.0053
  150SAPE  C31316588   5.409   3.712   4.374 -0.0132  0.2700  0.2117
  150SAPE  H13X16589   5.488   3.789   4.363  2.3672 -2.3281 -3.6177
  150SAPE  H13Y16590   5.357   3.722   4.471  0.4821 -0.3604  0.5534
  150SAPE  C31416591   5.309   3.721   4.254 -0.4061 -0.4432 -0.3615
  150SAPE  H14X16592   5.233   3.643   4.271 -0.2345 -0.7646 -1.0396
  150SAPE  H14Y16593   5.368   3.700   4.162  0.2427  1.7032 -0.4898
  150SAPE  C31516594   5.263   3.863   4.239 -0.0044  0.4315  0.2276
  150SAPE  H15X16595   5.349   3.930   4.218 -0.1515 -0.2061 -2.8630
  150SAPE  H15Y16596   5.204   3.899   4.326 -0.8402  1.1952 -0.6406
  150SAPE  C31616597   5.180   3.875   4.116 -0.1642  0.3483  0.0466
  150SAPE  H16X16598   5.093   3.812   4.147 -0.2088 -0.0785 -0.9266
  150SAPE  H16Y16599   5.222   3.817   4.031 -0.0395  1.1712 -0.4549
  150SAPE  C31716600   5.147   4.019   4.070  0.6116 -0.6900 -0.5805
  150SAPE  H17X16601   5.132   4.081   4.161 -0.5774 -1.0337 -0.5228
  150SAPE  H17Y16602   5.055   4.015   4.008 -0.5672 -2.2975  1.1651
  150SAPE  C31816603   5.262   4.084   3.997  0.7097  0.5509 -0.1693
  150SAPE  H18X16604   5.250   4.187   3.958 -0.5011  0.2532 -0.6282
  150SAPE  H18Y16605   5.287   4.020   3.909 -2.8727  0.5174 -1.3326
  150SAPE  H18Z16606   5.356   4.087   4.056  0.5722  0.0902  0.0784
  151SAPE     N16607   4.490   2.032   5.959 -0.1835 -0.0212 -0.0003
  151SAPE   HN116608   4.483   1.943   6.012 -0.5708 -0.5628 -0.9465
  151SAPE   HN216609   4.493   2.112   6.026  3.4179  0.7022 -0.8327
  151SAPE   HN316610   4.404   2.045   5.902  1.4593  1.4359 -2.3454
  151SAPE   C1216611   4.623   2.044   5.892  0.1936  0.0555 -0.1924
  151SAPE  H12A16612   4.634   2.154   5.875 -0.1236 -0.0601 -1.2378
  151SAPE  H12B16613   4.619   1.995   5.792  1.4795 -0.5687  0.0392
  151SAPE   C1116614   4.751   2.009   5.979 -0.4725  0.7122 -0.0987
  151SAPE  H11A16615   4.750   2.073   6.070 -2.0485 -0.1711  0.5647
  151SAPE  H11B16616   4.846   2.025   5.925  0.3329 -3.3225 -0.2395
  151SAPE     P16617   4.798   1.744   5.963  0.3065  0.3514 -0.3823
  151SAPE   O1316618   4.932   1.724   6.021 -0.6272 -0.2188 -0.4922
  151SAPE   O1416619   4.706   1.633   5.988  0.1107  0.0212  0.4717
  151SAPE   O1216620   4.734   1.872   6.027 -0.2647 -0.0926  0.0411
  151SAPE   O1116621   4.798   1.779   5.813 -0.4092 -0.2142 -0.4225
  151SAPE    C116622   4.798   1.676   5.721  0.3761 -0.5241 -0.2241
  151SAPE    HA16623   4.731   1.591   5.745 -1.5352  0.6154 -1.2496
  151SAPE    HB16624   4.762   1.711   5.622 -0.8199  0.3573  0.4906
  151SAPE    C216625   4.940   1.608   5.695  0.0964 -0.1081  0.2760
  151SAPE    HS16626   4.983   1.575   5.792  1.8702  1.7027  0.1810
  151SAPE   O2116627   5.024   1.712   5.634 -0.4251  0.3727 -0.3461
  151SAPE   C2116628   5.146   1.720   5.682 -0.1955 -0.1909 -0.4111
  151SAPE   O2216629   5.198   1.631   5.755 -0.4046 -0.0249  0.2026
  151SAPE   C2216630   5.218   1.844   5.636  0.6276  0.2628 -0.2777
  151SAPE   H2R16631   5.141   1.890   5.571 -0.0287 -2.2550 -1.4251
  151SAPE   H2S16632   5.222   1.911   5.725 -0.2472 -1.8378  1.4286
  151SAPE    C316633   4.930   1.482   5.607 -0.5242  0.6409  0.8488
  151SAPE    HX16634   4.886   1.401   5.670 -0.5472  1.2691  1.6496
  151SAPE    HY16635   5.030   1.441   5.582 -0.6394 -0.2651  1.8073
  151SAPE   O3116636   4.854   1.508   5.493  0.2975 -0.0724 -0.1624
  151SAPE   C3116637   4.884   1.443   5.381  0.2545 -0.4156  0.4406
  151SAPE   O3216638   4.967   1.356   5.357  0.5919  0.1964 -0.2974
  151SAPE   C3216639   4.780   1.487   5.276 -0.0234  0.0280  0.0600
  151SAPE   H2X16640   4.774   1.597   5.265 -1.0079 -0.1944 -2.1033
  151SAPE   H2Y16641   4.684   1.444   5.312 -1.1232  1.4348 -1.0901
  151SAPE   C2316642   5.354   1.818   5.568  0.3296 -0.8505  0.0064
  151SAPE   H3R16643   5.407   1.728   5.606  2.1597  0.4308  0.6446
  151SAPE   H3S16644   5.420   1.904   5.592 -0.4832 -0.0571 -0.5417
  151SAPE   C2416645   5.332   1.827   5.419 -0.2667 -0.0375 -0.1040
  151SAPE   H4R16646   5.422   1.849   5.358 -1.6392  1.2989 -1.7724
  151SAPE   H4S16647   5.277   1.922   5.404  2.4664  1.7296  0.4650
  151SAPE   C2516648   5.277   1.699   5.361 -0.0225  0.2578  0.0653
  151SAPE   H5R16649   5.303   1.606   5.413 -0.8556 -0.2382 -0.3959
  151SAPE   C2616650   5.200   1.683   5.259  0.3022 -0.3187  1.0341
  151SAPE   H6R16651   5.173   1.579   5.240 -1.8517  0.1890  1.0741
  151SAPE   C2716652   5.145   1.787   5.164 -0.2934  0.0035 -0.2117
  151SAPE   H7R16653   5.168   1.760   5.059  0.5483 -1.0216  0.2175
  151SAPE   H7S16654   5.207   1.877   5.178  0.2690 -0.1631 -1.5185
  151SAPE   C2816655   4.998   1.825   5.169 -0.3510  0.6001  0.6927
  151SAPE   H8R16656   4.959   1.797   5.268 -0.8150 -1.4786 -0.0237
  151SAPE   C2916657   4.921   1.882   5.077 -0.0662  0.4739  0.4894
  151SAPE   H9R16658   4.818   1.908   5.106 -0.7795 -1.6294  0.0466
  151SAPE  C21016659   4.958   1.897   4.936  0.0678 -0.2239  0.9344
  151SAPE  H10R16660   5.066   1.921   4.944 -0.1648  0.4671  2.3208
  151SAPE  H10S16661   4.915   1.995   4.904  1.4843  0.2253  0.3217
  151SAPE  C21116662   4.934   1.787   4.836 -0.3176 -0.1322  0.1870
  151SAPE  H11R16663   4.922   1.683   4.869 -3.0455 -0.4220 -1.3910
  151SAPE  C21216664   4.916   1.810   4.701  0.3910 -0.3751 -0.1235
  151SAPE  H12R16665   4.896   1.726   4.633 -1.3162  0.6108 -0.8898
  151SAPE  C21316666   4.927   1.947   4.634 -0.2792  0.1215 -0.5329
  151SAPE  H13R16667   4.888   2.023   4.704  0.0651 -1.7454  1.8057
  151SAPE  H13S16668   4.865   1.948   4.542 -1.5906  0.9216  0.3311
  151SAPE  C21416669   5.072   1.984   4.607 -0.0474 -0.0063  0.0580
  151SAPE  H14R16670   5.123   2.031   4.692  1.2961 -0.3974 -0.5067
  151SAPE  C21516671   5.148   1.967   4.494 -0.0716  0.8912 -0.3240
  151SAPE  H15R16672   5.255   1.988   4.507  0.0432 -0.5229  1.2423
  151SAPE  C21616673   5.109   1.912   4.363 -0.1778 -0.8645  0.6639
  151SAPE  H16R16674   5.014   1.855   4.360  0.2385 -1.5972 -2.5602
  151SAPE  H16S16675   5.180   1.832   4.332 -0.8204 -0.4627 -2.0752
  151SAPE  C21716676   5.099   2.022   4.250  0.4743 -0.7139  0.1261
  151SAPE  H17R16677   5.019   2.095   4.276  2.2655  1.6721 -0.6806
  151SAPE  H17S16678   5.070   1.965   4.159 -0.8139 -0.4040  0.3133
  151SAPE  C21816679   5.232   2.096   4.229  0.1678 -0.1256  0.3985
  151SAPE  H18R16680   5.313   2.022   4.215 -0.3047 -0.4510 -0.7182
  151SAPE  H18S16681   5.259   2.156   4.318  0.2716 -3.0538  2.4548
  151SAPE  C21916682   5.229   2.174   4.099  0.2077 -0.2103  0.1112
  151SAPE  H19R16683   5.132   2.227   4.101 -0.1060 -0.6359 -1.6624
  151SAPE  H19S16684   5.226   2.112   4.007 -0.7948  2.0236 -1.4545
  151SAPE  C22016685   5.351   2.272   4.106  0.0675  0.5779  0.6557
  151SAPE  H20R16686   5.343   2.335   4.197 -2.8563  1.5378 -0.1615
  151SAPE  H20S16687   5.359   2.335   4.016  0.5192  2.2766  1.8448
  151SAPE  H20T16688   5.440   2.205   4.103 -0.4864 -0.1705  0.6902
  151SAPE   C3316689   4.811   1.424   5.143 -0.0790  0.0218 -0.3960
  151SAPE   H3X16690   4.787   1.315   5.145  0.2901 -0.0697 -0.7982
  151SAPE   H3Y16691   4.918   1.442   5.117 -0.7674  0.4866 -3.3101
  151SAPE   C3416692   4.732   1.500   5.039 -0.1710 -0.0583  0.3801
  151SAPE   H4X16693   4.739   1.611   5.033  0.7969 -0.1201  0.0179
  151SAPE   H4Y16694   4.627   1.471   5.056  0.6292 -2.5261  1.6921
  151SAPE   C3516695   4.752   1.447   4.897  0.3546  0.7079 -0.3733
  151SAPE   H5X16696   4.728   1.339   4.891  4.0799 -0.3056  0.5724
  151SAPE   H5Y16697   4.857   1.461   4.864  1.3736 -1.8769  1.4601
  151SAPE   C3616698   4.669   1.510   4.784 -0.5842  0.1704 -0.4474
  151SAPE   H6X16699   4.691   1.618   4.794 -0.6103  0.2259 -0.9608
  151SAPE   H6Y16700   4.563   1.496   4.816 -0.5898  0.8724 -0.1351
  151SAPE   C3716701   4.684   1.446   4.648 -0.7379 -0.6463 -0.0005
  151SAPE   H7X16702   4.630   1.349   4.645  1.0262 -1.6724 -0.3416
  151SAPE   H7Y16703   4.794   1.435   4.636 -0.8360  0.5447 -2.7139
  151SAPE   C3816704   4.626   1.526   4.523 -0.1702  0.4888  0.2997
  151SAPE   H8X16705   4.665   1.473   4.433  1.0665  0.0639  1.0665
  151SAPE   H8Y16706   4.670   1.628   4.523  1.8734 -0.3496  0.1537
  151SAPE   C3916707   4.471   1.530   4.520  0.6990  0.1018  0.4320
  151SAPE   H9X16708   4.424   1.550   4.618 -1.2163 -0.2959 -0.3645
  151SAPE   H9Y16709   4.424   1.438   4.479 -1.3932  2.0162 -1.7171
  151SAPE  C31016710   4.408   1.636   4.435 -0.0637  0.1426  0.6944
  151SAPE  H10X16711   4.442   1.738   4.464 -0.1062  0.1926  0.5675
  151SAPE  H10Y16712   4.300   1.645   4.458  0.0243  1.6810  0.6607
  151SAPE  C31116713   4.422   1.609   4.284 -0.1170  0.2485  1.0310
  151SAPE  H11X16714   4.342   1.670   4.235  1.8892  2.5623  0.4769
  151SAPE  H11Y16715   4.416   1.499   4.264  0.1338  0.2196  1.1146
  151SAPE  C31216716   4.557   1.668   4.224  0.3822  0.1513  0.0057
  151SAPE  H12X16717   4.570   1.600   4.136 -1.7371  0.3102 -0.4985
  151SAPE  H12Y16718   4.646   1.661   4.290 -0.0556 -2.1203  0.4444
  151SAPE  C31316719   4.538   1.804   4.157 -0.8922 -0.7093  0.1903
  151SAPE  H13X16720   4.442   1.817   4.103  0.6937 -0.9524 -2.8760
  151SAPE  H13Y16721   4.619   1.802   4.081  1.1525 -1.4760  2.2521
  151SAPE  C31416722   4.571   1.926   4.243 -0.4184 -0.2502 -0.7988
  151SAPE  H14X16723   4.669   1.922   4.295 -0.4712  0.2427 -0.6554
  151SAPE  H14Y16724   4.492   1.923   4.321  1.1007  0.3224  0.8381
  151SAPE  C31516725   4.543   2.065   4.179 -0.4763 -0.4690 -0.2429
  151SAPE  H15X16726   4.444   2.082   4.131 -0.5708  1.2852  0.4983
  151SAPE  H15Y16727   4.613   2.072   4.092 -0.2088 -1.5177 -0.1262
  151SAPE  C31616728   4.567   2.183   4.275  0.1423  0.6396 -0.5916
  151SAPE  H16X16729   4.675   2.210   4.281  0.8869 -2.3099  2.1137
  151SAPE  H16Y16730   4.542   2.147   4.377  1.1303 -0.5189 -0.7216
  151SAPE  C31716731   4.482   2.305   4.244 -0.5924 -0.0849  0.0434
  151SAPE  H17X16732   4.485   2.370   4.333  2.2441 -0.2360  0.1646
  151SAPE  H17Y16733   4.379   2.273   4.218 -0.8786 -0.7024  1.7938
  151SAPE  C31816734   4.541   2.388   4.133  0.3313 -0.9237  0.3205
  151SAPE  H18X16735   4.479   2.473   4.098  5.1694  2.3939 -1.1266
  151SAPE  H18Y16736   4.553   2.328   4.041 -2.7857  1.3377 -1.7471
  151SAPE  H18Z16737   4.641   2.423   4.166  0.4924 -2.2763  1.3837
  152SAPE     N16738   1.213   2.919   6.135  0.0545  0.3564 -0.0769
  152SAPE   HN116739   1.311   2.884   6.146 -0.7451 -1.4264  2.2062
  152SAPE   HN216740   1.193   2.965   6.226  0.5543  1.6521 -0.6055
  152SAPE   HN316741   1.142   2.843   6.128  3.1605 -2.7104 -5.6627
  152SAPE   C1216742   1.212   3.002   6.013 -0.4992  0.4387  0.2317
  152SAPE  H12A16743   1.267   2.937   5.942 -1.4585 -1.5154  1.1832
  152SAPE  H12B16744   1.269   3.096   6.027 -1.9327  1.4494 -0.5240
  152SAPE   C1116745   1.071   3.027   5.961 -0.2485 -0.7228 -0.4390
  152SAPE  H11A16746   1.084   3.116   5.896  2.4646  0.1096  1.0720
  152SAPE  H11B16747   1.003   3.068   6.038  0.4820  0.3684 -0.3498
  152SAPE     P16748   0.916   2.818   5.958  0.1974  0.1647 -0.1715
  152SAPE   O1316749   0.980   2.755   6.074 -0.4391  0.6043  0.0382
  152SAPE   O1416750   0.796   2.896   5.985 -0.0863 -0.1102  0.0067
  152SAPE   O1216751   1.015   2.923   5.888 -0.3188  0.3928  0.1648
  152SAPE   O1116752   0.883   2.706   5.849 -0.0031 -0.4973 -0.3249
  152SAPE    C116753   1.002   2.646   5.790  0.7123 -0.3596 -0.0486
  152SAPE    HA16754   1.095   2.705   5.805 -1.3283  3.2015 -0.4838
  152SAPE    HB16755   1.013   2.544   5.833  0.8262 -0.6555 -0.7532
  152SAPE    C216756   0.974   2.640   5.634 -0.2772  0.5250  0.4417
  152SAPE    HS16757   0.913   2.548   5.618  0.8544 -0.6391  2.4270
  152SAPE   O2116758   1.103   2.629   5.568  0.2071 -0.3569 -0.1502
  152SAPE   C2116759   1.166   2.509   5.582 -0.4374  0.0635 -0.1571
  152SAPE   O2216760   1.120   2.416   5.641 -0.2026 -0.5398  0.2245
  152SAPE   C2216761   1.284   2.505   5.488  0.3663 -0.0972 -0.2588
  152SAPE   H2R16762   1.363   2.466   5.555 -0.7160  0.2321  1.2492
  152SAPE   H2S16763   1.269   2.421   5.416 -0.7832 -0.8149  0.7782
  152SAPE    C316764   0.915   2.756   5.562  0.3779 -0.7274  0.7555
  152SAPE    HX16765   0.996   2.832   5.566 -1.8411  1.7663  1.3636
  152SAPE    HY16766   0.830   2.803   5.615 -0.9998 -1.3968 -0.7840
  152SAPE   O3116767   0.883   2.726   5.425 -0.0884 -0.7163 -0.3580
  152SAPE   C3116768   0.760   2.673   5.407 -0.4725  0.5261  0.1051
  152SAPE   O3216769   0.691   2.631   5.497 -0.8674 -0.8465 -0.3256
  152SAPE   C3216770   0.720   2.661   5.268  0.3024  0.2371  0.4580
  152SAPE   H2X16771   0.781   2.588   5.211  1.2793  1.8140 -0.5778
  152SAPE   H2Y16772   0.735   2.764   5.229 -1.9120  1.0601  1.5745
  152SAPE   C2316773   1.311   2.642   5.417 -0.5783 -0.6085 -0.1626
  152SAPE   H3R16774   1.416   2.625   5.384 -0.9937 -0.6174 -1.5429
  152SAPE   H3S16775   1.299   2.736   5.474 -3.1061  0.2599 -1.9339
  152SAPE   C2416776   1.233   2.673   5.285  0.6673  0.2247  0.5179
  152SAPE   H4R16777   1.255   2.781   5.269  2.3111 -0.1815 -0.2133
  152SAPE   H4S16778   1.124   2.663   5.301  0.7973  0.2387  1.4176
  152SAPE   C2516779   1.274   2.582   5.166 -0.1983  0.6425 -0.0760
  152SAPE   H5R16780   1.378   2.547   5.161 -0.7915 -1.1700 -0.3208
  152SAPE   C2616781   1.194   2.547   5.059  0.0962  0.1629  0.3563
  152SAPE   H6R16782   1.234   2.477   4.985  2.6798  3.5411 -1.7466
  152SAPE   C2716783   1.050   2.592   5.027 -0.6688  0.2334 -0.5506
  152SAPE   H7R16784   0.986   2.543   5.104  1.1431 -2.3996 -0.5651
  152SAPE   H7S16785   1.016   2.534   4.938 -4.1773 -0.2822  0.9463
  152SAPE   C2816786   1.029   2.743   5.021 -0.1113  0.0927 -0.4739
  152SAPE   H8R16787   1.011   2.788   5.120 -0.1134  0.2886 -0.5637
  152SAPE   C2916788   1.023   2.814   4.911  0.4097 -0.8012  0.1682
  152SAPE   H9R16789   0.995   2.920   4.916 -0.4994 -0.9002 -1.8604
  152SAPE  C21016790   1.040   2.770   4.769 -0.1185 -0.1481  0.0045
  152SAPE  H10R16791   0.988   2.848   4.708  0.6041  1.3415  1.2044
  152SAPE  H10S16792   0.984   2.676   4.756 -0.0941  0.1566 -2.8086
  152SAPE  C21116793   1.182   2.730   4.724  0.5621  0.3810 -0.2788
  152SAPE  H11R16794   1.255   2.693   4.798 -0.7154 -1.0393  0.3104
  152SAPE  C21216795   1.217   2.725   4.601 -0.0166  0.0202 -0.0923
  152SAPE  H12R16796   1.323   2.706   4.579 -0.5942 -1.5404 -1.8590
  152SAPE  C21316797   1.140   2.769   4.482  0.6714  1.1558  0.4673
  152SAPE  H13R16798   1.216   2.778   4.402  0.7829 -0.3953  0.3628
  152SAPE  H13S16799   1.114   2.876   4.494  0.7200  1.3762 -1.1966
  152SAPE  C21416800   1.024   2.690   4.434  0.4874 -0.2220 -0.6440
  152SAPE  H14R16801   0.960   2.640   4.508  0.0637 -0.1112 -0.9310
  152SAPE  C21516802   0.968   2.697   4.312  0.2325  0.1490  0.1941
  152SAPE  H15R16803   0.874   2.641   4.297  0.3581 -0.4653  1.5163
  152SAPE  C21616804   1.015   2.779   4.193  0.5095  0.1327 -0.4614
  152SAPE  H16R16805   1.125   2.794   4.201  0.5313  0.1345 -0.7863
  152SAPE  H16S16806   0.957   2.874   4.202 -1.4689 -0.9840 -0.8294
  152SAPE  C21716807   0.992   2.704   4.053 -0.4073  0.0687 -0.9559
  152SAPE  H17R16808   0.887   2.725   4.025 -1.1199 -0.9395  0.7427
  152SAPE  H17S16809   1.015   2.595   4.061 -0.6493  0.0222 -0.8920
  152SAPE  C21816810   1.076   2.776   3.943  0.0895  0.1406  1.3274
  152SAPE  H18R16811   1.181   2.742   3.951  0.1250  0.0212  0.5243
  152SAPE  H18S16812   1.078   2.887   3.953  1.3326  0.2934 -0.2101
  152SAPE  C21916813   1.019   2.766   3.798  0.0174  0.3961 -0.1835
  152SAPE  H19R16814   0.935   2.839   3.801 -0.7465 -0.4239  3.7775
  152SAPE  H19S16815   0.985   2.661   3.785 -0.9325  0.7783 -0.9155
  152SAPE  C22016816   1.111   2.797   3.683  0.2902 -0.0502 -0.2468
  152SAPE  H20R16817   1.202   2.851   3.717 -0.3707  0.6363  0.4741
  152SAPE  H20S16818   1.065   2.859   3.603  1.0856 -0.7398 -1.2674
  152SAPE  H20T16819   1.150   2.708   3.629 -1.0482 -2.0428  1.8601
  152SAPE   C3316820   0.569   2.620   5.252  0.2502  0.3186  0.8338
  152SAPE   H3X16821   0.513   2.707   5.292 -0.0786  0.1309  0.7898
  152SAPE   H3Y16822   0.533   2.526   5.301 -0.0953  0.1428  0.2440
  152SAPE   C3416823   0.516   2.604   5.108  0.4379  0.0546 -0.0404
  152SAPE   H4X16824   0.406   2.617   5.106  0.5408  0.9267 -1.0822
  152SAPE   H4Y16825   0.541   2.501   5.074  0.2473  0.4862 -1.5835
  152SAPE   C3516826   0.574   2.702   5.006  0.2313  0.0808  0.3117
  152SAPE   H5X16827   0.684   2.712   5.015  0.5142 -0.5001 -1.9145
  152SAPE   H5Y16828   0.528   2.803   5.013 -0.0078  0.1349 -1.5402
  152SAPE   C3616829   0.535   2.661   4.863 -0.4757 -0.7049  0.9375
  152SAPE   H6X16830   0.429   2.690   4.853 -0.5349 -0.8447  1.1606
  152SAPE   H6Y16831   0.549   2.553   4.838  2.3821 -0.3249  0.5010
  152SAPE   C3716832   0.616   2.751   4.763  0.5235 -0.1856 -0.0784
  152SAPE   H7X16833   0.724   2.727   4.757  0.5014  0.1090 -2.3161
  152SAPE   H7Y16834   0.607   2.857   4.797  2.2926  0.3396 -1.0579
  152SAPE   C3816835   0.555   2.727   4.626 -0.2124 -0.7431  0.1334
  152SAPE   H8X16836   0.453   2.770   4.618  0.4896  0.8104 -0.8660
  152SAPE   H8Y16837   0.530   2.620   4.612  3.2192 -1.4812 -1.3117
  152SAPE   C3916838   0.637   2.791   4.513 -0.2204 -0.6534 -0.3036
  152SAPE   H9X16839   0.739   2.752   4.494  0.5435  1.0494  0.1318
  152SAPE   H9Y16840   0.646   2.899   4.539  0.8057 -0.7688 -0.1604
  152SAPE  C31016841   0.560   2.785   4.371 -0.8404 -0.0451 -0.4978
  152SAPE  H10X16842   0.458   2.826   4.382 -1.1929 -0.7580 -1.1022
  152SAPE  H10Y16843   0.553   2.679   4.340  0.1484 -1.0461  2.3310
  152SAPE  C31116844   0.635   2.875   4.269 -0.0795  0.1339  0.2135
  152SAPE  H11X16845   0.743   2.863   4.292 -0.0840 -1.0642 -0.2681
  152SAPE  H11Y16846   0.612   2.983   4.277 -0.6440  0.0885 -0.6166
  152SAPE  C31216847   0.595   2.844   4.121  0.0632  0.5204 -0.4247
  152SAPE  H12X16848   0.485   2.829   4.132 -0.0070  2.0326  1.4916
  152SAPE  H12Y16849   0.628   2.744   4.086 -0.6759  0.4510 -0.9520
  152SAPE  C31316850   0.614   2.964   4.028 -0.3980  0.7138  0.2406
  152SAPE  H13X16851   0.720   2.959   3.996 -0.1529 -2.0061  1.2134
  152SAPE  H13Y16852   0.601   3.057   4.087  2.6900  0.7702  0.9983
  152SAPE  C31416853   0.525   2.963   3.916  0.9670  0.4090 -0.4374
  152SAPE  H14X16854   0.418   2.966   3.943  1.0891  0.9269 -0.0094
  152SAPE  H14Y16855   0.547   2.860   3.879  1.1488  0.1559  0.3639
  152SAPE  C31516856   0.552   3.057   3.803 -0.0771 -0.5954  0.0272
  152SAPE  H15X16857   0.656   3.055   3.765 -0.9511 -0.5150 -2.5155
  152SAPE  H15Y16858   0.531   3.159   3.844  3.6281  0.3489 -0.0153
  152SAPE  C31616859   0.460   3.027   3.681 -0.1601  0.1078 -0.4815
  152SAPE  H16X16860   0.355   3.051   3.712  0.0524 -0.2265  0.5231
  152SAPE  H16Y16861   0.460   2.919   3.658 -1.4396  0.0740 -0.3996
  152SAPE  C31716862   0.488   3.116   3.560 -0.5331  0.4771  0.6217
  152SAPE  H17X16863   0.571   3.076   3.497 -0.2674  1.1389  0.5464
  152SAPE  H17Y16864   0.523   3.218   3.587  1.2685 -0.3377  1.5199
  152SAPE  C31816865   0.372   3.112   3.456  0.3106  0.1642 -0.3966
  152SAPE  H18X16866   0.341   3.011   3.420 -1.6719  1.2389 -1.9032
  152SAPE  H18Y16867   0.400   3.180   3.373  2.5008  1.0651  0.9555
  152SAPE  H18Z16868   0.290   3.163   3.511  2.0942  0.2606  2.3603
  153SAPE     N16869   5.913   3.008   5.910 -0.3664  0.0846  0.3461
  153SAPE   HN116870   6.007   3.023   5.952 -1.3996  0.9360  2.4769
  153SAPE   HN216871   5.843   3.009   5.987 -0.8104  1.4871 -0.0440
  153SAPE   HN316872   5.918   2.913   5.866 -1.2582  0.4209 -0.5257
  153SAPE   C1216873   5.890   3.110   5.804  0.7323  0.2214  0.1237
  153SAPE  H12A16874   5.858   3.206   5.850  0.0826  0.6559 -1.1853
  153SAPE  H12B16875   5.813   3.078   5.731  1.1644  1.1334 -0.7439
  153SAPE   C1116876   6.012   3.139   5.720 -0.2784 -0.2930 -0.3181
  153SAPE  H11A16877   5.994   3.237   5.670 -1.6333 -1.0372 -1.3490
  153SAPE  H11B16878   6.029   3.063   5.641  4.1300 -4.4823  3.9716
  153SAPE     P16879   6.218   3.259   5.820  0.3044  0.1473  0.0829
  153SAPE   O1316880   6.139   3.370   5.884  0.2986 -0.6239 -0.1755
  153SAPE   O1416881   6.330   3.216   5.904 -0.6922  0.3492  0.4900
  153SAPE   O1216882   6.124   3.136   5.801 -0.1363 -0.3442  0.0926
  153SAPE   O1116883   6.263   3.290   5.674  0.1907  0.5625  0.5958
  153SAPE    C116884   6.313   3.205   5.569  0.0691  0.8368  0.4394
  153SAPE    HA16885   6.272   3.104   5.587 -0.7447  1.1008  0.0683
  153SAPE    HB16886   6.271   3.244   5.474  0.8943  2.1234  0.5711
  153SAPE    C216887   6.465   3.207   5.570  0.5816 -0.8614 -0.0482
  153SAPE    HS16888   6.495   3.139   5.653  1.9291  0.4191  0.5594
  153SAPE   O2116889   6.513   3.345   5.596 -0.5225  0.5661  0.0769
  153SAPE   C2116890   6.640   3.354   5.640 -0.2795 -0.3463 -1.1017
  153SAPE   O2216891   6.698   3.261   5.677 -0.4226 -0.3030  0.6537
  153SAPE   C2216892   6.691   3.503   5.647  0.6682  0.7611 -0.3128
  153SAPE   H2R16893   6.621   3.559   5.712 -2.4264 -3.8155  0.8104
  153SAPE   H2S16894   6.795   3.504   5.687  1.1001  0.8028 -1.3866
  153SAPE    C316895   6.530   3.152   5.445 -0.4320 -0.3314 -0.4201
  153SAPE    HX16896   6.513   3.043   5.442 -0.2651 -0.3397 -2.3836
  153SAPE    HY16897   6.640   3.171   5.444 -0.8356  2.7481  1.0099
  153SAPE   O3116898   6.468   3.208   5.328  0.2249  0.6332  0.3804
  153SAPE   C3116899   6.527   3.295   5.244 -0.5404  0.5309  0.0203
  153SAPE   O3216900   6.646   3.320   5.253  0.0427  0.3795  0.6010
  153SAPE   C3216901   6.434   3.350   5.144 -0.2051  0.0117 -0.6630
  153SAPE   H2X16902   6.339   3.375   5.196 -0.3470  1.2684 -1.4803
  153SAPE   H2Y16903   6.411   3.272   5.068  2.3014  0.5281 -2.0872
  153SAPE   C2316904   6.686   3.578   5.508  1.0799  0.3306 -0.4143
  153SAPE   H3R16905   6.578   3.588   5.486  0.7642  0.0008  0.8828
  153SAPE   H3S16906   6.725   3.520   5.421 -2.4915 -0.6938 -1.4754
  153SAPE   C2416907   6.751   3.716   5.513  0.1394 -0.8575 -0.2193
  153SAPE   H4R16908   6.848   3.710   5.567  0.3566 -0.7256 -0.5936
  153SAPE   H4S16909   6.685   3.785   5.570  1.1426  0.1328 -0.2231
  153SAPE   C2516910   6.772   3.768   5.369 -0.0714 -0.7488 -0.2139
  153SAPE   H5R16911   6.701   3.842   5.331  0.4067 -0.5006 -0.6310
  153SAPE   C2616912   6.883   3.748   5.292  0.4135 -0.4284 -0.0949
  153SAPE   H6R16913   6.883   3.795   5.193  2.2926  0.4173  0.2449
  153SAPE   C2716914   7.001   3.655   5.317 -0.1140  0.0757 -0.0633
  153SAPE   H7R16915   6.994   3.630   5.425  1.6632  1.8925  0.5314
  153SAPE   H7S16916   7.099   3.704   5.302 -0.5039  1.4107  1.5082
  153SAPE   C2816917   6.991   3.525   5.237  0.2643  0.2598  0.0686
  153SAPE   H8R16918   6.889   3.487   5.216  0.5469 -0.2275 -0.4458
  153SAPE   C2916919   7.095   3.461   5.176 -0.9190  0.2374  0.1220
  153SAPE   H9R16920   7.067   3.387   5.099 -0.9867 -1.2988  1.5787
  153SAPE  C21016921   7.236   3.519   5.184  0.7931  0.2888 -0.0488
  153SAPE  H10R16922   7.260   3.554   5.287  0.0260  0.0399  0.2209
  153SAPE  H10S16923   7.248   3.593   5.102 -0.6758  1.2254  0.5328
  153SAPE  C21116924   7.341   3.410   5.155  0.7216  0.0128 -0.2750
  153SAPE  H11R16925   7.341   3.320   5.219 -0.0094  0.2834  0.1203
  153SAPE  C21216926   7.420   3.412   5.046  0.0177  0.2561 -0.6355
  153SAPE  H12R16927   7.481   3.322   5.028 -1.3341 -0.3506 -2.6123
  153SAPE  C21316928   7.428   3.511   4.935  0.6724 -0.2727  0.0201
  153SAPE  H13R16929   7.536   3.532   4.918  0.5852 -0.8173 -1.2724
  153SAPE  H13S16930   7.378   3.606   4.962 -0.5661 -1.1178  0.7909
  153SAPE  C21416931   7.359   3.445   4.818  1.2114 -0.3780 -1.1908
  153SAPE  H14R16932   7.257   3.408   4.839  0.8320  2.0660  1.9652
  153SAPE  C21516933   7.399   3.438   4.691 -0.3483 -0.3304  0.7384
  153SAPE  H15R16934   7.336   3.408   4.606 -1.0292  1.2987  0.6329
  153SAPE  C21616935   7.537   3.494   4.675 -0.3473  0.2312  0.4419
  153SAPE  H16R16936   7.615   3.444   4.737 -0.1700 -0.3275 -0.2133
  153SAPE  H16S16937   7.544   3.602   4.699  0.2060  0.1872  0.5055
  153SAPE  C21716938   7.572   3.455   4.525  0.4687  0.0139 -0.5017
  153SAPE  H17R16939   7.505   3.514   4.459  2.9176  2.1079 -1.2647
  153SAPE  H17S16940   7.565   3.347   4.497  0.6982  0.5350 -2.7684
  153SAPE  C21816941   7.708   3.518   4.487 -0.1899  0.4307 -0.4644
  153SAPE  H18R16942   7.783   3.475   4.556 -0.6043  0.5815  0.0821
  153SAPE  H18S16943   7.712   3.629   4.493  0.0718  0.3437  1.4951
  153SAPE  C21916944   7.754   3.471   4.348  0.4773  0.3090  0.5431
  153SAPE  H19R16945   7.852   3.516   4.323 -0.1027 -0.0989 -3.0841
  153SAPE  H19S16946   7.689   3.522   4.273 -0.2344  0.4099  1.2182
  153SAPE  C22016947   7.754   3.320   4.339 -0.0340  0.0670 -0.3380
  153SAPE  H20R16948   7.796   3.289   4.241  0.5428 -0.1787 -0.0169
  153SAPE  H20S16949   7.648   3.286   4.332  0.0595 -0.6482  1.2866
  153SAPE  H20T16950   7.811   3.261   4.414 -1.0235 -0.4303  0.0473
  153SAPE   C3316951   6.501   3.463   5.067 -0.1201  0.4712  0.4818
  153SAPE   H3X16952   6.597   3.423   5.027  0.5760  1.5323  1.0408
  153SAPE   H3Y16953   6.534   3.548   5.131 -0.0490 -0.1767  1.3188
  153SAPE   C3416954   6.406   3.502   4.952  0.4404 -0.8214 -0.1200
  153SAPE   H4X16955   6.303   3.526   4.986  1.3277  1.8980  0.9010
  153SAPE   H4Y16956   6.388   3.414   4.885 -1.4370  0.4374 -1.3611
  153SAPE   C3516957   6.460   3.618   4.865 -0.2281 -0.1977  0.1228
  153SAPE   H5X16958   6.443   3.715   4.917  1.8619 -0.1165  0.7389
  153SAPE   H5Y16959   6.404   3.628   4.770 -0.1415  0.3823  0.1292
  153SAPE   C3616960   6.608   3.618   4.821 -0.2506  0.3054  0.7527
  153SAPE   H6X16961   6.674   3.640   4.908  0.2672  2.4161 -0.1053
  153SAPE   H6Y16962   6.616   3.694   4.740  0.7447 -1.0715 -0.4904
  153SAPE   C3716963   6.662   3.488   4.760 -1.1855  0.2598  0.4882
  153SAPE   H7X16964   6.607   3.459   4.668  0.1770  0.1451 -0.3124
  153SAPE   H7Y16965   6.665   3.401   4.829  1.1800 -0.0449  0.0770
  153SAPE   C3816966   6.807   3.516   4.715 -0.1773  0.6955 -0.5559
  153SAPE   H8X16967   6.872   3.550   4.798  1.1295  0.6596 -1.5210
  153SAPE   H8Y16968   6.805   3.591   4.633  0.4814 -0.6326 -1.8355
  153SAPE   C3916969   6.878   3.392   4.650  0.1291 -0.2213  0.2001
  153SAPE   H9X16970   6.816   3.344   4.571 -0.6326  0.3669  0.4319
  153SAPE   H9Y16971   6.895   3.311   4.725 -2.3114 -0.9088  0.1169
  153SAPE  C31016972   7.019   3.431   4.602  0.1277  1.0537 -0.7621
  153SAPE  H10X16973   7.072   3.333   4.596  1.6580  1.7742  0.4316
  153SAPE  H10Y16974   7.077   3.476   4.685 -0.6254 -0.8533  0.8900
  153SAPE  C31116975   7.023   3.495   4.462 -0.4393  0.2823 -0.2595
  153SAPE  H11X16976   6.975   3.595   4.458 -0.4433  0.3048  0.1980
  153SAPE  H11Y16977   6.972   3.433   4.386 -0.9587  1.6659 -1.0632
  153SAPE  C31216978   7.169   3.521   4.414  0.6370  0.3527 -0.0501
  153SAPE  H12X16979   7.214   3.419   4.411  0.0977  0.0548  1.3167
  153SAPE  H12Y16980   7.223   3.584   4.488 -0.9819 -0.5757  2.0431
  153SAPE  C31316981   7.198   3.572   4.273 -0.1920  0.4759  0.5975
  153SAPE  H13X16982   7.170   3.679   4.271 -1.3782  0.1652 -0.5480
  153SAPE  H13Y16983   7.142   3.507   4.202 -0.8414 -0.2849  1.7733
  153SAPE  C31416984   7.342   3.552   4.226 -0.0309 -0.0056  0.2171
  153SAPE  H14X16985   7.370   3.446   4.237  2.0174  0.5401  0.6959
  153SAPE  H14Y16986   7.403   3.616   4.293  1.0076 -0.8738  0.1166
  153SAPE  C31516987   7.377   3.583   4.078  0.5834  0.3040  0.0264
  153SAPE  H15X16988   7.306   3.524   4.016  2.3967 -1.3995 -0.5424
  153SAPE  H15Y16989   7.474   3.532   4.056 -0.5976 -1.5800 -1.1977
  153SAPE  C31616990   7.369   3.727   4.030 -0.7730 -0.4125  0.1999
  153SAPE  H16X16991   7.447   3.780   4.089  2.0020 -3.3966 -0.4657
  153SAPE  H16Y16992   7.270   3.773   4.051 -0.4006  0.9999 -0.9756
  153SAPE  C31716993   7.395   3.731   3.877 -0.6609 -0.0041 -0.7037
  153SAPE  H17X16994   7.330   3.656   3.827 -1.1958 -0.3063  0.4139
  153SAPE  H17Y16995   7.500   3.695   3.868 -1.4804 -2.5453 -0.8518
  153SAPE  C31816996   7.363   3.868   3.815 -0.4014 -0.3415  0.9511
  153SAPE  H18X16997   7.277   3.921   3.861 -1.4387  0.9981 -2.2767
  153SAPE  H18Y16998   7.335   3.847   3.710  0.3203 -0.6079  0.8051
  153SAPE  H18Z16999   7.461   3.921   3.815  0.6700 -2.1592 -1.3902
  154SAPE     N17000   3.872   0.357   5.770  0.1682 -0.5868  0.1972
  154SAPE   HN117001   3.819   0.383   5.856  0.2338 -1.3297  0.4678
  154SAPE   HN217002   3.971   0.335   5.791  0.2265 -0.5135  0.0026
  154SAPE   HN317003   3.868   0.431   5.697  0.1882 -0.2131  0.5743
  154SAPE   C1217004   3.801   0.235   5.702 -0.2252 -0.0963  0.2860
  154SAPE  H12A17005   3.879   0.207   5.627  0.7521  0.4827  1.0523
  154SAPE  H12B17006   3.709   0.283   5.661 -0.3563 -0.0728  0.6089
  154SAPE   C1117007   3.761   0.135   5.811 -0.3071  0.2618  0.2013
  154SAPE  H11A17008   3.688   0.064   5.766 -2.0526  0.8150  2.0166
  154SAPE  H11B17009   3.708   0.173   5.901  0.4771 -0.3366  0.9333
  154SAPE     P17010   3.940  -0.065   5.811 -0.0740 -0.0902 -0.0056
  154SAPE   O1317011   4.069  -0.093   5.873  0.7006  0.7712  0.5895
  154SAPE   O1417012   3.838  -0.159   5.839 -0.1222  0.4262 -0.1853
  154SAPE   O1217013   3.879   0.067   5.866 -0.4312  0.2737 -0.1329
  154SAPE   O1117014   3.946  -0.041   5.654  0.3101  0.3574  0.4458
  154SAPE    C117015   3.891  -0.125   5.556 -0.2386 -0.1936  0.2396
  154SAPE    HA17016   3.787  -0.165   5.566 -0.1523 -0.6072 -0.5066
  154SAPE    HB17017   3.894  -0.080   5.455 -0.3296  0.4458  0.5160
  154SAPE    C217018   3.986  -0.247   5.539 -0.6875  0.0089  0.1897
  154SAPE    HS17019   4.000  -0.287   5.642 -1.2506  0.2402  0.3560
  154SAPE   O2117020   4.103  -0.194   5.478  0.0496  0.3166  0.5200
  154SAPE   C2117021   4.212  -0.266   5.490 -0.7825  0.3397  0.4066
  154SAPE   O2217022   4.223  -0.355   5.571 -0.3694  0.3414  0.1291
  154SAPE   C2217023   4.321  -0.220   5.393  0.4916 -0.0230  0.5261
  154SAPE   H2R17024   4.266  -0.191   5.301  0.4482  0.5488  0.7259
  154SAPE   H2S17025   4.368  -0.131   5.440  1.8384 -0.2634 -0.3206
  154SAPE    C317026   3.916  -0.355   5.448  0.8689 -0.5640  0.0351
  154SAPE    HX17027   3.828  -0.384   5.509  1.3330 -0.2878  0.8457
  154SAPE    HY17028   3.978  -0.447   5.445  2.4517  0.4979 -1.7391
  154SAPE   O3117029   3.887  -0.300   5.314  0.4091 -0.5029 -0.1364
  154SAPE   C3117030   3.978  -0.321   5.219  0.2157 -0.9441  0.0303
  154SAPE   O3217031   4.072  -0.400   5.231 -0.2958  0.1182  0.1401
  154SAPE   C3217032   3.934  -0.245   5.100  0.4312 -0.1652  0.4562
  154SAPE   H2X17033   3.964  -0.142   5.130  0.9138 -0.1523 -0.0392
  154SAPE   H2Y17034   3.824  -0.245   5.088  0.1233  3.8919  1.6140
  154SAPE   C2317035   4.411  -0.335   5.344 -0.7674 -0.3367  0.5447
  154SAPE   H3R17036   4.360  -0.430   5.316 -1.4718 -0.3029  1.6786
  154SAPE   H3S17037   4.497  -0.348   5.412  1.0175 -1.1093 -1.7378
  154SAPE   C2417038   4.468  -0.297   5.202 -0.0161  0.2158 -0.4423
  154SAPE   H4R17039   4.383  -0.294   5.130 -2.7939 -0.7165  2.5114
  154SAPE   H4S17040   4.532  -0.380   5.166  1.2042  0.4631  1.0414
  154SAPE   C2517041   4.564  -0.177   5.199  0.2313  0.1945 -0.3970
  154SAPE   H5R17042   4.644  -0.159   5.273 -0.2965  0.2506  0.1682
  154SAPE   C2617043   4.557  -0.080   5.106 -0.2100  0.2304  0.1242
  154SAPE   H6R17044   4.631  -0.001   5.090 -1.2023  1.0826 -0.4081
  154SAPE   C2717045   4.454  -0.079   4.991  0.5826 -0.0562  0.4219
  154SAPE   H7R17046   4.361  -0.132   5.018  0.0451 -0.2970 -1.6928
  154SAPE   H7S17047   4.502  -0.120   4.899 -0.4337  0.4648 -0.3522
  154SAPE   C2817048   4.412   0.063   4.954 -0.3692  0.9545  0.4026
  154SAPE   H8R17049   4.489   0.107   4.888 -0.2243 -1.8088 -1.4430
  154SAPE   C2917050   4.312   0.139   5.007 -0.2095 -0.1758 -0.1321
  154SAPE   H9R17051   4.273   0.226   4.952 -3.3618  0.3863  2.6321
  154SAPE  C21017052   4.230   0.082   5.119  0.0735 -0.8836  0.9416
  154SAPE  H10R17053   4.290   0.048   5.206 -0.6808  0.4703  2.0362
  154SAPE  H10S17054   4.177  -0.003   5.071 -0.0460  0.5574 -1.6618
  154SAPE  C21117055   4.130   0.194   5.169  0.4406  0.0668  0.0420
  154SAPE  H11R17056   4.173   0.251   5.252 -0.5957  0.4968  0.3057
  154SAPE  C21217057   4.014   0.233   5.115 -0.8246 -0.5403 -0.2372
  154SAPE  H12R17058   3.954   0.310   5.165 -1.1633 -0.1797 -1.1849
  154SAPE  C21317059   3.958   0.176   4.990  0.3975  0.2471 -0.7643
  154SAPE  H13R17060   4.033   0.145   4.914  1.0270 -0.5054  0.1373
  154SAPE  H13S17061   3.911   0.265   4.943 -0.9112 -1.3405 -2.6307
  154SAPE  C21417062   3.845   0.080   5.005 -0.0793  0.2563 -0.0506
  154SAPE  H14R17063   3.813   0.053   5.107 -3.4118  3.8683  0.0706
  154SAPE  C21517064   3.791   0.007   4.903 -0.0898 -1.0360 -0.0906
  154SAPE  H15R17065   3.713  -0.066   4.927 -1.1103 -0.5261 -1.6847
  154SAPE  C21617066   3.830   0.017   4.755 -0.3157 -0.3968  0.3214
  154SAPE  H16R17067   3.923  -0.036   4.726 -0.0954 -0.7642  1.6464
  154SAPE  H16S17068   3.864   0.119   4.725  2.0198 -1.1494  0.2014
  154SAPE  C21717069   3.715  -0.013   4.658 -0.0777  0.3919 -0.3830
  154SAPE  H17R17070   3.633   0.061   4.669  0.6658  0.9976  1.5222
  154SAPE  H17S17071   3.676  -0.108   4.701 -0.1276  1.4263  2.0476
  154SAPE  C21817072   3.755  -0.036   4.517 -0.2879 -0.6017  0.5322
  154SAPE  H18R17073   3.802  -0.136   4.501  0.6107 -0.0941 -0.0923
  154SAPE  H18S17074   3.817   0.055   4.500 -3.0932  1.8333  2.3794
  154SAPE  C21917075   3.639  -0.029   4.416  0.1399 -0.1772 -0.5012
  154SAPE  H19R17076   3.596   0.073   4.420 -0.8577 -0.6388  2.1538
  154SAPE  H19S17077   3.564  -0.092   4.468 -2.9239  2.2792 -1.6680
  154SAPE  C22017078   3.665  -0.068   4.273  0.3855  0.1759  0.1587
  154SAPE  H20R17079   3.700   0.013   4.205  1.0736 -1.1843 -1.1538
  154SAPE  H20S17080   3.570  -0.091   4.220  0.0077 -0.1745  0.9656
  154SAPE  H20T17081   3.729  -0.159   4.271  0.5847  0.3140 -2.0642
  154SAPE   C3317082   4.027  -0.279   4.980  0.4241  0.4896 -1.0401
  154SAPE   H3X17083   4.135  -0.280   5.003  0.6747 -1.1728 -2.1554
  154SAPE   H3Y17084   4.013  -0.214   4.891 -0.3462 -0.1399 -1.3943
  154SAPE   C3417085   4.009  -0.418   4.911 -0.0040 -0.0744  0.2904
  154SAPE   H4X17086   3.899  -0.431   4.904  0.0970 -0.9079  0.1606
  154SAPE   H4Y17087   4.052  -0.503   4.969  0.3234 -0.6281 -0.7388
  154SAPE   C3517088   4.068  -0.417   4.766 -0.7574  0.5113  0.0245
  154SAPE   H5X17089   4.016  -0.329   4.722 -0.9075  0.7846  0.7477
  154SAPE   H5Y17090   4.035  -0.510   4.715 -0.9695  0.2077  0.7114
  154SAPE   C3617091   4.225  -0.415   4.768  0.2880  0.0349 -0.3048
  154SAPE   H6X17092   4.261  -0.512   4.809  1.2896  0.3390 -0.4334
  154SAPE   H6Y17093   4.259  -0.346   4.847 -1.0985  1.8156 -1.2029
  154SAPE   C3717094   4.283  -0.390   4.635  0.4064 -0.1345  0.0724
  154SAPE   H7X17095   4.220  -0.419   4.549  1.3533  2.8832 -1.8297
  154SAPE   H7Y17096   4.376  -0.451   4.639  0.2294 -0.5295 -1.3672
  154SAPE   C3817097   4.350  -0.250   4.627  0.7101 -0.3962 -0.4128
  154SAPE   H8X17098   4.412  -0.239   4.536  0.4323  0.8871 -0.4673
  154SAPE   H8Y17099   4.407  -0.221   4.718 -1.0265 -0.8560  0.8822
  154SAPE   C3917100   4.240  -0.141   4.614  0.1788 -0.3206  0.5863
  154SAPE   H9X17101   4.183  -0.124   4.707  2.0177 -0.5065  1.8127
  154SAPE   H9Y17102   4.163  -0.176   4.542 -1.4395  1.6981  1.2563
  154SAPE  C31017103   4.302  -0.011   4.557 -0.2030  0.3267 -0.5320
  154SAPE  H10X17104   4.332  -0.014   4.450 -1.2898  1.3428 -0.8924
  154SAPE  H10Y17105   4.394  -0.009   4.619 -1.6803 -0.7868  1.7921
  154SAPE  C31117106   4.216   0.120   4.578 -1.4191  0.2672 -0.2070
  154SAPE  H11X17107   4.259   0.220   4.554 -2.1634  0.0858 -2.5676
  154SAPE  H11Y17108   4.180   0.127   4.683 -0.9382  1.3530 -0.0921
  154SAPE  C31217109   4.089   0.127   4.493  0.2333  0.5164 -0.7206
  154SAPE  H12X17110   4.012   0.201   4.522 -2.3146 -1.4091 -2.0623
  154SAPE  H12Y17111   4.044   0.028   4.515  1.2463  0.1247 -0.3590
  154SAPE  C31317112   4.123   0.138   4.339 -0.3436 -0.3805  0.2103
  154SAPE  H13X17113   4.222   0.186   4.331 -1.1092  1.1074 -0.5576
  154SAPE  H13Y17114   4.039   0.199   4.301  1.1489  0.9737 -1.0335
  154SAPE  C31417115   4.112   0.010   4.261 -0.3666  0.3578  1.0318
  154SAPE  H14X17116   4.007  -0.024   4.257  1.0897 -4.8792 -1.6316
  154SAPE  H14Y17117   4.176  -0.070   4.304  0.8935  0.9634  0.3290
  154SAPE  C31517118   4.152   0.029   4.110  0.0240  0.6539 -0.1093
  154SAPE  H15X17119   4.091   0.111   4.067  0.7832  1.1171 -0.3146
  154SAPE  H15Y17120   4.121  -0.063   4.055 -0.5763  1.6282 -1.4403
  154SAPE  C31617121   4.300   0.066   4.081 -0.2449 -0.4457 -0.3184
  154SAPE  H16X17122   4.365  -0.013   4.124 -1.1507 -0.9933  0.0970
  154SAPE  H16Y17123   4.329   0.164   4.124  2.1733 -1.0195 -0.4980
  154SAPE  C31717124   4.323   0.066   3.929  0.1827  0.1498  0.2566
  154SAPE  H17X17125   4.385   0.152   3.897  1.2406 -0.6949 -0.0149
  154SAPE  H17Y17126   4.219   0.070   3.891  0.0746 -3.6530 -0.2123
  154SAPE  C31817127   4.406  -0.048   3.875 -0.1721  0.0961 -0.1083
  154SAPE  H18X17128   4.398  -0.056   3.764 -0.5874 -3.2032  0.0608
  154SAPE  H18Y17129   4.357  -0.141   3.910 -1.2921 -0.3169 -2.5488
  154SAPE  H18Z17130   4.513  -0.035   3.900 -0.2753  0.5232  0.1271
  155SAPE     N17131   5.330   7.038   5.791  0.1065  0.3857  0.1459
  155SAPE   HN117132   5.259   7.077   5.857 -0.6382 -2.0505  0.9003
  155SAPE   HN217133   5.310   6.936   5.804 -2.4760  0.8661  0.5962
  155SAPE   HN317134   5.426   7.052   5.827  0.3264 -3.1258  1.3021
  155SAPE   C1217135   5.292   7.096   5.661  0.3612 -0.4150  0.8257
  155SAPE  H12A17136   5.342   7.035   5.583 -0.1521 -0.5392  0.5927
  155SAPE  H12B17137   5.336   7.198   5.657  0.6287 -0.4488  2.3167
  155SAPE   C1117138   5.138   7.103   5.642  0.3615 -0.0483  0.3961
  155SAPE  H11A17139   5.093   7.003   5.659 -0.0974 -0.0840 -0.8684
  155SAPE  H11B17140   5.118   7.128   5.535 -0.4435 -0.5130  0.4336
  155SAPE     P17141   5.013   7.192   5.860 -0.0666  0.0655 -0.4672
  155SAPE   O1317142   5.107   7.107   5.936 -0.3921 -0.4516  0.0034
  155SAPE   O1417143   4.983   7.327   5.917 -0.3061  0.3673  0.2597
  155SAPE   O1217144   5.075   7.203   5.723  0.4853  0.2352  0.3987
  155SAPE   O1117145   4.878   7.113   5.838 -0.0240  0.2245 -0.3311
  155SAPE    C117146   4.783   7.156   5.743  0.9992 -0.0838  0.2424
  155SAPE    HA17147   4.698   7.202   5.798 -0.3940 -0.7994 -1.2229
  155SAPE    HB17148   4.827   7.221   5.664  1.4910 -1.0901 -0.3323
  155SAPE    C217149   4.717   7.041   5.653  0.0116 -0.0830  0.3587
  155SAPE    HS17150   4.690   6.962   5.726 -0.1445  0.6003  1.0460
  155SAPE   O2117151   4.826   6.994   5.567 -0.5354  0.1369 -0.0085
  155SAPE   C2117152   4.806   6.876   5.520 -0.1307 -0.3015 -0.1780
  155SAPE   O2217153   4.715   6.799   5.548  0.5890 -0.5181  0.2176
  155SAPE   C2217154   4.925   6.835   5.427  0.8690 -0.6439  0.0324
  155SAPE   H2R17155   4.986   6.924   5.401  1.0496 -1.3031 -2.0293
  155SAPE   H2S17156   5.002   6.773   5.477  2.0314  0.3526 -0.4512
  155SAPE    C317157   4.604   7.090   5.563  0.9727 -0.6752 -0.5547
  155SAPE    HX17158   4.523   7.150   5.610 -0.8482 -1.2629 -2.7510
  155SAPE    HY17159   4.550   6.999   5.528 -2.4503  1.2596 -0.7479
  155SAPE   O3117160   4.656   7.169   5.451 -0.1706 -0.0830  0.8816
  155SAPE   C3117161   4.665   7.299   5.475 -0.7367  0.3005  0.2468
  155SAPE   O3217162   4.636   7.359   5.574 -0.0810  0.1559 -0.3572
  155SAPE   C3217163   4.722   7.369   5.347 -0.8430  0.0810 -0.6801
  155SAPE   H2X17164   4.753   7.473   5.372  0.9558 -0.5235 -0.1648
  155SAPE   H2Y17165   4.641   7.368   5.272 -0.7551 -1.2707 -0.7830
  155SAPE   C2317166   4.890   6.779   5.281  0.2659  0.2131  0.2594
  155SAPE   H3R17167   4.831   6.856   5.226  0.3692  0.1300  0.0305
  155SAPE   H3S17168   4.822   6.691   5.284 -0.1653  0.2741 -3.2924
  155SAPE   C2417169   4.997   6.742   5.184  0.1229  0.8411  0.0781
  155SAPE   H4R17170   4.966   6.681   5.097  0.2915  0.0467  0.5624
  155SAPE   H4S17171   5.061   6.666   5.234  0.0023  0.3840 -0.4499
  155SAPE   C2517172   5.076   6.864   5.139  0.4811  0.6125  0.7237
  155SAPE   H5R17173   5.135   6.917   5.216  1.3593  0.8151 -0.0821
  155SAPE   C2617174   5.080   6.921   5.011  0.4968 -0.2618 -0.1646
  155SAPE   H6R17175   5.146   7.008   4.997  1.2333 -0.8355 -0.3527
  155SAPE   C2717176   5.002   6.866   4.890  0.1423  0.1455 -0.6837
  155SAPE   H7R17177   4.892   6.875   4.909  0.6121  3.9397  1.2631
  155SAPE   H7S17178   5.028   6.758   4.885  0.6962  0.1828  0.8424
  155SAPE   C2817179   5.039   6.935   4.756 -0.9593  0.0007 -0.1450
  155SAPE   H8R17180   5.107   6.884   4.686 -0.3184  0.5540  0.0634
  155SAPE   C2917181   4.990   7.054   4.718 -0.0085  0.3934  0.4239
  155SAPE   H9R17182   5.019   7.089   4.618  1.7700 -2.9729 -0.3972
  155SAPE  C21017183   4.880   7.133   4.792 -0.3266  0.1870 -0.1486
  155SAPE  H10R17184   4.922   7.171   4.888 -0.6431 -2.8925  1.3103
  155SAPE  H10S17185   4.811   7.058   4.834  0.3967  0.1803  1.0673
  155SAPE  C21117186   4.823   7.254   4.723 -0.3248 -0.0506  0.0863
  155SAPE  H11R17187   4.823   7.339   4.792  0.5741 -0.7549  0.9836
  155SAPE  C21217188   4.766   7.263   4.605 -0.0446 -0.6173  0.3904
  155SAPE  H12R17189   4.726   7.359   4.568  1.0877 -0.9797 -1.9874
  155SAPE  C21317190   4.733   7.157   4.498  0.3358 -0.3992 -0.1443
  155SAPE  H13R17191   4.668   7.082   4.548 -1.7263 -0.6110 -2.8891
  155SAPE  H13S17192   4.824   7.106   4.459  0.6643  1.5593 -2.1251
  155SAPE  C21417193   4.639   7.203   4.393  1.0855  0.6738 -0.2645
  155SAPE  H14R17194   4.540   7.156   4.389  0.7220  1.0925  2.1165
  155SAPE  C21517195   4.666   7.299   4.312  0.0189 -0.4219 -0.1748
  155SAPE  H15R17196   4.592   7.332   4.237  0.0841 -0.8701 -0.4445
  155SAPE  C21617197   4.788   7.377   4.307 -0.3092 -0.1998 -0.4442
  155SAPE  H16R17198   4.868   7.340   4.375 -1.3053  0.4632  1.1455
  155SAPE  H16S17199   4.778   7.478   4.352 -0.3686 -1.5926  2.9231
  155SAPE  C21717200   4.830   7.371   4.165 -0.8270  0.1775 -0.5213
  155SAPE  H17R17201   4.743   7.384   4.097 -0.4149 -0.9095 -1.2920
  155SAPE  H17S17202   4.878   7.272   4.147  0.7101  0.4555  1.6322
  155SAPE  C21817203   4.942   7.479   4.127 -0.3483  0.2730  0.1624
  155SAPE  H18R17204   5.016   7.502   4.207  0.1954 -1.0292  0.0583
  155SAPE  H18S17205   4.890   7.577   4.129  0.6615  0.8971 -1.5830
  155SAPE  C21917206   5.026   7.449   4.001  0.1350  0.8528  0.2940
  155SAPE  H19R17207   4.957   7.450   3.913  0.7988 -0.1526 -0.2592
  155SAPE  H19S17208   5.074   7.350   4.005  0.2412  0.9246  0.8409
  155SAPE  C22017209   5.134   7.549   3.983 -0.6029  0.0206  0.1876
  155SAPE  H20R17210   5.203   7.554   4.070  0.1674 -1.6844 -0.2874
  155SAPE  H20S17211   5.089   7.650   3.976 -0.1564  0.3053  1.1921
  155SAPE  H20T17212   5.186   7.522   3.889 -2.0444  1.9094 -1.2277
  155SAPE   C3317213   4.842   7.290   5.286 -0.3040  0.0511 -0.0771
  155SAPE   H3X17214   4.855   7.312   5.177  0.1882  2.1049  0.3617
  155SAPE   H3Y17215   4.823   7.181   5.289  0.5422 -0.1095 -0.2597
  155SAPE   C3417216   4.975   7.330   5.351 -0.6271  0.2538  0.6987
  155SAPE   H4X17217   4.977   7.295   5.457  1.3524  2.4890  1.4908
  155SAPE   H4Y17218   4.998   7.439   5.353  1.3494 -0.0826 -1.0042
  155SAPE   C3517219   5.097   7.255   5.284 -0.2218 -0.3591  0.1280
  155SAPE   H5X17220   5.069   7.149   5.269 -2.4576 -0.2458  2.7222
  155SAPE   H5Y17221   5.176   7.263   5.362 -0.8957  2.2842  0.6427
  155SAPE   C3617222   5.146   7.321   5.150  0.0826 -0.3650  0.4490
  155SAPE   H6X17223   5.159   7.428   5.178  2.7783  0.3131 -2.7290
  155SAPE   H6Y17224   5.065   7.314   5.074 -0.5359 -0.9028  1.1455
  155SAPE   C3717225   5.283   7.283   5.103 -0.0871  0.0166 -0.0004
  155SAPE   H7X17226   5.285   7.173   5.090  0.2463  0.1872 -1.6611
  155SAPE   H7Y17227   5.350   7.305   5.189  0.2702 -1.3464  0.0870
  155SAPE   C3817228   5.336   7.343   4.976 -0.0788  0.1267 -0.1356
  155SAPE   H8X17229   5.446   7.332   4.971 -0.1785 -0.2750 -1.9508
  155SAPE   H8Y17230   5.317   7.452   4.968 -0.3317  0.1886  1.1065
  155SAPE   C3917231   5.262   7.276   4.864  0.1840 -0.2215  0.5799
  155SAPE   H9X17232   5.163   7.327   4.863  0.8980  1.2877  1.7473
  155SAPE   H9Y17233   5.246   7.167   4.865 -1.0571 -0.0541  0.5794
  155SAPE  C31017234   5.323   7.320   4.730  0.1150 -0.0825 -0.2300
  155SAPE  H10X17235   5.427   7.282   4.721  0.2460  0.2117  0.0638
  155SAPE  H10Y17236   5.337   7.429   4.713  2.2173 -0.4234 -1.0039
  155SAPE  C31117237   5.248   7.260   4.610 -0.0281  0.1113 -0.1309
  155SAPE  H11X17238   5.150   7.312   4.602  1.3888  2.8666 -1.0795
  155SAPE  H11Y17239   5.234   7.150   4.617  3.0313 -0.4548 -1.1621
  155SAPE  C31217240   5.323   7.286   4.473 -0.0559  0.1998  0.0301
  155SAPE  H12X17241   5.429   7.256   4.462  0.0192  0.0538  1.0586
  155SAPE  H12Y17242   5.307   7.392   4.446  2.3212  0.2932 -1.3071
  155SAPE  C31317243   5.241   7.198   4.366 -0.1316 -0.5898  0.0976
  155SAPE  H13X17244   5.132   7.195   4.389 -0.3849 -0.8104 -1.0688
  155SAPE  H13Y17245   5.274   7.092   4.372 -0.1953 -0.5469  1.6681
  155SAPE  C31417246   5.269   7.251   4.227  0.1693 -0.2182 -0.1591
  155SAPE  H14X17247   5.229   7.354   4.219  0.2701 -0.0615  1.1266
  155SAPE  H14Y17248   5.233   7.176   4.153 -2.0258 -1.0024  1.5926
  155SAPE  C31517249   5.425   7.256   4.203 -0.2511  0.2001  0.2813
  155SAPE  H15X17250   5.465   7.154   4.225  0.1069 -0.0041 -1.2020
  155SAPE  H15Y17251   5.464   7.331   4.275  0.9000 -0.0895 -0.0101
  155SAPE  C31617252   5.467   7.278   4.060 -0.1090 -1.0541 -0.3272
  155SAPE  H16X17253   5.444   7.385   4.044 -2.0852 -1.2498  0.8841
  155SAPE  H16Y17254   5.407   7.210   3.996 -1.7866 -1.0010  1.1252
  155SAPE  C31717255   5.620   7.239   4.045 -0.4783 -0.1246  0.3296
  155SAPE  H17X17256   5.649   7.263   3.941 -1.8739 -0.5579 -0.1746
  155SAPE  H17Y17257   5.636   7.129   4.053  0.4384 -0.0297 -0.1379
  155SAPE  C31817258   5.723   7.310   4.136  0.1359  0.6325 -0.8945
  155SAPE  H18X17259   5.712   7.286   4.244  1.2942 -0.0384 -0.8950
  155SAPE  H18Y17260   5.713   7.418   4.115 -2.2826  0.3846 -1.2169
  155SAPE  H18Z17261   5.829   7.286   4.109  0.6008  0.9556  0.5667
  156SAPE     N17262   6.400   2.116   5.984  0.4285 -0.8573  0.0326
  156SAPE   HN117263   6.468   2.150   6.056 -0.5722 -1.5151  1.3116
  156SAPE   HN217264   6.312   2.167   6.006 -0.5557 -2.7788  0.7252
  156SAPE   HN317265   6.377   2.017   6.004  1.6959 -1.0790  0.5365
  156SAPE   C1217266   6.449   2.130   5.846 -0.0931  0.1682 -0.4636
  156SAPE  H12A17267   6.456   2.234   5.809  0.5913 -0.8980 -3.5637
  156SAPE  H12B17268   6.373   2.084   5.779 -1.2346  1.6886 -0.2637
  156SAPE   C1117269   6.591   2.061   5.833  0.2818  0.3162  0.3818
  156SAPE  H11A17270   6.679   2.104   5.885  1.0631 -2.6072  1.6670
  156SAPE  H11B17271   6.608   2.077   5.724 -0.6132  0.1435  0.2062
  156SAPE     P17272   6.664   1.806   5.801 -0.3392  0.3407 -0.2032
  156SAPE   O1317273   6.651   1.691   5.896  0.5728 -0.1904 -0.0913
  156SAPE   O1417274   6.620   1.766   5.664  0.4008 -0.7255  0.0242
  156SAPE   O1217275   6.574   1.921   5.863 -0.1854  0.4902  0.1705
  156SAPE   O1117276   6.812   1.868   5.794 -0.6771  0.3056 -0.1904
  156SAPE    C117277   6.888   1.883   5.920  0.2813  0.2088 -0.0629
  156SAPE    HA17278   6.855   1.977   5.969  1.9274  1.8664 -1.9939
  156SAPE    HB17279   6.868   1.795   5.986  1.1628 -0.3935 -0.5841
  156SAPE    C217280   7.048   1.885   5.916  0.6985  0.4418 -0.1679
  156SAPE    HS17281   7.086   1.916   6.016  2.1681  1.3571 -0.9754
  156SAPE   O2117282   7.104   1.984   5.829  0.0841 -0.3663  0.0020
  156SAPE   C2117283   7.045   2.104   5.849 -0.1925  0.3830  0.2672
  156SAPE   O2217284   6.992   2.141   5.950 -0.1511  0.2575 -0.5746
  156SAPE   C2217285   7.051   2.186   5.715  0.5574  0.3112 -0.5771
  156SAPE   H2R17286   7.136   2.257   5.720  0.8586  0.1873 -2.8122
  156SAPE   H2S17287   7.080   2.113   5.636 -3.1033 -0.1898 -1.6579
  156SAPE    C317288   7.106   1.742   5.878  0.9998 -0.0413  0.0390
  156SAPE    HX17289   7.065   1.667   5.949 -1.5033 -1.3380 -2.5234
  156SAPE    HY17290   7.216   1.736   5.882  0.9105 -2.0770  0.8407
  156SAPE   O3117291   7.063   1.707   5.743  0.2070  0.0395 -0.1772
  156SAPE   C3117292   6.969   1.611   5.724  0.3741 -0.3752  1.0173
  156SAPE   O3217293   6.929   1.538   5.806  0.8035  0.6871  0.5443
  156SAPE   C3217294   6.929   1.604   5.586  0.4006  0.3611  0.2256
  156SAPE   H2X17295   6.963   1.695   5.533  1.6292  1.3362  2.5393
  156SAPE   H2Y17296   6.818   1.598   5.593  0.3355 -0.0556 -0.8887
  156SAPE   C2317297   6.923   2.263   5.672  0.2996 -0.0464  0.4054
  156SAPE   H3R17298   6.902   2.340   5.749  0.2150 -0.2990  0.6378
  156SAPE   H3S17299   6.851   2.178   5.669  1.0355 -0.7523  1.9055
  156SAPE   C2417300   6.933   2.318   5.531 -0.1957 -0.2409  0.1641
  156SAPE   H4R17301   6.983   2.249   5.460  0.6621 -0.1402  0.6626
  156SAPE   H4S17302   7.000   2.406   5.524 -0.9976  0.5311  1.7198
  156SAPE   C2517303   6.802   2.361   5.473 -0.1498  0.4137 -0.6215
  156SAPE   H5R17304   6.783   2.468   5.492 -0.3479  0.1836  0.5384
  156SAPE   C2617305   6.705   2.278   5.423 -0.5884 -0.1118  0.2841
  156SAPE   H6R17306   6.617   2.322   5.374  0.5495 -0.0978 -1.8854
  156SAPE   C2717307   6.711   2.130   5.398 -0.1752 -0.3967  0.7050
  156SAPE   H7R17308   6.641   2.082   5.469 -0.2910 -2.1104 -0.4981
  156SAPE   H7S17309   6.812   2.093   5.425  0.0726  0.2389  0.6860
  156SAPE   C2817310   6.687   2.093   5.252  0.8005 -0.2312 -0.7150
  156SAPE   H8R17311   6.602   2.145   5.205 -1.5851 -1.8815  1.4693
  156SAPE   C2917312   6.733   1.985   5.192 -0.4442  0.0324 -0.0318
  156SAPE   H9R17313   6.726   1.978   5.082 -0.2269  0.5959 -0.0867
  156SAPE  C21017314   6.807   1.871   5.259 -0.6519 -0.5078 -0.1528
  156SAPE  H10R17315   6.743   1.780   5.265 -0.9333 -0.2887  0.1324
  156SAPE  H10S17316   6.834   1.895   5.364 -1.9392  0.7672 -0.0862
  156SAPE  C21117317   6.949   1.840   5.206 -0.0450  0.5894  0.4128
  156SAPE  H11R17318   7.030   1.879   5.269 -0.4846  0.1289  1.2848
  156SAPE  C21217319   6.975   1.754   5.102  0.8646 -0.5838 -0.0572
  156SAPE  H12R17320   7.074   1.746   5.054  0.7434  0.1410 -0.4245
  156SAPE  C21317321   6.867   1.677   5.025  0.2841  0.1649 -0.1906
  156SAPE  H13R17322   6.769   1.729   5.031 -0.8928 -1.3497 -3.6081
  156SAPE  H13S17323   6.855   1.575   5.068  0.7466  0.6856  1.2312
  156SAPE  C21417324   6.893   1.655   4.874  0.0359 -0.0115  0.0957
  156SAPE  H14R17325   6.928   1.553   4.855  1.5395  0.0084  2.3125
  156SAPE  C21517326   6.881   1.751   4.780  0.9577 -0.5723 -0.0637
  156SAPE  H15R17327   6.886   1.726   4.673  0.7417 -0.3507 -0.1268
  156SAPE  C21617328   6.829   1.894   4.803 -0.0563  0.1908 -0.0285
  156SAPE  H16R17329   6.866   1.963   4.724 -1.5662 -0.4816 -1.3691
  156SAPE  H16S17330   6.864   1.933   4.901  0.1924 -2.0415  0.8351
  156SAPE  C21717331   6.674   1.914   4.791 -0.3430  0.0197 -0.2736
  156SAPE  H17R17332   6.656   2.021   4.815  1.2822  0.3039 -0.2305
  156SAPE  H17S17333   6.620   1.842   4.856  0.7184  0.0152  0.6372
  156SAPE  C21817334   6.631   1.887   4.650 -0.1044 -0.2513  0.9842
  156SAPE  H18R17335   6.699   1.809   4.609 -0.9931 -1.6422  2.0727
  156SAPE  H18S17336   6.657   1.976   4.589 -1.1621 -0.5000  0.1513
  156SAPE  C21917337   6.484   1.846   4.625 -0.7858 -0.3613 -0.3597
  156SAPE  H19R17338   6.480   1.736   4.639 -1.9062 -0.3602 -0.5834
  156SAPE  H19S17339   6.461   1.859   4.517  0.2281  1.3032 -0.4261
  156SAPE  C22017340   6.380   1.923   4.701 -0.4749 -0.1856 -0.2347
  156SAPE  H20R17341   6.388   2.033   4.687 -0.7348  0.0812  1.4881
  156SAPE  H20S17342   6.379   1.890   4.807 -0.2089  0.4381 -0.0339
  156SAPE  H20T17343   6.278   1.902   4.661 -0.7028 -0.9032  0.6679
  156SAPE   C3317344   6.975   1.473   5.519 -0.3253 -0.9355 -0.1856
  156SAPE   H3X17345   6.961   1.384   5.583 -0.8305  0.7235  2.1246
  156SAPE   H3Y17346   7.086   1.467   5.516 -0.3546 -1.9207  0.4572
  156SAPE   C3417347   6.910   1.441   5.386  0.1461  0.1202  0.7761
  156SAPE   H4X17348   6.958   1.510   5.313 -0.7260 -2.5144 -2.5337
  156SAPE   H4Y17349   6.801   1.459   5.393 -0.1053 -0.8488 -0.3201
  156SAPE   C3517350   6.926   1.295   5.339  0.2555 -0.5552  1.0518
  156SAPE   H5X17351   6.926   1.229   5.428  1.9639 -0.3404  1.2452
  156SAPE   H5Y17352   7.029   1.298   5.298  0.3227  2.7272  1.1451
  156SAPE   C3617353   6.826   1.247   5.230  0.1906 -0.7147  0.3389
  156SAPE   H6X17354   6.815   1.317   5.145 -1.0211 -0.1011  0.9778
  156SAPE   H6Y17355   6.725   1.246   5.277 -0.6103 -2.0448 -1.3232
  156SAPE   C3717356   6.844   1.100   5.182  0.3847 -0.8619 -0.0130
  156SAPE   H7X17357   6.746   1.061   5.145  0.2406  0.2833 -0.8911
  156SAPE   H7Y17358   6.894   1.040   5.261  1.5832  1.3724  1.0036
  156SAPE   C3817359   6.939   1.090   5.066  0.9326  0.2095 -0.2144
  156SAPE   H8X17360   6.925   0.991   5.018  1.2339  0.0180  0.0908
  156SAPE   H8Y17361   7.045   1.091   5.098  0.9395  1.3474 -0.2186
  156SAPE   C3917362   6.921   1.189   4.945  0.1709  0.5392 -0.1244
  156SAPE   H9X17363   6.925   1.290   4.990 -0.3754  0.8205 -0.6837
  156SAPE   H9Y17364   6.818   1.177   4.905 -0.1635  2.1303  0.1755
  156SAPE  C31017365   7.037   1.179   4.843 -0.9891 -0.8977  0.6031
  156SAPE  H10X17366   7.063   1.074   4.819 -0.4470 -0.4363 -0.9318
  156SAPE  H10Y17367   7.134   1.217   4.880 -1.5464  1.9350 -0.5368
  156SAPE  C31117368   7.000   1.260   4.714 -0.0247  0.1145  0.3439
  156SAPE  H11X17369   6.956   1.360   4.732 -0.5839 -0.1766  0.6020
  156SAPE  H11Y17370   6.917   1.195   4.678 -0.8089  0.3688  1.6444
  156SAPE  C31217371   7.114   1.270   4.613 -0.4938  0.9769  0.4382
  156SAPE  H12X17372   7.126   1.183   4.545 -1.0979  1.6285 -0.5374
  156SAPE  H12Y17373   7.206   1.294   4.670 -0.9533  2.0683  0.7604
  156SAPE  C31317374   7.079   1.393   4.526 -0.1960 -0.9674  0.4015
  156SAPE  H13X17375   7.073   1.486   4.586  0.4771 -1.0871  0.6647
  156SAPE  H13Y17376   6.982   1.378   4.473  0.6888  1.3255 -2.1166
  156SAPE  C31417377   7.174   1.420   4.416  0.2637 -0.2354  0.5421
  156SAPE  H14X17378   7.227   1.327   4.384  1.0944  1.1749 -2.4489
  156SAPE  H14Y17379   7.258   1.485   4.449  0.7798 -0.2951 -0.6163
  156SAPE  C31517380   7.106   1.455   4.278  0.3989  0.7314  0.8261
  156SAPE  H15X17381   7.026   1.383   4.254 -1.7986  1.8528  4.1332
  156SAPE  H15Y17382   7.186   1.444   4.201 -0.1572  0.8327  0.2222
  156SAPE  C31617383   7.046   1.593   4.266 -0.2691 -0.0694 -0.6856
  156SAPE  H16X17384   7.023   1.626   4.163 -2.2002  0.3152 -0.1736
  156SAPE  H16Y17385   7.111   1.674   4.305 -1.7740  0.8356  0.0265
  156SAPE  C31717386   6.914   1.617   4.345  0.2734  0.1220  0.7105
  156SAPE  H17X17387   6.932   1.619   4.455 -0.8335 -0.5230  0.9162
  156SAPE  H17Y17388   6.833   1.543   4.328  0.8768 -0.3025 -0.4016
  156SAPE  C31817389   6.865   1.762   4.325  0.3981  0.0669 -0.5455
  156SAPE  H18X17390   6.805   1.771   4.231  1.2046  0.5689 -1.0208
  156SAPE  H18Y17391   6.950   1.830   4.343 -1.3232  1.9166  0.9994
  156SAPE  H18Z17392   6.793   1.788   4.405  3.1859  3.5935  1.0477
  157SAPE     N17393   6.008   0.341   5.945 -0.1283  0.1900  0.0272
  157SAPE   HN117394   5.935   0.309   6.011 -0.9059  0.3793 -0.7200
  157SAPE   HN217395   5.970   0.413   5.881 -0.3959  1.3627  1.4491
  157SAPE   HN317396   6.049   0.259   5.895 -3.0822 -0.3607 -1.7118
  157SAPE   C1217397   6.128   0.386   6.025 -0.0895 -1.0534  0.3578
  157SAPE  H12A17398   6.192   0.425   5.944 -0.6543 -2.0215 -0.5818
  157SAPE  H12B17399   6.161   0.296   6.081  0.5451 -1.1423 -0.1434
  157SAPE   C1117400   6.101   0.502   6.121 -1.0123 -0.2611  0.8012
  157SAPE  H11A17401   6.197   0.535   6.166 -1.3290  1.6445  0.1766
  157SAPE  H11B17402   6.046   0.440   6.195  0.6234 -4.0235 -0.8557
  157SAPE     P17403   6.026   0.756   6.094 -0.1617 -0.1331 -0.0256
  157SAPE   O1317404   5.886   0.811   6.080 -0.5397  0.8766  0.3674
  157SAPE   O1417405   6.088   0.778   6.221 -0.4289 -0.6440  0.1128
  157SAPE   O1217406   6.022   0.601   6.063  0.4387 -0.0103  0.2514
  157SAPE   O1117407   6.111   0.821   5.982 -0.2636 -0.7989  0.2647
  157SAPE    C117408   6.220   0.748   5.928  0.3986  0.0806  0.0393
  157SAPE    HA17409   6.286   0.709   6.009  0.5378  1.1360  0.4491
  157SAPE    HB17410   6.193   0.654   5.875  2.1386 -0.4778  0.0759
  157SAPE    C217411   6.306   0.848   5.837 -0.1517  0.6929 -0.1231
  157SAPE    HS17412   6.322   0.936   5.903 -0.5443 -0.2858  1.3308
  157SAPE   O2117413   6.234   0.881   5.718 -0.0611 -0.0723 -0.4129
  157SAPE   C2117414   6.275   0.992   5.671  0.0207 -0.3970  0.1804
  157SAPE   O2217415   6.368   1.064   5.710 -0.1796 -0.1413 -0.3673
  157SAPE   C2217416   6.174   1.026   5.556  0.0411 -0.0955  0.8418
  157SAPE   H2R17417   6.202   0.968   5.465 -0.0030 -0.0831  0.8202
  157SAPE   H2S17418   6.081   0.981   5.597  0.0304 -0.8635  0.0224
  157SAPE    C317419   6.444   0.778   5.806 -0.2044 -0.2082 -0.0940
  157SAPE    HX17420   6.478   0.764   5.911 -0.9417  0.8254  0.2986
  157SAPE    HY17421   6.521   0.846   5.764  1.8970 -1.9310  0.7562
  157SAPE   O3117422   6.425   0.650   5.746 -0.3566  0.6216 -0.0122
  157SAPE   C3117423   6.448   0.645   5.616  0.8427  0.1143 -0.6101
  157SAPE   O3217424   6.470   0.742   5.544 -0.5063 -0.4480 -0.2236
  157SAPE   C3217425   6.434   0.499   5.573  0.6845  0.1673  0.2124
  157SAPE   H2X17426   6.334   0.451   5.584  1.8728 -2.6429 -0.2768
  157SAPE   H2Y17427   6.508   0.456   5.643  0.4432  0.3778  0.6024
  157SAPE   C2317428   6.180   1.175   5.514 -0.2828  0.1437  0.3893
  157SAPE   H3R17429   6.283   1.204   5.482 -1.0784  2.9091  0.0245
  157SAPE   H3S17430   6.169   1.239   5.605 -0.0120 -0.9688  1.2270
  157SAPE   C2417431   6.081   1.205   5.410 -0.8417 -0.2251  0.2339
  157SAPE   H4R17432   5.986   1.163   5.448  0.1320 -1.7860  1.0700
  157SAPE   H4S17433   6.103   1.142   5.321  0.2906  0.8297 -0.2553
  157SAPE   C2517434   6.081   1.348   5.379 -0.3379 -0.2579 -0.0170
  157SAPE   H5R17435   6.075   1.416   5.464 -0.1098  0.7094 -0.7563
  157SAPE   C2617436   6.117   1.400   5.260  0.0845 -0.5223  0.3161
  157SAPE   H6R17437   6.112   1.509   5.246  1.1855 -0.5822 -0.6540
  157SAPE   C2717438   6.159   1.310   5.142 -0.2444  0.0746 -0.4066
  157SAPE   H7R17439   6.229   1.233   5.178 -0.3128  0.5109  0.6894
  157SAPE   H7S17440   6.222   1.367   5.070  4.3476  0.0004  3.1321
  157SAPE   C2817441   6.053   1.234   5.066  0.6508  0.4610  0.2726
  157SAPE   H8R17442   5.964   1.224   5.128  0.3615  1.1606 -0.0127
  157SAPE   C2917443   6.041   1.210   4.931  0.2843 -0.5840 -0.4449
  157SAPE   H9R17444   5.949   1.170   4.886 -0.4106  1.5166 -0.9926
  157SAPE  C21017445   6.142   1.257   4.832 -0.6291  0.1107  0.5401
  157SAPE  H10R17446   6.173   1.361   4.854 -3.3400  0.7606  1.7083
  157SAPE  H10S17447   6.102   1.257   4.728  0.6325  0.5797  0.0274
  157SAPE  C21117448   6.274   1.183   4.828  0.3377  0.5017 -0.0541
  157SAPE  H11R17449   6.311   1.169   4.931  0.1651 -1.6089 -0.2405
  157SAPE  C21217450   6.344   1.114   4.744  0.7923 -0.2413 -0.0008
  157SAPE  H12R17451   6.445   1.084   4.776  0.4244 -0.5525  0.9295
  157SAPE  C21317452   6.305   1.095   4.600  0.4733 -1.0113  0.5402
  157SAPE  H13R17453   6.389   1.116   4.530 -1.1931  0.6492 -1.0910
  157SAPE  H13S17454   6.215   1.149   4.564  0.6247 -1.9575 -1.4278
  157SAPE  C21417455   6.273   0.956   4.575 -0.0300  0.2134 -0.0068
  157SAPE  H14R17456   6.237   0.903   4.664 -0.7076  1.1818  0.3080
  157SAPE  C21517457   6.299   0.870   4.476 -0.7135 -0.4206  1.6334
  157SAPE  H15R17458   6.262   0.767   4.481 -2.7789  0.1790  0.1819
  157SAPE  C21617459   6.387   0.909   4.356  0.0088 -0.0950 -0.2873
  157SAPE  H16R17460   6.398   1.019   4.348 -0.4246 -0.1216 -1.4212
  157SAPE  H16S17461   6.337   0.878   4.262 -0.7379 -0.3813  0.1959
  157SAPE  C21717462   6.516   0.826   4.355  0.5312 -0.2218 -0.0254
  157SAPE  H17R17463   6.580   0.847   4.443 -1.2107  0.5041  1.1266
  157SAPE  H17S17464   6.579   0.856   4.269  1.8649  1.4022  1.4684
  157SAPE  C21817465   6.494   0.676   4.327  0.4009 -0.5505  0.5185
  157SAPE  H18R17466   6.428   0.678   4.237  1.5731 -0.0255 -0.3614
  157SAPE  H18S17467   6.430   0.641   4.410  0.7639  1.1693  1.5646
  157SAPE  C21917468   6.622   0.597   4.336 -0.0717  0.4671 -0.4385
  157SAPE  H19R17469   6.597   0.492   4.364 -1.0728  0.1118 -2.4714
  157SAPE  H19S17470   6.688   0.641   4.414  2.4394 -1.2494 -1.4625
  157SAPE  C22017471   6.705   0.584   4.206 -0.4496 -0.0207 -0.4446
  157SAPE  H20R17472   6.652   0.511   4.142 -1.3442  0.4006 -0.1997
  157SAPE  H20S17473   6.808   0.561   4.239  0.3224  0.6411 -2.2774
  157SAPE  H20T17474   6.707   0.684   4.158 -0.9396  0.6374  0.8585
  157SAPE   C3317475   6.495   0.469   5.439 -0.1480  0.2841  0.2464
  157SAPE   H3X17476   6.505   0.358   5.442 -1.4573  0.1135 -0.5849
  157SAPE   H3Y17477   6.593   0.519   5.426  0.6412 -0.3074  3.2316
  157SAPE   C3417478   6.400   0.508   5.317 -0.2612  0.2363 -0.2578
  157SAPE   H4X17479   6.391   0.619   5.321  0.6009  0.3479 -0.9589
  157SAPE   H4Y17480   6.299   0.464   5.329 -0.6529  1.1327 -0.1912
  157SAPE   C3517481   6.457   0.461   5.180  0.0293  0.5706  0.3687
  157SAPE   H5X17482   6.469   0.351   5.188 -1.8409  0.2850 -0.1545
  157SAPE   H5Y17483   6.558   0.507   5.182  0.9249 -1.2850  0.7697
  157SAPE   C3617484   6.368   0.502   5.061  0.0864  0.3588 -0.5404
  157SAPE   H6X17485   6.352   0.612   5.063 -0.7444  0.2353 -0.1035
  157SAPE   H6Y17486   6.263   0.466   5.070 -0.1945  1.3966  0.5408
  157SAPE   C3717487   6.443   0.475   4.933 -0.1958 -0.5437 -0.5968
  157SAPE   H7X17488   6.458   0.366   4.914  2.5240 -0.5704  1.1444
  157SAPE   H7Y17489   6.548   0.509   4.947 -0.4959 -0.2946  1.3050
  157SAPE   C3817490   6.380   0.528   4.802  0.1886 -0.3636 -0.0074
  157SAPE   H8X17491   6.461   0.525   4.726  0.7813  1.9417  0.4436
  157SAPE   H8Y17492   6.354   0.635   4.821 -2.7446 -0.9414 -0.2831
  157SAPE   C3917493   6.254   0.451   4.766  0.1032 -0.8433  0.3810
  157SAPE   H9X17494   6.175   0.473   4.840 -2.0924  0.1642 -2.1037
  157SAPE   H9Y17495   6.274   0.343   4.752 -1.6377 -1.1328 -0.0457
  157SAPE  C31017496   6.202   0.491   4.623  0.1219 -0.1749 -0.3383
  157SAPE  H10X17497   6.280   0.455   4.552 -1.0390 -1.9243 -0.7904
  157SAPE  H10Y17498   6.174   0.598   4.622  1.5775  0.2563  1.4561
  157SAPE  C31117499   6.077   0.400   4.591  0.0097 -0.2726  0.3341
  157SAPE  H11X17500   5.995   0.443   4.653 -0.0000 -0.1894  0.2637
  157SAPE  H11Y17501   6.085   0.298   4.633  1.9897  0.6284  2.3799
  157SAPE  C31217502   6.059   0.384   4.442 -0.7312  0.4526  0.9951
  157SAPE  H12X17503   5.976   0.320   4.404  1.1870 -0.7883 -1.4111
  157SAPE  H12Y17504   6.146   0.339   4.390 -2.6570 -2.1296 -0.2092
  157SAPE  C31317505   6.028   0.520   4.366  0.1442  1.0739 -0.3126
  157SAPE  H13X17506   6.047   0.600   4.440  1.5669  2.0975 -1.7158
  157SAPE  H13Y17507   5.922   0.523   4.335 -0.5101  0.9111  1.7756
  157SAPE  C31417508   6.126   0.553   4.251 -0.1862 -0.0074 -0.8129
  157SAPE  H14X17509   6.108   0.483   4.166  1.7551 -0.7055 -0.6982
  157SAPE  H14Y17510   6.232   0.540   4.282  0.3490 -0.2809 -2.6182
  157SAPE  C31517511   6.105   0.689   4.193 -0.2666 -0.2494 -0.1299
  157SAPE  H15X17512   6.159   0.750   4.268 -0.1306  0.7203 -0.9821
  157SAPE  H15Y17513   5.996   0.708   4.195 -0.2078  0.0747  1.7623
  157SAPE  C31617514   6.164   0.707   4.050  0.4975  0.3506 -0.5923
  157SAPE  H16X17515   6.263   0.658   4.045  0.1459 -0.3295 -0.9077
  157SAPE  H16Y17516   6.154   0.817   4.036 -0.2615  0.4805  0.7755
  157SAPE  C31717517   6.069   0.644   3.942 -0.1793 -0.6031  0.5157
  157SAPE  H17X17518   5.973   0.696   3.965 -1.0925 -1.5438 -0.9598
  157SAPE  H17Y17519   6.041   0.536   3.945 -1.2155 -0.3313  1.1033
  157SAPE  C31817520   6.102   0.662   3.794 -0.5721 -0.0279  0.6045
  157SAPE  H18X17521   6.128   0.767   3.770 -0.5720 -0.1053  0.2553
  157SAPE  H18Y17522   6.008   0.634   3.743 -1.4982 -0.0314  2.2475
  157SAPE  H18Z17523   6.183   0.594   3.758 -0.0990 -0.5797  2.5663
  158SAPE     N17524   0.186   1.279   6.042 -0.4446  0.0434  0.4689
  158SAPE   HN117525   0.107   1.251   6.102 -0.6574 -1.3493 -0.4077
  158SAPE   HN217526   0.273   1.233   6.076  1.0439  1.6440 -0.9302
  158SAPE   HN317527   0.219   1.378   6.045  0.1226 -0.1647  1.7338
  158SAPE   C1217528   0.188   1.222   5.902  0.1320  0.2908  0.2529
  158SAPE  H12A17529   0.187   1.311   5.835  0.8653  0.4643  0.4621
  158SAPE  H12B17530   0.096   1.164   5.881  0.5591  0.1030 -1.2328
  158SAPE   C1117531   0.302   1.122   5.875 -0.1943  0.4093  0.0205
  158SAPE  H11A17532   0.390   1.182   5.844  0.2260 -0.5506 -0.7141
  158SAPE  H11B17533   0.268   1.076   5.779  0.9097 -1.4184  0.4377
  158SAPE     P17534   0.318   0.881   5.968  0.1746 -0.2277 -0.1442
  158SAPE   O1317535   0.361   0.826   6.096 -1.2803  0.5111  0.2951
  158SAPE   O1417536   0.179   0.850   5.919  0.0298  0.0198 -0.7024
  158SAPE   O1217537   0.331   1.037   5.981  0.7634 -0.7789  0.0195
  158SAPE   O1117538   0.428   0.838   5.865  0.3001 -0.1677 -0.1042
  158SAPE    C117539   0.414   0.715   5.793 -0.7607 -0.2564  0.4219
  158SAPE    HA17540   0.325   0.656   5.826 -2.0093  1.3212 -0.0182
  158SAPE    HB17541   0.399   0.744   5.687 -1.1925  0.5256  0.6848
  158SAPE    C217542   0.545   0.633   5.804 -0.1914  0.2602  0.6949
  158SAPE    HS17543   0.594   0.650   5.902  0.3853 -0.9241  0.6171
  158SAPE   O2117544   0.635   0.685   5.706  0.3510  0.6599  0.8277
  158SAPE   C2117545   0.757   0.649   5.708  0.2793 -0.1407  0.5377
  158SAPE   O2217546   0.818   0.597   5.799 -0.5538 -0.0974  0.0604
  158SAPE   C2217547   0.823   0.670   5.566 -0.2641  0.8901 -0.2254
  158SAPE   H2R17548   0.923   0.717   5.579  0.8291 -1.7104  1.5308
  158SAPE   H2S17549   0.836   0.566   5.529 -0.1669  1.2792 -1.3137
  158SAPE    C317550   0.534   0.477   5.797  0.0215  0.0128  0.1222
  158SAPE    HX17551   0.470   0.459   5.886  0.2061 -0.7234  0.1163
  158SAPE    HY17552   0.629   0.421   5.817  0.5889  1.5263  1.9897
  158SAPE   O3117553   0.454   0.428   5.684 -0.3059 -0.0520  0.4761
  158SAPE   C3117554   0.517   0.374   5.583 -0.2339 -0.7284 -0.1702
  158SAPE   O3217555   0.634   0.341   5.574  0.1661  0.6631 -0.3524
  158SAPE   C3217556   0.427   0.349   5.465  0.5341  0.0279  0.4890
  158SAPE   H2X17557   0.324   0.335   5.503  0.3012  1.4851  0.4371
  158SAPE   H2Y17558   0.469   0.266   5.404  0.2213  1.3001 -1.5609
  158SAPE   C2317559   0.746   0.760   5.470  0.6365 -0.1429  0.1191
  158SAPE   H3R17560   0.762   0.865   5.503  1.4660 -0.4764  0.8074
  158SAPE   H3S17561   0.640   0.734   5.450  0.5040  1.1840 -1.1036
  158SAPE   C2417562   0.799   0.751   5.325  0.4260 -0.4765  0.8175
  158SAPE   H4R17563   0.741   0.814   5.254 -0.8445 -0.8616  1.4754
  158SAPE   H4S17564   0.785   0.646   5.291 -0.8695  0.1691 -0.7695
  158SAPE   C2517565   0.942   0.792   5.312 -0.4118  0.3359 -0.2335
  158SAPE   H5R17566   0.979   0.873   5.377  2.5504 -0.9365 -0.1608
  158SAPE   C2617567   1.027   0.724   5.240  0.0635 -0.4087 -0.5489
  158SAPE   H6R17568   1.131   0.758   5.245 -0.7812  2.1432  2.4680
  158SAPE   C2717569   0.994   0.604   5.160  0.2528 -0.0483  0.7188
  158SAPE   H7R17570   0.886   0.614   5.135  0.1804  1.3871  1.5027
  158SAPE   H7S17571   1.025   0.515   5.219  0.3733  0.3439  1.2537
  158SAPE   C2817572   1.074   0.606   5.031  1.2171 -1.1893  0.5643
  158SAPE   H8R17573   1.175   0.563   5.042  1.2125 -0.9428  1.7538
  158SAPE   C2917574   1.050   0.668   4.917 -0.4739 -0.3376 -0.0372
  158SAPE   H9R17575   1.128   0.655   4.840  0.1179  1.0550  0.2936
  158SAPE  C21017576   0.925   0.753   4.882 -0.5085  0.3879 -0.9749
  158SAPE  H10R17577   0.840   0.707   4.936  1.1621  1.7034  3.2035
  158SAPE  H10S17578   0.907   0.735   4.774  0.0214  0.2360 -1.0425
  158SAPE  C21117579   0.930   0.900   4.924  0.0742  0.3060 -0.8088
  158SAPE  H11R17580   0.966   0.918   5.026 -0.0024  0.8756 -0.8788
  158SAPE  C21217581   0.894   1.005   4.852  0.1342 -0.0050 -0.1329
  158SAPE  H12R17582   0.887   1.105   4.898  0.4121  1.0852 -2.3137
  158SAPE  C21317583   0.835   1.008   4.718  0.6270  0.9166  0.1140
  158SAPE  H13R17584   0.757   1.088   4.716  0.1960  0.4905 -1.5786
  158SAPE  H13S17585   0.782   0.912   4.696  2.4037  0.0516 -0.5410
  158SAPE  C21417586   0.942   1.029   4.609  0.4799 -0.1819  0.4472
  158SAPE  H14R17587   1.046   1.019   4.642  0.6823 -0.2343 -0.1920
  158SAPE  C21517588   0.929   1.117   4.501 -0.1456 -0.1784  0.6569
  158SAPE  H15R17589   1.006   1.121   4.422 -1.3141 -1.3912 -0.6070
  158SAPE  C21617590   0.803   1.190   4.458 -0.2330  0.8080 -1.0750
  158SAPE  H16R17591   0.817   1.296   4.487 -0.8178  0.4578  0.6163
  158SAPE  H16S17592   0.714   1.155   4.513  0.1040  1.2504 -0.2275
  158SAPE  C21717593   0.751   1.169   4.319  0.5253  0.9145  0.0864
  158SAPE  H17R17594   0.661   1.233   4.310  0.2124  0.5272  0.4610
  158SAPE  H17S17595   0.707   1.069   4.305 -2.2476  2.2072 -1.0915
  158SAPE  C21817596   0.852   1.213   4.206  0.7054  0.4575 -0.2563
  158SAPE  H18R17597   0.960   1.189   4.217  0.5415 -0.2868 -0.2246
  158SAPE  H18S17598   0.843   1.324   4.201  2.0761  0.5793 -0.3647
  158SAPE  C21917599   0.792   1.163   4.076 -0.4865  0.1922 -0.2620
  158SAPE  H19R17600   0.802   1.243   3.999  0.1828 -0.0006 -0.3861
  158SAPE  H19S17601   0.689   1.126   4.095  0.0344 -1.5340 -0.6583
  158SAPE  C22017602   0.882   1.051   4.021 -0.6194 -0.6185 -0.3806
  158SAPE  H20R17603   0.988   1.085   4.014 -1.6005  2.4654 -2.4465
  158SAPE  H20S17604   0.843   1.019   3.922 -0.6083 -0.6757 -0.3670
  158SAPE  H20T17605   0.864   0.966   4.090 -3.1231  0.1980  0.0829
  158SAPE   C3317606   0.434   0.471   5.367  0.0267  0.4338 -0.4516
  158SAPE   H3X17607   0.539   0.504   5.351 -0.1232  1.4283  0.4868
  158SAPE   H3Y17608   0.380   0.556   5.416 -2.0917 -0.6115 -0.8789
  158SAPE   C3417609   0.369   0.429   5.240  0.2426 -0.0186  0.5672
  158SAPE   H4X17610   0.258   0.430   5.245  0.2034 -0.5426 -0.1321
  158SAPE   H4Y17611   0.407   0.331   5.206  1.8091  0.8710 -0.3910
  158SAPE   C3517612   0.399   0.517   5.121  0.4850 -0.4135  0.4974
  158SAPE   H5X17613   0.404   0.624   5.150 -1.5446  0.0034 -0.4708
  158SAPE   H5Y17614   0.317   0.521   5.046  0.2727 -1.8585  0.6300
  158SAPE   C3617615   0.534   0.488   5.052 -0.1223 -0.7502 -0.1563
  158SAPE   H6X17616   0.524   0.386   5.009  2.3960 -1.0212 -0.2465
  158SAPE   H6Y17617   0.609   0.486   5.134  0.3499  0.4810 -0.5378
  158SAPE   C3717618   0.588   0.578   4.943  0.9393  0.2746  0.5920
  158SAPE   H7X17619   0.679   0.530   4.900  0.4148  0.5685 -0.9248
  158SAPE   H7Y17620   0.605   0.677   4.990 -2.2722  1.6357 -0.8099
  158SAPE   C3817621   0.485   0.597   4.830 -0.5564 -0.1285 -0.0892
  158SAPE   H8X17622   0.424   0.683   4.867  0.2649  0.6739 -0.5715
  158SAPE   H8Y17623   0.430   0.504   4.804 -0.1088 -0.1427 -1.0258
  158SAPE   C3917624   0.546   0.655   4.702 -0.4138  0.0734 -0.3298
  158SAPE   H9X17625   0.634   0.594   4.671  1.2733  3.1697 -2.0922
  158SAPE   H9Y17626   0.591   0.751   4.734 -2.4147  1.0718 -0.3582
  158SAPE  C31017627   0.453   0.673   4.580 -0.4701  0.6440 -0.6069
  158SAPE  H10X17628   0.371   0.748   4.589 -1.5422 -0.4905 -0.6872
  158SAPE  H10Y17629   0.412   0.572   4.558  2.9974 -1.3756  1.2971
  158SAPE  C31117630   0.534   0.715   4.454 -0.1353  0.0273 -0.3841
  158SAPE  H11X17631   0.606   0.633   4.435 -1.4426 -1.1763 -0.2981
  158SAPE  H11Y17632   0.598   0.803   4.477 -1.4037  0.5354  1.4310
  158SAPE  C31217633   0.456   0.730   4.335 -0.3374 -0.5695 -0.0057
  158SAPE  H12X17634   0.365   0.666   4.331  0.1934 -1.3184 -0.4858
  158SAPE  H12Y17635   0.515   0.706   4.244  0.0266  1.7663 -0.4263
  158SAPE  C31317636   0.414   0.875   4.303  0.5160 -0.0150 -0.2258
  158SAPE  H13X17637   0.498   0.942   4.278 -1.1707  1.6490 -1.7978
  158SAPE  H13Y17638   0.359   0.907   4.394  1.4718 -4.0913  2.0547
  158SAPE  C31417639   0.327   0.882   4.180 -0.2282  0.4713 -0.0193
  158SAPE  H14X17640   0.258   0.795   4.188  1.4443 -0.7510  2.0687
  158SAPE  H14Y17641   0.397   0.869   4.095  0.4009  0.1739  0.5384
  158SAPE  C31517642   0.238   1.006   4.168 -0.3002  0.2928 -0.9431
  158SAPE  H15X17643   0.185   1.024   4.264  2.0618 -1.5740  0.8335
  158SAPE  H15Y17644   0.163   0.988   4.088 -2.0890  0.0540  0.7055
  158SAPE  C31617645   0.331   1.127   4.152 -0.3594 -0.2619 -0.1204
  158SAPE  H16X17646   0.391   1.107   4.061 -2.3489 -1.1021 -1.3176
  158SAPE  H16Y17647   0.398   1.130   4.241  0.2120  1.9006 -0.5678
  158SAPE  C31717648   0.274   1.270   4.151  0.1825 -0.7372  0.3470
  158SAPE  H17X17649   0.228   1.301   4.247 -0.6110  1.2359 -0.6098
  158SAPE  H17Y17650   0.188   1.272   4.080 -1.1430 -0.7254  1.8978
  158SAPE  C31817651   0.380   1.375   4.106  0.8203 -0.0486  0.5386
  158SAPE  H18X17652   0.410   1.352   4.001  1.1988 -3.1289  1.2219
  158SAPE  H18Y17653   0.460   1.375   4.183  0.0847 -0.2686  1.3037
  158SAPE  H18Z17654   0.337   1.477   4.102  1.5243  0.2495 -2.3915
  159SAPE     N17655   5.372   4.088   1.772 -0.2965  0.3194  0.3263
  159SAPE   HN117656   5.301   4.050   1.838 -1.2816  1.2279 -0.1873
  159SAPE   HN217657   5.469   4.078   1.809 -0.3913 -1.1650  0.2511
  159SAPE   HN317658   5.359   4.190   1.758  2.5699  0.9914  1.7756
  159SAPE   C1217659   5.354   4.006   1.649 -0.6322  0.6466  0.4935
  159SAPE  H12A17660   5.403   3.907   1.663 -4.7180 -1.3673  2.2889
  159SAPE  H12B17661   5.389   4.073   1.567 -0.0993 -0.9286 -0.6049
  159SAPE   C1117662   5.209   3.966   1.640  0.2987  0.0695  0.2595
  159SAPE  H11A17663   5.194   3.897   1.726  1.2263  0.2951  0.6104
  159SAPE  H11B17664   5.179   3.908   1.550  1.1377  1.1082 -0.7026
  159SAPE     P17665   5.017   4.084   1.753 -0.3627  0.1977 -0.1755
  159SAPE   O1317666   4.926   4.201   1.744 -0.2343  0.3241  0.0388
  159SAPE   O1417667   4.953   3.952   1.763  0.2474 -0.1844  0.2920
  159SAPE   O1217668   5.125   4.081   1.644  0.1266  0.1723  0.3499
  159SAPE   O1117669   5.103   4.101   1.885  0.6159  0.1244  0.9555
  159SAPE    C117670   5.115   4.003   1.987 -0.1422  0.3677 -0.3839
  159SAPE    HA17671   5.118   3.897   1.952 -0.4142  0.5629 -1.0157
  159SAPE    HB17672   5.210   4.026   2.040 -1.1479  0.9231  1.2149
  159SAPE    C217673   5.000   4.002   2.093 -0.1756  0.6271  0.5810
  159SAPE    HS17674   4.909   3.979   2.034  2.4397 -1.2552 -3.1745
  159SAPE   O2117675   5.007   4.128   2.153 -0.1884 -0.6432 -0.2785
  159SAPE   C2117676   4.888   4.195   2.141 -1.2220 -1.4222 -0.2600
  159SAPE   O2217677   4.786   4.154   2.089  0.4086 -0.0131 -0.2903
  159SAPE   C2217678   4.904   4.332   2.204 -0.8244 -0.0611 -0.5192
  159SAPE   H2R17679   5.001   4.380   2.178 -1.1974  2.4023  2.1065
  159SAPE   H2S17680   4.824   4.398   2.165 -0.2498  1.7149  1.1320
  159SAPE    C317681   5.025   3.896   2.196 -0.7184  0.3288  0.0619
  159SAPE    HX17682   5.020   3.794   2.152 -0.7173 -0.3307  1.5239
  159SAPE    HY17683   4.943   3.904   2.270 -0.6487  0.9631  0.0726
  159SAPE   O3117684   5.153   3.909   2.253  0.2481  0.2344 -0.1203
  159SAPE   C3117685   5.228   3.802   2.278 -0.6355  0.4900 -0.3609
  159SAPE   O3217686   5.210   3.686   2.244 -0.0017  0.1689 -0.2390
  159SAPE   C3217687   5.340   3.844   2.375 -0.4872  0.0926 -0.6837
  159SAPE   H2X17688   5.300   3.925   2.439 -1.2311 -0.4377 -0.4573
  159SAPE   H2Y17689   5.423   3.878   2.310  0.4382 -0.9694 -0.0963
  159SAPE   C2317690   4.882   4.318   2.357 -0.0640 -0.1801 -0.5469
  159SAPE   H3R17691   4.793   4.253   2.374 -0.8717  0.9545 -0.3304
  159SAPE   H3S17692   4.843   4.416   2.392 -2.0827 -0.9953 -0.4103
  159SAPE   C2417693   4.999   4.273   2.435 -0.6942  0.6566  0.4443
  159SAPE   H4R17694   5.083   4.346   2.422 -0.3839  0.1213 -0.6909
  159SAPE   H4S17695   5.039   4.179   2.393 -0.5933  1.2603 -0.8452
  159SAPE   C2517696   4.963   4.262   2.578 -0.1166 -0.4361 -0.9209
  159SAPE   H5R17697   4.899   4.347   2.608 -0.0066 -0.0900 -1.6457
  159SAPE   C2617698   5.016   4.180   2.671 -0.0539 -0.0780  0.0381
  159SAPE   H6R17699   5.002   4.212   2.776  0.9095 -1.0751  0.4989
  159SAPE   C2717700   5.107   4.061   2.652 -0.1690 -0.2871  0.2335
  159SAPE   H7R17701   5.164   4.029   2.742  0.5412 -1.5838 -0.6493
  159SAPE   H7S17702   5.187   4.085   2.580  1.6743  1.9548  2.7958
  159SAPE   C2817703   5.019   3.953   2.600  0.3041  0.7489 -0.4692
  159SAPE   H8R17704   4.956   3.981   2.514  0.5696  0.4842 -0.7562
  159SAPE   C2917705   4.991   3.831   2.658 -0.2050 -0.0714 -1.3266
  159SAPE   H9R17706   4.926   3.754   2.612 -1.9416 -1.1919  2.6017
  159SAPE  C21017707   5.050   3.785   2.783  0.2383 -0.5673 -0.1614
  159SAPE  H10R17708   5.159   3.799   2.771 -0.2109  2.0141 -2.4655
  159SAPE  H10S17709   5.047   3.674   2.790 -0.8555 -0.4384  2.3667
  159SAPE  C21117710   4.990   3.842   2.908  0.0561  0.8953  0.4802
  159SAPE  H11R17711   4.880   3.843   2.917 -0.1040 -2.5230  0.4421
  159SAPE  C21217712   5.052   3.877   3.021 -0.1475 -1.1703 -0.1714
  159SAPE  H12R17713   4.988   3.903   3.107  1.2894  0.6825  0.4120
  159SAPE  C21317714   5.198   3.872   3.057 -0.0223  0.1637  0.0156
  159SAPE  H13R17715   5.250   3.858   2.960  1.5474  1.5874  0.5890
  159SAPE  H13S17716   5.206   3.785   3.126  2.0449 -0.6944 -1.2112
  159SAPE  C21417717   5.229   4.009   3.119 -0.6628  0.3791 -0.1423
  159SAPE  H14R17718   5.237   4.093   3.049 -0.1489  0.7595  0.3679
  159SAPE  C21517719   5.244   4.029   3.247  0.3451 -0.3356  0.1097
  159SAPE  H15R17720   5.247   4.134   3.281  0.8967 -1.2015  2.9839
  159SAPE  C21617721   5.229   3.927   3.348 -0.6002  0.3231  0.4718
  159SAPE  H16R17722   5.176   3.835   3.316  0.0629 -0.3741  1.3234
  159SAPE  H16S17723   5.156   3.965   3.422 -2.8467 -0.2675 -1.3104
  159SAPE  C21717724   5.359   3.867   3.410  0.3555  0.5095  0.0386
  159SAPE  H17R17725   5.415   3.956   3.445 -0.4614  0.4286  1.6494
  159SAPE  H17S17726   5.429   3.822   3.337  1.1274  1.6559  0.0437
  159SAPE  C21817727   5.330   3.777   3.529  0.0861  0.1376  0.1285
  159SAPE  H18R17728   5.270   3.691   3.493  0.6371 -1.3175  2.4712
  159SAPE  H18S17729   5.265   3.838   3.596 -0.5351 -0.2556 -0.1121
  159SAPE  C21917730   5.454   3.745   3.604 -0.4009  0.1933 -0.5317
  159SAPE  H19R17731   5.530   3.826   3.616 -0.5863  0.3713 -0.5454
  159SAPE  H19S17732   5.507   3.663   3.551  0.6015  1.4440 -1.5305
  159SAPE  C22017733   5.427   3.699   3.754  0.7172  0.0079 -0.2499
  159SAPE  H20R17734   5.344   3.626   3.757  0.5404  0.2287  2.9368
  159SAPE  H20S17735   5.416   3.786   3.823 -0.5126  1.0560 -1.6984
  159SAPE  H20T17736   5.517   3.650   3.795  1.0395  1.0011  0.2776
  159SAPE   C3317737   5.381   3.735   2.486 -0.0721 -0.8208  0.5747
  159SAPE   H3X17738   5.461   3.672   2.440 -0.1567  0.2170 -1.0930
  159SAPE   H3Y17739   5.296   3.666   2.505  1.7945 -3.8914 -1.2625
  159SAPE   C3417740   5.417   3.800   2.622  0.2568  0.2710 -0.8899
  159SAPE   H4X17741   5.433   3.715   2.692  2.7913  2.5744  1.5934
  159SAPE   H4Y17742   5.336   3.867   2.655  0.4101  2.2180 -4.0500
  159SAPE   C3517743   5.554   3.867   2.615  0.3741 -0.5538 -0.0352
  159SAPE   H5X17744   5.615   3.825   2.532  1.0739 -0.8251  0.6013
  159SAPE   H5Y17745   5.605   3.841   2.711 -0.0650 -1.9976 -0.1840
  159SAPE   C3617746   5.555   4.024   2.600 -0.4812 -0.3929 -0.1825
  159SAPE   H6X17747   5.491   4.060   2.518 -1.3885  0.8650  1.0406
  159SAPE   H6Y17748   5.655   4.063   2.571 -0.6530 -0.3239 -0.6820
  159SAPE   C3717749   5.510   4.083   2.739 -0.0858  0.2866 -0.4583
  159SAPE   H7X17750   5.591   4.053   2.810  1.4593  2.4258 -1.2128
  159SAPE   H7Y17751   5.409   4.047   2.766  0.4688  0.6660  2.5638
  159SAPE   C3817752   5.514   4.232   2.737 -0.5337 -0.8822  0.2270
  159SAPE   H8X17753   5.456   4.273   2.652 -0.0264 -0.3135  0.1473
  159SAPE   H8Y17754   5.618   4.271   2.730 -0.8575 -0.1933 -0.9938
  159SAPE   C3917755   5.462   4.292   2.871 -0.3731  0.5484 -0.5477
  159SAPE   H9X17756   5.526   4.377   2.903  0.4399 -0.9218  2.0075
  159SAPE   H9Y17757   5.474   4.206   2.941 -1.5129 -1.0634 -2.2303
  159SAPE  C31017758   5.314   4.345   2.871 -0.7782  0.5055  0.4361
  159SAPE  H10X17759   5.242   4.261   2.857 -2.1809  1.8006 -0.3694
  159SAPE  H10Y17760   5.299   4.424   2.795 -1.9024  1.4008  1.5499
  159SAPE  C31117761   5.288   4.414   3.000  0.4953 -0.6981  0.0551
  159SAPE  H11X17762   5.324   4.518   2.984  1.3724 -0.9746  0.1840
  159SAPE  H11Y17763   5.357   4.367   3.074 -0.7178  0.8693  2.3410
  159SAPE  C31217764   5.145   4.398   3.055  0.1135 -0.0793 -0.6140
  159SAPE  H12X17765   5.122   4.295   3.090  0.3411 -0.0157 -0.2696
  159SAPE  H12Y17766   5.072   4.420   2.974  1.5094 -3.5660 -3.0680
  159SAPE  C31317767   5.129   4.485   3.189 -0.4282 -0.0705  0.2108
  159SAPE  H13X17768   5.120   4.592   3.162  0.5818 -0.4307 -1.6971
  159SAPE  H13Y17769   5.224   4.460   3.241  0.9287 -0.7567 -2.4238
  159SAPE  C31417770   5.007   4.462   3.264 -0.6086  0.1588 -0.5836
  159SAPE  H14X17771   5.017   4.370   3.325 -2.2827 -0.2346 -0.8486
  159SAPE  H14Y17772   4.932   4.455   3.182 -0.3814  1.1270 -0.8865
  159SAPE  C31517773   4.975   4.582   3.353  0.1959 -0.3224 -0.0654
  159SAPE  H15X17774   5.060   4.654   3.348  0.6538 -0.8183  0.4342
  159SAPE  H15Y17775   4.959   4.528   3.449 -1.3873 -0.3204 -0.3022
  159SAPE  C31617776   4.854   4.671   3.308 -0.2842 -0.5180  0.0339
  159SAPE  H16X17777   4.850   4.678   3.198 -1.6176  0.3126  0.1104
  159SAPE  H16Y17778   4.863   4.777   3.342 -0.4178 -0.0139 -1.4379
  159SAPE  C31717779   4.714   4.622   3.369  0.3028  0.5356 -0.1207
  159SAPE  H17X17780   4.700   4.515   3.342 -1.6725  1.0320 -1.2882
  159SAPE  H17Y17781   4.632   4.668   3.310  1.4642  0.2390 -2.0669
  159SAPE  C31817782   4.697   4.645   3.519  0.0853  0.4548  0.9474
  159SAPE  H18X17783   4.611   4.586   3.558 -0.3205  2.1313  2.7850
  159SAPE  H18Y17784   4.685   4.752   3.546 -1.3435  0.2698  1.1258
  159SAPE  H18Z17785   4.785   4.616   3.580 -0.7034  1.1699  2.4785
  160SAPE     N17786   5.617   2.749   1.840  0.0397  0.2290 -0.4614
  160SAPE   HN117787   5.582   2.756   1.743  1.8153 -0.7124 -1.2058
  160SAPE   HN217788   5.573   2.817   1.906  0.1584 -1.5592  1.5630
  160SAPE   HN317789   5.721   2.752   1.846  0.2771  0.0946 -3.4012
  160SAPE   C1217790   5.584   2.621   1.899 -0.5444  0.0776  0.3236
  160SAPE  H12A17791   5.474   2.614   1.906 -0.4788 -1.0354  0.5059
  160SAPE  H12B17792   5.617   2.617   2.005 -0.9044  3.0226  0.6012
  160SAPE   C1117793   5.646   2.495   1.830  0.0898 -1.7904 -0.4994
  160SAPE  H11A17794   5.570   2.479   1.751 -2.6727  0.9448  1.3649
  160SAPE  H11B17795   5.639   2.410   1.901 -1.6838 -1.6902 -0.4988
  160SAPE     P17796   5.868   2.395   1.750 -0.1600 -0.2887  0.2457
  160SAPE   O1317797   5.802   2.302   1.656 -0.7450 -0.7210  0.2361
  160SAPE   O1417798   5.999   2.457   1.723  0.4066 -0.2287 -0.0272
  160SAPE   O1217799   5.775   2.520   1.784 -0.3595 -0.0092 -0.0647
  160SAPE   O1117800   5.883   2.331   1.892 -0.1216  0.1008 -0.3199
  160SAPE    C117801   5.932   2.417   1.992 -0.6143 -0.1958  0.3576
  160SAPE    HA17802   6.042   2.404   2.002 -0.2431  3.0195  1.8219
  160SAPE    HB17803   5.916   2.526   1.976  1.7381  0.1216 -0.0830
  160SAPE    C217804   5.870   2.388   2.132  0.5189 -0.5607  0.1535
  160SAPE    HS17805   5.867   2.277   2.145  5.2917 -0.7872  1.6755
  160SAPE   O2117806   5.752   2.466   2.140  0.2797 -0.0366  0.2813
  160SAPE   C2117807   5.654   2.399   2.201 -0.4733 -0.0584 -0.3375
  160SAPE   O2217808   5.651   2.279   2.222 -0.4012  0.1690 -1.2827
  160SAPE   C2217809   5.539   2.486   2.234  0.4359 -0.0477  0.2419
  160SAPE   H2R17810   5.572   2.592   2.243 -2.5122  0.9332  0.3143
  160SAPE   H2S17811   5.470   2.476   2.148 -2.0565 -0.9769  2.2392
  160SAPE    C317812   5.968   2.436   2.246  0.0981  0.4907  0.0071
  160SAPE    HX17813   5.994   2.543   2.231  0.3433  0.6456  1.4102
  160SAPE    HY17814   6.058   2.373   2.260 -0.5644 -0.1117  1.8112
  160SAPE   O3117815   5.892   2.412   2.374 -0.2268  0.0807  0.2429
  160SAPE   C3117816   5.948   2.475   2.488  0.2534 -0.2701 -0.4060
  160SAPE   O3217817   6.027   2.562   2.477 -0.6915  0.1406  0.1929
  160SAPE   C3217818   5.895   2.411   2.621 -0.0844  0.0200 -0.4239
  160SAPE   H2X17819   5.918   2.303   2.611 -0.4778 -0.2512  1.2952
  160SAPE   H2Y17820   5.788   2.439   2.625  0.6617  3.7092 -1.6795
  160SAPE   C2317821   5.462   2.438   2.355  0.6878  0.0310 -0.4284
  160SAPE   H3R17822   5.446   2.328   2.350  1.1806 -0.0247 -0.9086
  160SAPE   H3S17823   5.358   2.478   2.352  0.2942 -0.9201  0.2004
  160SAPE   C2417824   5.522   2.468   2.496 -0.2823  0.2035  0.1749
  160SAPE   H4R17825   5.620   2.417   2.499  0.6574  1.7342 -2.0631
  160SAPE   H4S17826   5.458   2.412   2.567 -0.3515  1.8986  1.5229
  160SAPE   C2517827   5.536   2.615   2.541 -0.2693 -0.0830  1.0636
  160SAPE   H5R17828   5.532   2.689   2.460  2.7472  0.4179  1.2437
  160SAPE   C2617829   5.556   2.657   2.665 -0.2987 -0.0631  0.6190
  160SAPE   H6R17830   5.616   2.748   2.677  0.4836 -0.3903 -0.5484
  160SAPE   C2717831   5.556   2.564   2.780  0.1493  0.1816  0.1467
  160SAPE   H7R17832   5.622   2.615   2.853 -1.0054  2.4663 -0.2714
  160SAPE   H7S17833   5.611   2.470   2.760  0.1935  0.0302  0.9584
  160SAPE   C2817834   5.418   2.538   2.832  0.2269  0.1148  0.5856
  160SAPE   H8R17835   5.343   2.538   2.751  0.7696 -2.2115 -0.0081
  160SAPE   C2917836   5.373   2.517   2.957 -0.8073  0.9662  0.0803
  160SAPE   H9R17837   5.270   2.484   2.981 -1.6611  0.8934 -3.2028
  160SAPE  C21017838   5.466   2.513   3.072  0.1784  0.3231  0.0287
  160SAPE  H10R17839   5.569   2.551   3.053 -0.3553  1.2930 -1.0524
  160SAPE  H10S17840   5.474   2.408   3.107  0.4443  0.3601  0.0772
  160SAPE  C21117841   5.412   2.619   3.169 -0.0815  0.5276  0.3477
  160SAPE  H11R17842   5.429   2.725   3.146 -0.8796  0.5554 -0.1794
  160SAPE  C21217843   5.338   2.594   3.275 -0.6008 -0.1644 -0.2199
  160SAPE  H12R17844   5.323   2.673   3.350  1.7778 -1.6863  2.0418
  160SAPE  C21317845   5.280   2.464   3.322  0.3497  0.3000  0.2652
  160SAPE  H13R17846   5.350   2.432   3.402 -1.0414  1.2184  1.8947
  160SAPE  H13S17847   5.289   2.388   3.241  1.4149  0.2973  0.3669
  160SAPE  C21417848   5.137   2.476   3.370  0.5717 -0.0300  0.3682
  160SAPE  H14R17849   5.064   2.521   3.301 -0.5840 -1.8139  0.3472
  160SAPE  C21517850   5.082   2.417   3.479  0.5017 -1.0973  0.4342
  160SAPE  H15R17851   4.984   2.445   3.521  0.5632 -1.2687  0.6948
  160SAPE  C21617852   5.163   2.332   3.577  0.2380 -0.2128  0.4880
  160SAPE  H16R17853   5.240   2.279   3.518  0.0058 -0.0377  0.0199
  160SAPE  H16S17854   5.099   2.264   3.638  0.0732 -0.3170  0.1994
  160SAPE  C21717855   5.228   2.429   3.679  0.2980 -0.0027 -0.5095
  160SAPE  H17R17856   5.260   2.521   3.626 -1.0080  0.6757 -0.1573
  160SAPE  H17S17857   5.319   2.380   3.721 -1.4535 -0.7263  2.8175
  160SAPE  C21817858   5.136   2.476   3.798 -0.6883 -0.3720  0.1399
  160SAPE  H18R17859   5.105   2.384   3.851  2.5843 -1.5438  0.2331
  160SAPE  H18S17860   5.051   2.527   3.748 -1.2308 -1.2338  0.1607
  160SAPE  C21917861   5.205   2.572   3.895 -0.0334  0.7498  0.1516
  160SAPE  H19R17862   5.218   2.671   3.845  1.9695  0.3110 -0.2877
  160SAPE  H19S17863   5.307   2.531   3.910 -0.7572 -1.1907  0.0460
  160SAPE  C22017864   5.117   2.577   4.025 -0.2912  0.4499  0.5908
  160SAPE  H20R17865   5.014   2.608   3.999  0.6040  0.8527 -3.0941
  160SAPE  H20S17866   5.148   2.644   4.108  0.9076 -1.6537  1.9511
  160SAPE  H20T17867   5.124   2.475   4.068  1.6434 -0.4961 -1.6875
  160SAPE   C3317868   5.969   2.470   2.744  0.5077  0.2788 -0.5878
  160SAPE   H3X17869   5.936   2.576   2.744 -0.0080  0.1241  0.2681
  160SAPE   H3Y17870   6.078   2.455   2.734  1.0266  2.6716  0.7907
  160SAPE   C3417871   5.931   2.401   2.872 -0.3515  0.6722  0.5254
  160SAPE   H4X17872   5.977   2.300   2.870 -0.0327  0.8197  0.3763
  160SAPE   H4Y17873   5.821   2.390   2.881 -0.3081  0.2997  0.6404
  160SAPE   C3517874   5.975   2.470   2.995  0.4071 -0.5349 -0.8146
  160SAPE   H5X17875   5.918   2.566   2.999  0.6929 -0.4036  0.7546
  160SAPE   H5Y17876   6.084   2.488   2.994  0.4541 -0.8186 -1.6791
  160SAPE   C3617877   5.924   2.397   3.119 -0.3861 -0.4322  0.1493
  160SAPE   H6X17878   5.971   2.297   3.130  0.9749  0.1477 -0.1616
  160SAPE   H6Y17879   5.814   2.377   3.121 -0.6237  0.8300  1.2132
  160SAPE   C3717880   5.964   2.482   3.241  0.0117  0.0861 -0.3386
  160SAPE   H7X17881   5.938   2.590   3.237 -2.1876 -0.2877  1.7094
  160SAPE   H7Y17882   6.074   2.495   3.255 -0.2969  1.9856  0.7391
  160SAPE   C3817883   5.900   2.429   3.375  0.1567  0.1347  0.4002
  160SAPE   H8X17884   5.960   2.486   3.449  1.4752  1.7665 -1.7906
  160SAPE   H8Y17885   5.909   2.319   3.389  0.5767  0.2198  0.8540
  160SAPE   C3917886   5.748   2.472   3.387 -0.0652  0.6407  0.7358
  160SAPE   H9X17887   5.696   2.402   3.318  1.5813 -0.3938  0.4948
  160SAPE   H9Y17888   5.747   2.571   3.336  3.2883  0.6906  0.5230
  160SAPE  C31017889   5.697   2.496   3.527  0.8830 -0.3869 -0.0398
  160SAPE  H10X17890   5.592   2.533   3.522  0.6171 -1.3130 -2.0929
  160SAPE  H10Y17891   5.757   2.572   3.581  0.7565 -1.7056  2.0766
  160SAPE  C31117892   5.703   2.381   3.620 -1.1174  0.3117  0.1497
  160SAPE  H11X17893   5.698   2.407   3.728 -0.3607  0.2702  0.1987
  160SAPE  H11Y17894   5.809   2.349   3.613  0.4952  4.8442  0.8049
  160SAPE  C31217895   5.607   2.265   3.571  0.6602  0.4578 -0.1547
  160SAPE  H12X17896   5.621   2.233   3.465  0.6418  1.5193 -0.4906
  160SAPE  H12Y17897   5.507   2.313   3.584  0.9804  0.6628  1.7040
  160SAPE  C31317898   5.618   2.133   3.655 -0.2597  0.1430  0.1541
  160SAPE  H13X17899   5.718   2.085   3.645 -0.1730  0.1593  0.8755
  160SAPE  H13Y17900   5.546   2.058   3.617 -0.2231 -0.4530  1.2186
  160SAPE  C31417901   5.585   2.152   3.802  0.7347 -0.6891 -0.6372
  160SAPE  H14X17902   5.495   2.216   3.809  0.5405 -1.1312  1.6993
  160SAPE  H14Y17903   5.670   2.214   3.838 -1.1343  0.6308  1.8462
  160SAPE  C31517904   5.567   2.031   3.894 -0.5369  0.3115 -0.0329
  160SAPE  H15X17905   5.461   2.000   3.890 -0.0854 -1.1926 -1.1038
  160SAPE  H15Y17906   5.588   2.058   4.000 -0.6503 -0.2283  0.1284
  160SAPE  C31617907   5.655   1.906   3.870 -0.1656 -0.6137  0.4561
  160SAPE  H16X17908   5.663   1.886   3.761  0.1909  0.9533  0.1655
  160SAPE  H16Y17909   5.612   1.822   3.928 -0.6916 -0.4718  0.2799
  160SAPE  C31717910   5.790   1.935   3.940  0.0739 -0.7969 -0.2512
  160SAPE  H17X17911   5.777   1.967   4.045  0.8190  1.9167 -0.9033
  160SAPE  H17Y17912   5.836   2.029   3.902 -0.9133  0.5941  1.8138
  160SAPE  C31817913   5.896   1.819   3.927 -0.1526  0.3021  1.3501
  160SAPE  H18X17914   5.987   1.852   3.980 -0.2124  1.3550  0.8333
  160SAPE  H18Y17915   5.934   1.794   3.825 -0.3250 -0.5421  1.4888
  160SAPE  H18Z17916   5.864   1.724   3.974 -1.4523  0.8942  1.7047
  161SAPE     N17917   3.080   6.081   1.652  0.3687 -0.1176 -0.0201
  161SAPE   HN117918   3.010   6.156   1.669  0.3398 -0.1903  0.1795
  161SAPE   HN217919   3.081   6.061   1.549 -1.1497  1.7517 -0.4425
  161SAPE   HN317920   3.042   5.997   1.700 -1.3988  0.1095 -0.9356
  161SAPE   C1217921   3.213   6.110   1.710 -0.0937  0.8557 -0.0627
  161SAPE  H12A17922   3.202   6.155   1.811  1.5905  1.1128  0.0297
  161SAPE  H12B17923   3.264   6.186   1.646  1.3152  0.6396  0.7726
  161SAPE   C1117924   3.293   5.981   1.708 -0.9230 -0.7745 -0.3733
  161SAPE  H11A17925   3.394   6.013   1.742 -0.2582 -0.9554 -2.0779
  161SAPE  H11B17926   3.316   5.942   1.607  2.2557 -1.1649  0.3735
  161SAPE     P17927   3.306   5.755   1.828 -0.2758 -0.0009 -0.2760
  161SAPE   O1317928   3.207   5.647   1.843 -0.1825 -0.3787  0.0759
  161SAPE   O1417929   3.413   5.726   1.725  0.0281 -0.2709  0.0199
  161SAPE   O1217930   3.235   5.894   1.805  0.1770 -0.0592  0.5000
  161SAPE   O1117931   3.385   5.788   1.970  0.5472 -0.4838 -0.1667
  161SAPE    C117932   3.311   5.818   2.093  0.1367  0.4660 -0.0564
  161SAPE    HA17933   3.212   5.769   2.088  0.0821  0.5856 -0.1433
  161SAPE    HB17934   3.365   5.782   2.183 -2.1767 -0.8384  0.8977
  161SAPE    C217935   3.285   5.970   2.105  0.1926 -0.0200 -0.3795
  161SAPE    HS17936   3.245   6.001   2.005 -2.6997 -0.3591  0.5738
  161SAPE   O2117937   3.401   6.045   2.129  0.4506 -0.6331  0.1115
  161SAPE   C2117938   3.393   6.173   2.113 -0.1638 -0.3814  0.2397
  161SAPE   O2217939   3.297   6.228   2.059 -0.2628  0.7390  0.1712
  161SAPE   C2217940   3.513   6.234   2.168 -0.3356 -0.0842  0.2379
  161SAPE   H2R17941   3.531   6.197   2.271 -0.1756 -1.1817 -0.1659
  161SAPE   H2S17942   3.608   6.234   2.110  0.9378  1.3967  2.1814
  161SAPE    C317943   3.171   5.992   2.206  0.3470 -0.0207 -0.5078
  161SAPE    HX17944   3.079   5.943   2.168  0.4132 -2.6147  2.3379
  161SAPE    HY17945   3.143   6.099   2.212 -0.4801 -0.2903  0.8823
  161SAPE   O3117946   3.204   5.939   2.340 -0.0215  0.1980  0.8540
  161SAPE   C3117947   3.273   6.026   2.419 -0.7014  0.1057  0.1734
  161SAPE   O3217948   3.285   6.141   2.392 -0.4849 -0.0375  0.0475
  161SAPE   C3217949   3.345   5.950   2.529  0.4094  0.5431  0.1603
  161SAPE   H2X17950   3.408   5.868   2.488 -0.8477 -0.4018  0.0574
  161SAPE   H2Y17951   3.257   5.917   2.588 -0.1325 -0.3842 -1.1246
  161SAPE   C2317952   3.482   6.380   2.197  0.7320 -0.4256 -0.3299
  161SAPE   H3R17953   3.396   6.403   2.264  2.4273  0.9811  1.4818
  161SAPE   H3S17954   3.471   6.437   2.102  1.3858  1.2280  0.5464
  161SAPE   C2417955   3.610   6.437   2.264  0.4800 -0.4050  0.3028
  161SAPE   H4R17956   3.707   6.412   2.217  1.7336  1.9263  1.5055
  161SAPE   H4S17957   3.601   6.378   2.357 -2.8595 -2.3970 -1.0932
  161SAPE   C2517958   3.608   6.588   2.280 -0.0674  0.0038 -1.0634
  161SAPE   H5R17959   3.606   6.636   2.181 -0.6139 -1.6136 -1.8709
  161SAPE   C2617960   3.581   6.653   2.394  0.1641 -0.6036 -0.0437
  161SAPE   H6R17961   3.574   6.763   2.392 -1.8967 -0.6152  2.2166
  161SAPE   C2717962   3.549   6.586   2.533  0.2549 -0.2231  0.4798
  161SAPE   H7R17963   3.635   6.611   2.600  0.3867 -1.2127  0.6866
  161SAPE   H7S17964   3.547   6.475   2.534  2.7478 -0.3204  0.8317
  161SAPE   C2817965   3.420   6.636   2.598 -1.2094  0.0909  0.1773
  161SAPE   H8R17966   3.412   6.742   2.570  2.4833  0.2455 -0.7264
  161SAPE   C2917967   3.319   6.575   2.658 -0.3703  0.3553  0.1093
  161SAPE   H9R17968   3.230   6.635   2.683  0.7416  1.3151  1.9120
  161SAPE  C21017969   3.302   6.423   2.676 -0.6724 -1.1415 -0.5796
  161SAPE  H10R17970   3.395   6.376   2.715 -1.5737 -1.8721  0.7094
  161SAPE  H10S17971   3.301   6.383   2.572  0.4223 -1.2555 -0.5646
  161SAPE  C21117972   3.175   6.389   2.753  0.5726 -0.8508 -0.5595
  161SAPE  H11R17973   3.077   6.377   2.705  0.9253 -2.2136 -0.9991
  161SAPE  C21217974   3.171   6.348   2.882 -0.4668  0.4515  0.4057
  161SAPE  H12R17975   3.071   6.316   2.916 -1.9558 -0.2729 -3.9814
  161SAPE  C21317976   3.286   6.326   2.975  0.2104 -0.4247  0.2170
  161SAPE  H13R17977   3.375   6.279   2.929  1.7090  0.7291  1.8366
  161SAPE  H13S17978   3.245   6.257   3.052 -1.9929 -0.7656 -1.1439
  161SAPE  C21417979   3.330   6.452   3.043 -0.5503 -0.3715  0.4642
  161SAPE  H14R17980   3.409   6.507   2.988 -0.9961 -0.5991 -0.4302
  161SAPE  C21517981   3.306   6.497   3.171  0.2854 -0.4956  0.7715
  161SAPE  H15R17982   3.334   6.603   3.184 -1.7380  0.3106 -0.8320
  161SAPE  C21617983   3.208   6.437   3.272  0.4819  0.3248 -0.2534
  161SAPE  H16R17984   3.243   6.471   3.372  1.4049 -1.6963  0.1519
  161SAPE  H16S17985   3.212   6.326   3.268 -3.0787  0.0873 -0.3814
  161SAPE  C21717986   3.061   6.492   3.247 -1.1799  0.4641  0.6852
  161SAPE  H17R17987   3.023   6.442   3.156 -0.5798  1.8477 -0.3643
  161SAPE  H17S17988   3.078   6.600   3.226  1.1297 -0.0524 -0.3746
  161SAPE  C21817989   2.970   6.462   3.366 -0.2996 -0.1077 -0.1754
  161SAPE  H18R17990   3.020   6.393   3.437  2.6408 -0.1679 -2.1332
  161SAPE  H18S17991   2.873   6.418   3.333  0.8242 -2.0802 -0.9763
  161SAPE  C21917992   2.945   6.585   3.451 -0.2482  0.1440 -0.7955
  161SAPE  H19R17993   2.905   6.672   3.394 -1.7317  1.9357  2.6319
  161SAPE  H19S17994   3.037   6.623   3.502  0.2005 -1.9840  0.0574
  161SAPE  C22017995   2.837   6.555   3.558  0.4286 -0.4791  0.6251
  161SAPE  H20R17996   2.859   6.467   3.622 -0.5381 -0.6118  0.7857
  161SAPE  H20S17997   2.750   6.542   3.490  1.4820  2.9374 -1.6473
  161SAPE  H20T17998   2.826   6.647   3.618 -2.3943  0.7895 -1.6242
  161SAPE   C3317999   3.436   6.040   2.618  0.6251  0.2416  0.7519
  161SAPE   H3X18000   3.368   6.117   2.659 -0.9673 -0.6535 -0.1273
  161SAPE   H3Y18001   3.514   6.089   2.554 -1.5336  2.0581 -0.6388
  161SAPE   C3418002   3.499   5.958   2.725  0.3969  0.0399 -0.4942
  161SAPE   H4X18003   3.575   6.015   2.781 -0.5517  1.6284 -0.7565
  161SAPE   H4Y18004   3.542   5.869   2.675  0.5987 -0.7678  1.0435
  161SAPE   C3518005   3.398   5.911   2.827  0.5907 -0.2695 -0.5948
  161SAPE   H5X18006   3.311   5.854   2.789  0.4519 -0.2071 -0.3784
  161SAPE   H5Y18007   3.350   6.003   2.867 -0.4664 -1.7503  1.8431
  161SAPE   C3618008   3.474   5.844   2.941 -0.2902  0.2017  0.5957
  161SAPE   H6X18009   3.549   5.921   2.965  0.2607 -0.2536  0.3528
  161SAPE   H6Y18010   3.540   5.762   2.906  1.8100  1.7894  0.6232
  161SAPE   C3718011   3.380   5.814   3.051 -0.5027  0.3776 -0.7277
  161SAPE   H7X18012   3.310   5.737   3.013  0.1820 -0.1899 -0.8582
  161SAPE   H7Y18013   3.328   5.905   3.087  0.6554  0.3835  1.0759
  161SAPE   C3818014   3.439   5.761   3.186  0.3151  0.4640 -0.0768
  161SAPE   H8X18015   3.500   5.670   3.168 -2.2108 -1.3632  0.0375
  161SAPE   H8Y18016   3.358   5.726   3.253 -0.3799 -1.0001 -1.5886
  161SAPE   C3918017   3.529   5.869   3.242  0.0535 -1.0801  0.0647
  161SAPE   H9X18018   3.488   5.972   3.244 -0.0129 -1.0937  2.6781
  161SAPE   H9Y18019   3.624   5.885   3.186  0.5529  1.8205  1.5681
  161SAPE  C31018020   3.550   5.840   3.396 -0.1280  0.2821 -0.1104
  161SAPE  H10X18021   3.589   5.737   3.414  0.5219  0.7667  1.4276
  161SAPE  H10Y18022   3.444   5.842   3.427 -1.0134  3.2523 -2.8575
  161SAPE  C31118023   3.633   5.954   3.457  0.2938 -0.1015  0.4251
  161SAPE  H11X18024   3.578   6.049   3.443  3.2574  2.0726  2.3056
  161SAPE  H11Y18025   3.731   5.956   3.405  1.4509 -0.0852  2.4743
  161SAPE  C31218026   3.656   5.949   3.609  0.2074  0.2064  0.6679
  161SAPE  H12X18027   3.721   6.033   3.642 -0.2638  0.0284  2.0939
  161SAPE  H12Y18028   3.723   5.863   3.626  1.6473  0.6586 -2.1173
  161SAPE  C31318029   3.521   5.934   3.692  0.0780 -0.5011  0.1007
  161SAPE  H13X18030   3.453   5.855   3.653  0.8281 -0.9450 -0.3438
  161SAPE  H13Y18031   3.478   6.030   3.657 -0.8089 -0.4458  1.2965
  161SAPE  C31418032   3.531   5.920   3.846 -0.4641  0.1434 -0.2334
  161SAPE  H14X18033   3.618   5.982   3.875  0.1454 -0.3710 -0.9198
  161SAPE  H14Y18034   3.539   5.812   3.872  2.0976  0.3280 -0.0863
  161SAPE  C31518035   3.411   5.983   3.915  0.4209 -0.1897 -0.2323
  161SAPE  H15X18036   3.317   5.963   3.859 -0.5738 -1.4141  1.7622
  161SAPE  H15Y18037   3.422   6.093   3.910  2.3935 -0.3682 -0.6965
  161SAPE  C31618038   3.389   5.939   4.061 -0.0447  0.7333  0.1671
  161SAPE  H16X18039   3.360   5.832   4.073 -2.8083  1.1556 -1.7125
  161SAPE  H16Y18040   3.300   6.002   4.082 -0.7098  0.0330 -0.4909
  161SAPE  C31718041   3.506   5.971   4.160 -0.0651 -0.4182 -0.3123
  161SAPE  H17X18042   3.551   6.070   4.136 -0.0093 -0.7087 -1.4402
  161SAPE  H17Y18043   3.590   5.898   4.150 -0.4600 -0.9713  0.3574
  161SAPE  C31818044   3.457   5.969   4.301 -0.4111  0.1587  0.1003
  161SAPE  H18X18045   3.383   6.052   4.313  0.2462  0.8786 -0.6611
  161SAPE  H18Y18046   3.542   5.971   4.372 -0.5877 -0.8805  0.3540
  161SAPE  H18Z18047   3.412   5.870   4.322  2.9421 -1.6060 -0.4112
  162SAPE     N18048   2.884   1.578   1.938  0.4105  0.1995  0.4420
  162SAPE   HN118049   2.819   1.644   1.985  2.4417  1.3991  1.7048
  162SAPE   HN218050   2.922   1.504   1.999  2.5682  1.0427  0.2124
  162SAPE   HN318051   2.970   1.626   1.904  0.5563  0.1784  0.7847
  162SAPE   C1218052   2.816   1.505   1.825 -0.5821 -0.2201  0.4610
  162SAPE  H12A18053   2.769   1.569   1.747 -0.6296 -2.1707 -1.1926
  162SAPE  H12B18054   2.729   1.457   1.874  0.0751  0.2448  2.1701
  162SAPE   C1118055   2.899   1.388   1.759  0.3664  0.2131  0.1752
  162SAPE  H11A18056   2.978   1.443   1.703 -0.9356  1.1433 -0.8295
  162SAPE  H11B18057   2.836   1.338   1.682 -2.0389  3.4798 -0.2351
  162SAPE     P18058   3.024   1.173   1.831 -0.4626  0.3978  0.0865
  162SAPE   O1318059   2.928   1.075   1.768 -0.0445 -0.1968  0.1559
  162SAPE   O1418060   3.148   1.207   1.770  0.3249  0.2990 -0.6848
  162SAPE   O1218061   2.951   1.311   1.865  0.3794  0.0947  0.2799
  162SAPE   O1118062   3.062   1.119   1.971  0.2687  0.0849  0.4365
  162SAPE    C118063   2.964   1.080   2.069 -0.8061 -0.2704 -0.1587
  162SAPE    HA18064   2.879   1.024   2.024 -0.8964  0.3615 -0.7971
  162SAPE    HB18065   3.021   1.008   2.132  1.1699  0.0229 -1.5110
  162SAPE    C218066   2.907   1.195   2.156  0.7703 -0.0216 -0.1709
  162SAPE    HS18067   2.890   1.279   2.085 -0.4195  0.1542  0.3008
  162SAPE   O2118068   3.011   1.243   2.247  0.3042 -0.0261  0.3509
  162SAPE   C2118069   3.017   1.381   2.266 -0.4062  0.1055 -1.0515
  162SAPE   O2218070   2.955   1.459   2.199  0.1652  0.2129  0.0782
  162SAPE   C2218071   3.101   1.408   2.390 -0.6122 -0.2641 -0.0711
  162SAPE   H2R18072   3.193   1.348   2.375 -0.6239 -0.8388  1.9009
  162SAPE   H2S18073   3.120   1.518   2.394 -0.4325 -0.3257  1.2064
  162SAPE    C318074   2.781   1.153   2.237 -0.8486  0.6614 -0.8069
  162SAPE    HX18075   2.697   1.119   2.174 -1.7789  0.4728  0.4894
  162SAPE    HY18076   2.751   1.232   2.310  1.1682 -0.7352  1.7249
  162SAPE   O3118077   2.823   1.046   2.321  0.5077 -0.3292 -0.8173
  162SAPE   C3118078   2.757   0.927   2.330 -0.6055 -0.3873  0.3826
  162SAPE   O3218079   2.661   0.896   2.267 -0.3006 -0.5874 -0.0748
  162SAPE   C3218080   2.846   0.822   2.397 -0.4985 -0.1826 -0.0086
  162SAPE   H2X18081   2.926   0.798   2.323  2.8053  2.7588  2.2683
  162SAPE   H2Y18082   2.783   0.731   2.405 -0.7563 -0.2497 -2.1283
  162SAPE   C2318083   3.046   1.343   2.522  0.8231  0.2847  0.2378
  162SAPE   H3R18084   3.113   1.368   2.606 -0.0575 -0.6174  1.2454
  162SAPE   H3S18085   3.040   1.233   2.505 -0.7459  0.6232 -1.9082
  162SAPE   C2418086   2.915   1.410   2.567  0.0114 -0.4698 -0.4321
  162SAPE   H4R18087   2.878   1.365   2.661 -1.5550 -0.4951 -1.0256
  162SAPE   H4S18088   2.825   1.393   2.504 -1.0631  3.4848 -0.2054
  162SAPE   C2518089   2.935   1.561   2.589 -0.3898 -0.5996 -0.5286
  162SAPE   H5R18090   3.033   1.588   2.630 -1.4290 -0.1289  1.8163
  162SAPE   C2618091   2.841   1.657   2.560 -0.4551 -0.1618 -0.5905
  162SAPE   H6R18092   2.856   1.766   2.559  1.0956 -0.3606 -1.3701
  162SAPE   C2718093   2.701   1.628   2.520  0.0018  0.3772 -0.2649
  162SAPE   H7R18094   2.633   1.684   2.587  1.0916  1.1865  0.1748
  162SAPE   H7S18095   2.661   1.525   2.534  1.9517 -0.2211  1.3047
  162SAPE   C2818096   2.660   1.681   2.386 -0.4667  0.4082  0.2696
  162SAPE   H8R18097   2.728   1.752   2.338  0.2630 -0.0492  0.6169
  162SAPE   C2918098   2.534   1.669   2.336  0.0735  0.1155  0.2906
  162SAPE   H9R18099   2.520   1.718   2.239 -0.4975  1.9676  1.2635
  162SAPE  C21018100   2.413   1.612   2.402 -0.4775  0.3728 -0.2918
  162SAPE  H10R18101   2.441   1.528   2.468  0.8138 -1.4803 -3.0071
  162SAPE  H10S18102   2.353   1.554   2.328 -0.4375 -1.7557  1.2652
  162SAPE  C21118103   2.327   1.722   2.464 -0.0255  0.1777  0.0611
  162SAPE  H11R18104   2.333   1.813   2.402 -0.7324 -0.1572 -0.5193
  162SAPE  C21218105   2.253   1.722   2.574 -0.2231  0.1368 -0.3552
  162SAPE  H12R18106   2.190   1.812   2.585  0.2550  0.4701 -0.3052
  162SAPE  C21318107   2.238   1.608   2.668 -0.1996 -0.6921 -0.8832
  162SAPE  H13R18108   2.198   1.519   2.614  1.3840 -1.2418 -1.2089
  162SAPE  H13S18109   2.154   1.635   2.736 -0.9174 -1.0289 -1.6072
  162SAPE  C21418110   2.365   1.574   2.748  0.1428 -0.8275  1.1519
  162SAPE  H14R18111   2.452   1.632   2.715  0.7373 -2.6082 -0.5848
  162SAPE  C21518112   2.366   1.488   2.850 -0.6091 -0.9076 -0.7178
  162SAPE  H15R18113   2.466   1.461   2.887  0.0002  1.5625 -0.3201
  162SAPE  C21618114   2.239   1.427   2.902 -0.3331 -0.2734 -0.1303
  162SAPE  H16R18115   2.232   1.317   2.887 -2.1294  0.1460 -3.2404
  162SAPE  H16S18116   2.154   1.458   2.838  1.0366  1.5603 -1.1821
  162SAPE  C21718117   2.213   1.470   3.049 -0.1917 -0.7800  0.0468
  162SAPE  H17R18118   2.107   1.442   3.066 -0.0524 -0.4562  1.5561
  162SAPE  H17S18119   2.226   1.579   3.063  1.0525 -1.1573  2.2950
  162SAPE  C21818120   2.301   1.392   3.150 -0.3737  0.9829 -0.3796
  162SAPE  H18R18121   2.405   1.396   3.110  0.1472 -0.7836  0.6796
  162SAPE  H18S18122   2.275   1.285   3.158 -1.8701  1.3796  0.4411
  162SAPE  C21918123   2.299   1.446   3.289  0.1663 -0.6656  0.2162
  162SAPE  H19R18124   2.312   1.556   3.295  1.8933 -0.9083  2.2026
  162SAPE  H19S18125   2.388   1.410   3.346  0.5657  0.3553  0.2714
  162SAPE  C22018126   2.181   1.400   3.374 -0.9899 -0.8076  0.2324
  162SAPE  H20R18127   2.189   1.291   3.392  0.4724 -0.8178 -0.2761
  162SAPE  H20S18128   2.081   1.428   3.334 -1.2742 -1.9870  0.0899
  162SAPE  H20T18129   2.187   1.459   3.468  0.1905  1.7581 -1.3158
  162SAPE   C3318130   2.921   0.860   2.524  0.7195  1.2621  0.1577
  162SAPE   H3X18131   2.985   0.951   2.518  2.3655  0.1208 -0.2191
  162SAPE   H3Y18132   2.975   0.766   2.544 -0.8288 -0.2050 -2.1251
  162SAPE   C3418133   2.806   0.889   2.627  0.3009 -0.1047 -0.3279
  162SAPE   H4X18134   2.710   0.836   2.608 -0.9531  1.2149  1.9001
  162SAPE   H4Y18135   2.781   0.997   2.625 -0.2369 -0.1361  2.1239
  162SAPE   C3518136   2.843   0.862   2.770 -0.1225  0.7448 -0.0336
  162SAPE   H5X18137   2.877   0.756   2.772  0.0966  0.8080 -0.4030
  162SAPE   H5Y18138   2.759   0.877   2.841  0.0664  0.9231  0.1509
  162SAPE   C3618139   2.970   0.937   2.818  0.5163 -0.4496  0.3855
  162SAPE   H6X18140   2.956   1.047   2.819  2.5317 -0.1714  1.2978
  162SAPE   H6Y18141   3.040   0.901   2.739 -1.1333 -2.5862 -0.2287
  162SAPE   C3718142   3.024   0.902   2.955  0.6014  0.0555  0.2615
  162SAPE   H7X18143   3.057   0.796   2.946  0.6456  0.1237 -0.4448
  162SAPE   H7Y18144   2.946   0.906   3.034  0.1000  0.7906 -0.2660
  162SAPE   C3818145   3.140   0.988   3.000  0.1352 -0.0281  0.1897
  162SAPE   H8X18146   3.113   1.096   3.004  0.8491  0.3091 -2.1343
  162SAPE   H8Y18147   3.212   0.984   2.915  0.5498 -0.3062  0.5505
  162SAPE   C3918148   3.200   0.937   3.134 -0.2352  0.6672  0.2816
  162SAPE   H9X18149   3.308   0.963   3.137 -0.7705  3.1026  1.9445
  162SAPE   H9Y18150   3.192   0.826   3.132  1.5099  0.5335 -0.8005
  162SAPE  C31018151   3.120   0.989   3.254  1.1814 -0.3958  0.5335
  162SAPE  H10X18152   3.127   0.919   3.340 -2.9055 -0.1169  1.2977
  162SAPE  H10Y18153   3.013   1.005   3.228  1.2437  0.9288  1.0638
  162SAPE  C31118154   3.173   1.126   3.298 -0.4930 -0.2302 -0.2029
  162SAPE  H11X18155   3.220   1.175   3.210  0.7918  0.8993  1.0505
  162SAPE  H11Y18156   3.256   1.116   3.372 -0.6997 -1.1559 -0.0861
  162SAPE  C31218157   3.073   1.219   3.367 -1.1298  0.6805 -0.1857
  162SAPE  H12X18158   2.969   1.188   3.343 -0.9145  0.2259 -0.5419
  162SAPE  H12Y18159   3.087   1.326   3.341 -0.5905  0.2259 -1.9205
  162SAPE  C31318160   3.095   1.220   3.523  0.2177  0.1447 -0.5439
  162SAPE  H13X18161   3.198   1.252   3.546 -0.8770  1.8083  2.6441
  162SAPE  H13Y18162   3.093   1.117   3.566 -0.1280  0.1846 -0.4605
  162SAPE  C31418163   2.996   1.320   3.586 -1.1660  0.4090  0.6742
  162SAPE  H14X18164   2.903   1.259   3.584 -0.9670  0.1134  0.3737
  162SAPE  H14Y18165   2.983   1.405   3.516 -0.3720  0.3656  0.4591
  162SAPE  C31518166   3.035   1.369   3.722  0.1439  0.9209  0.1438
  162SAPE  H15X18167   3.145   1.385   3.731  0.5402 -2.0739  1.6959
  162SAPE  H15Y18168   3.021   1.292   3.800  0.2845 -1.4393 -2.0292
  162SAPE  C31618169   2.949   1.491   3.752 -0.3496  0.6052  0.4997
  162SAPE  H16X18170   2.840   1.470   3.761 -0.2412 -0.3602 -0.2742
  162SAPE  H16Y18171   2.943   1.557   3.663 -1.1809 -0.2513 -0.1053
  162SAPE  C31718172   2.997   1.559   3.875  0.4991 -0.9536 -0.0562
  162SAPE  H17X18173   3.108   1.553   3.882  0.6992 -0.5189 -2.2503
  162SAPE  H17Y18174   2.957   1.512   3.967 -0.6907 -0.7455 -0.4431
  162SAPE  C31818175   2.953   1.705   3.877  0.6771 -0.3045 -0.0623
  162SAPE  H18X18176   2.972   1.754   3.779 -0.0674  1.8822  0.8279
  162SAPE  H18Y18177   3.010   1.763   3.952 -0.4159  0.4181  0.2238
  162SAPE  H18Z18178   2.845   1.722   3.893  0.4524 -0.0683 -1.6775
  163SAPE     N18179   4.573   6.188   2.046 -0.4580 -0.3024  0.0825
  163SAPE   HN118180   4.469   6.192   2.042 -0.3994 -0.2568 -2.4865
  163SAPE   HN218181   4.616   6.241   1.968 -0.5914  0.2090  0.3489
  163SAPE   HN318182   4.603   6.089   2.043 -1.7777 -0.7149 -0.3279
  163SAPE   C1218183   4.618   6.268   2.165 -0.4501  0.2357 -0.0432
  163SAPE  H12A18184   4.728   6.282   2.161 -0.0102 -1.8006  2.5641
  163SAPE  H12B18185   4.591   6.218   2.261  0.2063 -2.6896 -1.2976
  163SAPE   C1118186   4.551   6.407   2.153 -0.7317 -0.1457 -0.3874
  163SAPE  H11A18187   4.552   6.435   2.260  1.1571 -0.5101 -0.2822
  163SAPE  H11B18188   4.447   6.415   2.115 -2.7890 -2.2949  3.9945
  163SAPE     P18189   4.653   6.508   1.930  0.3014  0.4547 -0.2760
  163SAPE   O1318190   4.750   6.615   1.903 -0.1025 -0.2034 -0.4051
  163SAPE   O1418191   4.681   6.372   1.885  0.0868  0.5576 -0.1853
  163SAPE   O1218192   4.634   6.497   2.088  0.1514  0.0187 -0.7025
  163SAPE   O1118193   4.510   6.546   1.882 -0.3120  0.5871  0.2665
  163SAPE    C118194   4.458   6.668   1.940 -0.7924  0.6325  0.9767
  163SAPE    HA18195   4.460   6.653   2.050  1.1199 -2.5464  0.6464
  163SAPE    HB18196   4.521   6.754   1.910  0.9048 -0.8248  0.1695
  163SAPE    C218197   4.307   6.685   1.896 -0.2045 -0.4823  0.1131
  163SAPE    HS18198   4.308   6.715   1.789 -0.0143  0.6521  0.4167
  163SAPE   O2118199   4.248   6.787   1.983  0.9559 -0.4365 -0.4962
  163SAPE   C2118200   4.137   6.837   1.937 -0.4810  0.6345 -0.1427
  163SAPE   O2218201   4.088   6.807   1.829  0.1376 -0.1883 -0.2108
  163SAPE   C2218202   4.082   6.934   2.046  0.0785  0.8505 -0.0710
  163SAPE   H2R18203   3.987   6.895   2.088 -0.5206  1.3304 -0.9319
  163SAPE   H2S18204   4.163   6.953   2.119  1.1063 -1.5390 -0.4843
  163SAPE    C318205   4.234   6.548   1.914 -0.2937  0.1882  0.2269
  163SAPE    HX18206   4.278   6.460   1.862  0.9304  0.0929  1.3782
  163SAPE    HY18207   4.133   6.561   1.870  0.7126  1.8840 -1.7782
  163SAPE   O3118208   4.235   6.521   2.053  0.1638 -0.1352  0.3635
  163SAPE   C3118209   4.133   6.549   2.135 -0.3344  0.6422  0.2238
  163SAPE   O3218210   4.036   6.609   2.098  0.2984 -0.0655  0.0644
  163SAPE   C3218211   4.157   6.484   2.273 -0.1830 -0.3932  0.3491
  163SAPE   H2X18212   4.200   6.382   2.263  1.5476  0.2394  0.9666
  163SAPE   H2Y18213   4.059   6.471   2.324  0.9813 -0.8356  2.5640
  163SAPE   C2318214   4.055   7.073   1.981  0.0510 -0.4739  0.1313
  163SAPE   H3R18215   3.984   7.050   1.898  0.3009 -1.5438  0.1971
  163SAPE   H3S18216   4.148   7.089   1.922 -0.6257 -2.9298 -1.8038
  163SAPE   C2418217   4.000   7.184   2.066  0.3858 -0.0609 -0.9911
  163SAPE   H4R18218   3.902   7.156   2.110  2.2433 -2.0654  2.3303
  163SAPE   H4S18219   3.974   7.276   2.011 -1.2873 -1.5846 -2.9059
  163SAPE   C2518220   4.109   7.228   2.165  0.1700  0.0586 -0.5965
  163SAPE   H5R18221   4.203   7.258   2.116  1.1122  1.4442  1.8914
  163SAPE   C2618222   4.093   7.213   2.297 -0.3731 -0.5621 -0.4180
  163SAPE   H6R18223   4.162   7.270   2.360 -2.2823  2.8560 -1.1402
  163SAPE   C2718224   3.970   7.174   2.382  0.3559 -0.2244 -0.3374
  163SAPE   H7R18225   3.934   7.079   2.337  2.8391  0.3696 -4.0582
  163SAPE   H7S18226   3.889   7.245   2.357  0.5424 -0.0921 -0.5676
  163SAPE   C2818227   3.996   7.159   2.533 -0.0961 -0.2097  0.5245
  163SAPE   H8R18228   3.982   7.254   2.587  1.6258  1.1249 -1.2505
  163SAPE   C2918229   4.011   7.050   2.604 -0.5006  0.5775  0.4927
  163SAPE   H9R18230   4.012   7.064   2.713  1.9031  1.1106  0.4648
  163SAPE  C21018231   4.001   6.907   2.556 -0.7643 -0.2089  0.5492
  163SAPE  H10R18232   4.064   6.909   2.464  1.2979  2.8867  1.8528
  163SAPE  H10S18233   3.898   6.887   2.518 -0.8818  1.1628  0.0585
  163SAPE  C21118234   4.037   6.797   2.645  0.0478 -0.1789  0.1479
  163SAPE  H11R18235   4.123   6.741   2.605 -0.1995  1.5551 -3.2388
  163SAPE  C21218236   3.992   6.776   2.768 -0.5670  0.5886 -0.6069
  163SAPE  H12R18237   4.039   6.691   2.820  0.0269  1.6356  0.6377
  163SAPE  C21318238   3.888   6.852   2.854 -0.5748 -0.7972 -0.0572
  163SAPE  H13R18239   3.859   6.950   2.810 -2.6521 -0.9122  0.9354
  163SAPE  H13S18240   3.924   6.871   2.957 -2.3650  1.1343  0.2797
  163SAPE  C21418241   3.762   6.775   2.843  0.4560  0.2846  0.7403
  163SAPE  H14R18242   3.751   6.700   2.764 -1.7804 -1.4098  2.5003
  163SAPE  C21518243   3.648   6.805   2.918 -0.0039 -0.7229 -0.6412
  163SAPE  H15R18244   3.552   6.757   2.896  0.7582 -2.0489 -1.2495
  163SAPE  C21618245   3.639   6.909   3.029 -0.5434  0.1137  0.6455
  163SAPE  H16R18246   3.543   6.964   3.025  0.1003  1.1919 -2.0071
  163SAPE  H16S18247   3.729   6.974   3.022 -0.3674 -0.1481  0.4331
  163SAPE  C21718248   3.640   6.837   3.163  0.3901 -0.3787  0.3763
  163SAPE  H17R18249   3.734   6.779   3.175  0.5548 -0.3205 -0.6149
  163SAPE  H17S18250   3.565   6.755   3.175  1.1759 -1.3877 -1.2752
  163SAPE  C21818251   3.616   6.955   3.262  0.1737 -0.5792  0.0006
  163SAPE  H18R18252   3.519   7.008   3.257  1.1819  1.6961  2.1450
  163SAPE  H18S18253   3.697   7.028   3.237  0.5679 -0.8752  0.3894
  163SAPE  C21918254   3.651   6.919   3.409  0.6710 -0.2905  0.2779
  163SAPE  H19R18255   3.718   6.985   3.467  0.5531 -1.1920  1.4780
  163SAPE  H19S18256   3.690   6.815   3.408 -0.9787 -0.9648  1.4014
  163SAPE  C22018257   3.515   6.906   3.488  0.5154 -0.1768 -0.5375
  163SAPE  H20R18258   3.439   6.843   3.437  0.3131 -1.1523  0.9143
  163SAPE  H20S18259   3.470   7.005   3.512  1.9716  0.4984 -0.4564
  163SAPE  H20T18260   3.544   6.849   3.578 -0.8803 -0.6392 -0.3550
  163SAPE   C3318261   4.231   6.560   2.384 -0.3736 -0.6328 -0.0293
  163SAPE   H3X18262   4.188   6.661   2.405  2.4338  0.3531  1.5434
  163SAPE   H3Y18263   4.329   6.573   2.334  0.1496 -1.4989  0.7304
  163SAPE   C3418264   4.235   6.486   2.517 -0.4399 -0.0149  0.1166
  163SAPE   H4X18265   4.265   6.382   2.493 -0.7328  0.1785 -1.1483
  163SAPE   H4Y18266   4.131   6.481   2.554 -1.0545  3.6238 -0.6821
  163SAPE   C3518267   4.340   6.540   2.615 -0.0920  0.4008 -0.5356
  163SAPE   H5X18268   4.321   6.646   2.643 -2.2437  0.3276 -1.5441
  163SAPE   H5Y18269   4.441   6.536   2.568 -0.5106  1.0545 -1.5292
  163SAPE   C3618270   4.343   6.459   2.749  0.4648 -0.0138 -0.4427
  163SAPE   H6X18271   4.440   6.478   2.800 -0.0988  1.4731  0.1486
  163SAPE   H6Y18272   4.348   6.354   2.715  1.4373 -0.2219  0.3015
  163SAPE   C3718273   4.227   6.485   2.844  0.4545  0.7843 -0.3362
  163SAPE   H7X18274   4.133   6.468   2.787  0.6091  1.6920 -0.8856
  163SAPE   H7Y18275   4.239   6.594   2.867  0.0512  0.3064  2.5483
  163SAPE   C3818276   4.222   6.412   2.983  0.1955 -0.3136  0.0905
  163SAPE   H8X18277   4.309   6.435   3.049  1.6337  1.6401 -2.2754
  163SAPE   H8Y18278   4.217   6.304   2.959 -2.0704  0.0679 -1.4721
  163SAPE   C3918279   4.102   6.455   3.066  0.1865  0.1072 -0.3879
  163SAPE   H9X18280   4.095   6.381   3.149  1.3368 -1.3274 -1.5205
  163SAPE   H9Y18281   4.013   6.453   3.000  0.2521  0.4057 -0.4857
  163SAPE  C31018282   4.121   6.592   3.133  0.3172 -0.5542  0.1651
  163SAPE  H10X18283   4.122   6.669   3.053 -0.9298 -0.3022  0.3703
  163SAPE  H10Y18284   4.220   6.601   3.183  0.0855  1.8401  0.3241
  163SAPE  C31118285   4.007   6.611   3.238  0.6465  0.9531 -0.3477
  163SAPE  H11X18286   3.962   6.517   3.275  0.0269  0.9462 -1.0959
  163SAPE  H11Y18287   3.917   6.659   3.194 -0.3837  0.0049  0.6656
  163SAPE  C31218288   4.042   6.693   3.362 -0.4453 -0.4455  0.2240
  163SAPE  H12X18289   3.952   6.726   3.418 -0.8999 -0.3634 -0.5354
  163SAPE  H12Y18290   4.098   6.785   3.339 -1.0681  0.6732  2.8173
  163SAPE  C31318291   4.130   6.600   3.455  0.2370  0.0436  0.3174
  163SAPE  H13X18292   4.225   6.578   3.401  0.0360 -1.2164  0.4418
  163SAPE  H13Y18293   4.077   6.502   3.459  0.7414 -0.1831  2.0708
  163SAPE  C31418294   4.152   6.642   3.598 -0.0532 -0.0824 -0.0693
  163SAPE  H14X18295   4.056   6.646   3.654  0.9969  0.8799  1.7767
  163SAPE  H14Y18296   4.198   6.744   3.600  1.9998 -0.9411 -0.7766
  163SAPE  C31518297   4.257   6.560   3.675  0.5513  0.3025 -0.1587
  163SAPE  H15X18298   4.361   6.551   3.635  1.7000 -1.4101  2.8794
  163SAPE  H15Y18299   4.219   6.455   3.671  0.7443  0.2380 -0.3268
  163SAPE  C31618300   4.281   6.599   3.820 -0.4434  0.4699  0.1305
  163SAPE  H16X18301   4.352   6.685   3.813  0.0529  0.0325 -0.3263
  163SAPE  H16Y18302   4.344   6.527   3.875  0.3994  0.8105 -0.3641
  163SAPE  C31718303   4.155   6.643   3.904 -0.2959  0.0188 -0.0203
  163SAPE  H17X18304   4.092   6.552   3.914  1.0553 -0.7345  2.4106
  163SAPE  H17Y18305   4.095   6.722   3.855 -1.3038  0.1486  1.3737
  163SAPE  C31818306   4.195   6.693   4.038 -0.2735 -0.0232 -0.2720
  163SAPE  H18X18307   4.272   6.773   4.025 -0.1983  0.0319  0.5064
  163SAPE  H18Y18308   4.242   6.610   4.095 -0.4037 -0.5821 -0.9595
  163SAPE  H18Z18309   4.111   6.737   4.094 -0.3526  2.0400 -1.8764
  164SAPE     N18310   6.128   5.068   1.875  0.1511  0.3695  0.4755
  164SAPE   HN118311   6.152   5.106   1.781 -0.5796  0.4055  0.2979
  164SAPE   HN218312   6.025   5.060   1.884  0.4237 -1.9543  2.4800
  164SAPE   HN318313   6.161   5.139   1.944  1.0682 -0.2281  0.6691
  164SAPE   C1218314   6.185   4.933   1.913 -1.0780  0.4582 -0.2239
  164SAPE  H12A18315   6.158   4.859   1.834 -0.9304  1.3254 -1.0991
  164SAPE  H12B18316   6.148   4.901   2.013  1.3482 -1.4692  0.1597
  164SAPE   C1118317   6.337   4.933   1.913 -0.3203 -0.1721 -0.0649
  164SAPE  H11A18318   6.361   4.978   1.815 -1.3504  1.9169  0.5827
  164SAPE  H11B18319   6.383   4.832   1.921  1.5641  0.7012  1.0834
  164SAPE     P18320   6.547   5.045   2.011  0.2997  0.0796  0.0174
  164SAPE   O1318321   6.622   4.932   1.953  0.3801  0.4297  0.1341
  164SAPE   O1418322   6.553   5.179   1.951  0.6575 -1.3230 -0.5444
  164SAPE   O1218323   6.392   5.012   2.014 -0.7947  0.5406  0.1206
  164SAPE   O1118324   6.568   5.055   2.166  0.2583 -0.4356 -0.4048
  164SAPE    C118325   6.497   4.965   2.256 -0.4575  0.3648  0.1682
  164SAPE    HA18326   6.447   4.879   2.206  0.0951 -0.0707  0.3463
  164SAPE    HB18327   6.564   4.926   2.336 -0.5361  2.6411  1.4339
  164SAPE    C218328   6.386   5.043   2.324  0.1311 -0.2772 -1.0163
  164SAPE    HS18329   6.302   5.056   2.252  0.6996  0.4647 -1.5619
  164SAPE   O2118330   6.440   5.171   2.371 -0.6281  0.3014  0.6184
  164SAPE   C2118331   6.343   5.260   2.411 -0.6254  0.4755  0.6933
  164SAPE   O2218332   6.230   5.257   2.375  0.5802 -0.2926  0.6040
  164SAPE   C2218333   6.412   5.372   2.476 -0.1255 -0.3448 -0.0712
  164SAPE   H2R18334   6.502   5.335   2.530  1.0291 -2.2355 -3.0153
  164SAPE   H2S18335   6.438   5.441   2.393 -1.4815 -0.9487 -1.0316
  164SAPE    C318336   6.318   4.964   2.441  0.5300 -0.0326 -0.3401
  164SAPE    HX18337   6.266   4.874   2.402 -1.4228 -1.6860  5.1620
  164SAPE    HY18338   6.238   5.031   2.480  0.4663  0.5919 -1.4911
  164SAPE   O3118339   6.409   4.915   2.544  0.3210 -0.1371  0.2011
  164SAPE   C3118340   6.418   4.999   2.651 -0.0818  1.1892  0.3312
  164SAPE   O3218341   6.336   5.083   2.679  0.2075 -0.4622 -0.0354
  164SAPE   C3218342   6.546   4.960   2.737  0.0198  0.5111 -0.4914
  164SAPE   H2X18343   6.550   4.850   2.749 -2.2904  0.5292  1.4133
  164SAPE   H2Y18344   6.519   4.993   2.840  2.1732 -2.7047  1.2605
  164SAPE   C2318345   6.322   5.442   2.573  0.1161  0.0061 -0.1022
  164SAPE   H3R18346   6.315   5.372   2.659 -1.0659 -0.1062 -0.2612
  164SAPE   H3S18347   6.224   5.466   2.525 -1.1239 -0.4097  2.1027
  164SAPE   C2418348   6.379   5.570   2.622 -0.4969 -1.1271 -0.4976
  164SAPE   H4R18349   6.307   5.616   2.693  0.1455  1.3094 -1.3359
  164SAPE   H4S18350   6.388   5.647   2.543 -0.7533 -0.3173  0.2428
  164SAPE   C2518351   6.516   5.559   2.685 -0.3360  0.8663 -0.3527
  164SAPE   H5R18352   6.595   5.593   2.617 -0.6944  0.8836 -0.7654
  164SAPE   C2618353   6.550   5.514   2.809  0.1162  0.0456  0.0494
  164SAPE   H6R18354   6.655   5.522   2.842  0.0237  0.8888  0.1515
  164SAPE   C2718355   6.447   5.465   2.912  0.1068  0.1415  0.3888
  164SAPE   H7R18356   6.482   5.367   2.952 -0.1840  0.1594  0.6905
  164SAPE   H7S18357   6.343   5.464   2.875  0.0982 -1.8834  0.3486
  164SAPE   C2818358   6.470   5.556   3.035 -0.1158 -0.1298  0.4103
  164SAPE   H8R18359   6.539   5.639   3.015 -1.1586  0.8428  0.7357
  164SAPE   C2918360   6.405   5.555   3.157  0.5425  0.7401  0.0839
  164SAPE   H9R18361   6.434   5.626   3.236  0.0505  0.0171  0.9342
  164SAPE  C21018362   6.310   5.445   3.193  0.1169  0.8723 -0.4910
  164SAPE  H10R18363   6.321   5.353   3.131  1.5601  0.7411 -0.0769
  164SAPE  H10S18364   6.211   5.490   3.174  0.7377  1.4671 -2.7446
  164SAPE  C21118365   6.348   5.415   3.339 -0.2215 -0.1853 -0.6071
  164SAPE  H11R18366   6.448   5.370   3.344  0.4348  0.9181 -2.4878
  164SAPE  C21218367   6.287   5.435   3.455 -0.1508 -0.3741  0.0101
  164SAPE  H12R18368   6.334   5.398   3.547  0.8861 -1.3064 -0.8662
  164SAPE  C21318369   6.144   5.491   3.468 -0.0635  0.2102 -0.6628
  164SAPE  H13R18370   6.082   5.415   3.520  3.3016 -1.6248  1.0263
  164SAPE  H13S18371   6.103   5.493   3.365 -0.4389 -0.6120 -0.5378
  164SAPE  C21418372   6.142   5.630   3.533  0.0824 -0.5232  0.5274
  164SAPE  H14R18373   6.163   5.626   3.641 -0.8311  1.2868  0.8124
  164SAPE  C21518374   6.113   5.749   3.478 -0.1572  0.3379 -0.1524
  164SAPE  H15R18375   6.120   5.843   3.536  3.1609  0.9336 -1.2890
  164SAPE  C21618376   6.068   5.764   3.335  1.2370  0.0123 -0.2976
  164SAPE  H16R18377   5.963   5.800   3.325  0.8387 -0.5966  1.3954
  164SAPE  H16S18378   6.059   5.661   3.295 -1.2631  0.6081 -1.4684
  164SAPE  C21718379   6.162   5.836   3.250 -0.1463 -0.2601 -0.0422
  164SAPE  H17R18380   6.270   5.809   3.260 -0.3298 -0.6916  0.9310
  164SAPE  H17S18381   6.165   5.944   3.278  1.7054 -0.8394  2.3297
  164SAPE  C21818382   6.124   5.823   3.105 -0.2243  0.1678  0.4353
  164SAPE  H18R18383   6.030   5.877   3.082  0.3178  1.1501  0.4808
  164SAPE  H18S18384   6.107   5.714   3.089 -0.6511  0.5092 -1.6564
  164SAPE  C21918385   6.234   5.885   3.013  0.7486 -0.4131 -0.3478
  164SAPE  H19R18386   6.340   5.857   3.029  0.6161 -0.7839 -0.1104
  164SAPE  H19S18387   6.228   5.996   3.026 -0.8869 -0.6025  0.7512
  164SAPE  C22018388   6.197   5.857   2.868 -0.2952  0.4331  0.2181
  164SAPE  H20R18389   6.171   5.749   2.859  2.5235 -0.4631  1.6296
  164SAPE  H20S18390   6.283   5.885   2.802 -0.1729  0.1640  0.2615
  164SAPE  H20T18391   6.118   5.926   2.832 -2.2511 -2.9171 -2.4810
  164SAPE   C3318392   6.673   5.028   2.693 -0.2169  1.1367  0.0949
  164SAPE   H3X18393   6.649   5.136   2.684 -2.2617  0.5514 -3.0078
  164SAPE   H3Y18394   6.701   4.999   2.590 -0.2945  4.8945 -1.1274
  164SAPE   C3418395   6.790   4.998   2.787  0.0930  0.3091 -0.1777
  164SAPE   H4X18396   6.880   5.058   2.766 -0.5350  1.7318  0.9999
  164SAPE   H4Y18397   6.805   4.888   2.780 -0.3135  0.1795  0.8174
  164SAPE   C3518398   6.773   5.011   2.936  0.4012  0.0735 -0.1553
  164SAPE   H5X18399   6.866   4.974   2.985  0.4969  2.4653  1.6866
  164SAPE   H5Y18400   6.691   4.949   2.976  0.2875  0.0328 -0.4466
  164SAPE   C3618401   6.740   5.145   2.985  0.4453  0.1037 -0.5873
  164SAPE   H6X18402   6.654   5.183   2.925  2.9336  3.5264 -2.4077
  164SAPE   H6Y18403   6.823   5.213   2.954  0.2908  1.7373  2.2267
  164SAPE   C3718404   6.714   5.152   3.133 -0.1354 -0.1020 -0.0928
  164SAPE   H7X18405   6.762   5.061   3.175 -1.8596  0.1341  2.6744
  164SAPE   H7Y18406   6.605   5.159   3.153 -0.0821 -0.3552  0.2979
  164SAPE   C3818407   6.767   5.279   3.191 -0.4250 -0.1549 -0.2233
  164SAPE   H8X18408   6.699   5.364   3.170  0.2981  0.4413 -0.2017
  164SAPE   H8Y18409   6.872   5.295   3.160 -0.1487 -1.9145 -0.2973
  164SAPE   C3918410   6.783   5.280   3.346 -0.6334 -0.3317  0.4302
  164SAPE   H9X18411   6.692   5.253   3.403 -0.6151  1.7478  1.5444
  164SAPE   H9Y18412   6.808   5.381   3.386  0.2511  0.4941 -1.9968
  164SAPE  C31018413   6.889   5.178   3.389  0.1156  0.3174  1.2021
  164SAPE  H10X18414   6.970   5.177   3.313 -0.3405  0.0024  0.7200
  164SAPE  H10Y18415   6.842   5.078   3.379  0.8997  0.0670 -0.3481
  164SAPE  C31118416   6.945   5.213   3.524 -0.4742  0.2705  0.0564
  164SAPE  H11X18417   6.996   5.121   3.560  1.5905  0.6589 -1.6351
  164SAPE  H11Y18418   6.860   5.245   3.588  1.0821  0.7519  1.9700
  164SAPE  C31218419   7.055   5.319   3.552 -0.0695 -0.6787  0.3224
  164SAPE  H12X18420   7.026   5.422   3.523  2.6789 -0.1356 -0.8193
  164SAPE  H12Y18421   7.148   5.302   3.494  1.2511 -0.2312  2.2475
  164SAPE  C31318422   7.101   5.306   3.698  0.9792  0.2601 -0.5338
  164SAPE  H13X18423   7.124   5.197   3.709  3.0769  0.7745  0.6171
  164SAPE  H13Y18424   7.027   5.343   3.772 -0.9265  0.0494 -2.2399
  164SAPE  C31418425   7.225   5.387   3.743 -0.0066  0.2960 -0.0736
  164SAPE  H14X18426   7.253   5.388   3.851  1.5272 -1.0861 -0.4221
  164SAPE  H14Y18427   7.211   5.495   3.720 -0.9288 -0.0935 -1.4655
  164SAPE  C31518428   7.348   5.348   3.671 -0.0383  0.4139 -0.6436
  164SAPE  H15X18429   7.361   5.361   3.561  1.6108  0.5113 -0.4584
  164SAPE  H15Y18430   7.363   5.240   3.688  0.7088  0.4062 -1.3069
  164SAPE  C31618431   7.466   5.431   3.728 -0.4531 -0.4892 -0.7557
  164SAPE  H16X18432   7.459   5.429   3.839 -0.0155  1.1311 -0.6724
  164SAPE  H16Y18433   7.457   5.533   3.685  0.1279  0.3259  0.9630
  164SAPE  C31718434   7.600   5.356   3.702  0.4157  0.8664 -0.0880
  164SAPE  H17X18435   7.591   5.266   3.767  0.7693  1.1292  0.3344
  164SAPE  H17Y18436   7.690   5.411   3.738 -0.5444  1.1021  2.0702
  164SAPE  C31818437   7.641   5.307   3.559 -0.6769 -0.7714 -0.1119
  164SAPE  H18X18438   7.739   5.254   3.555 -0.7512 -0.9147 -0.0572
  164SAPE  H18Y18439   7.652   5.398   3.496  0.2169  0.5476  1.8419
  164SAPE  H18Z18440   7.562   5.241   3.516  0.2568 -0.4356 -2.5246
  165SAPE     N18441   2.999   6.478   1.881 -0.0201 -0.0267  0.6924
  165SAPE   HN118442   2.932   6.556   1.865  0.6166  0.8147  1.9768
  165SAPE   HN218443   3.014   6.427   1.792 -1.3974  1.5156 -0.4707
  165SAPE   HN318444   2.934   6.418   1.936  0.0849 -1.3914 -0.6159
  165SAPE   C1218445   3.122   6.517   1.955 -0.1342 -0.3158  0.5587
  165SAPE  H12A18446   3.132   6.467   2.054 -0.5741  0.2253  0.8846
  165SAPE  H12B18447   3.120   6.628   1.968 -1.5169  0.1695 -2.7619
  165SAPE   C1118448   3.243   6.478   1.864 -0.3527 -0.2435 -0.1139
  165SAPE  H11A18449   3.250   6.369   1.843  0.4883 -0.2820  0.3004
  165SAPE  H11B18450   3.333   6.500   1.925 -0.5108  0.6635 -0.1923
  165SAPE     P18451   3.348   6.672   1.725 -0.3323  0.1607  0.0870
  165SAPE   O1318452   3.483   6.611   1.736 -0.1473 -0.0977  0.5162
  165SAPE   O1418453   3.314   6.741   1.595 -0.0478 -0.3770  0.1047
  165SAPE   O1218454   3.239   6.561   1.749  0.2382 -0.0840  0.3264
  165SAPE   O1118455   3.324   6.771   1.845  0.1251 -0.5083 -0.5467
  165SAPE    C118456   3.406   6.770   1.956  1.0292 -0.0961 -0.5569
  165SAPE    HA18457   3.413   6.672   2.007 -0.2459 -0.1325 -0.4265
  165SAPE    HB18458   3.509   6.805   1.934  1.0010  1.6062  1.6602
  165SAPE    C218459   3.380   6.874   2.070  0.4283  0.2945 -0.0784
  165SAPE    HS18460   3.470   6.857   2.133 -0.3987 -0.6081  0.8950
  165SAPE   O2118461   3.253   6.852   2.135  0.4717  0.2232 -0.5598
  165SAPE   C2118462   3.262   6.835   2.272 -0.2012 -0.2111  0.5312
  165SAPE   O2218463   3.361   6.850   2.341  0.2412 -0.1047 -0.1058
  165SAPE   C2218464   3.128   6.795   2.330  0.4054  0.0876  0.1513
  165SAPE   H2R18465   3.113   6.689   2.302 -0.6488  0.3420 -0.3125
  165SAPE   H2S18466   3.140   6.801   2.440  1.5112 -3.4190  0.3441
  165SAPE    C318467   3.394   7.023   2.024 -0.9326 -0.9414  0.0446
  165SAPE    HX18468   3.303   7.045   1.964 -0.4518 -1.2732 -0.8269
  165SAPE    HY18469   3.482   7.031   1.955  0.2579 -1.5649  1.4341
  165SAPE   O3118470   3.406   7.098   2.142  0.2115 -0.0163  0.3586
  165SAPE   C3118471   3.513   7.177   2.158 -0.3174 -0.1365 -0.4006
  165SAPE   O3218472   3.605   7.187   2.080  0.9414  0.2253  0.2361
  165SAPE   C3218473   3.506   7.243   2.295 -0.2962 -0.1506 -0.3426
  165SAPE   H2X18474   3.400   7.234   2.326 -0.6281 -3.1983 -1.9613
  165SAPE   H2Y18475   3.536   7.349   2.283  3.0840 -1.2077 -3.0332
  165SAPE   C2318476   3.000   6.887   2.284 -0.0903  0.8386  0.0867
  165SAPE   H3R18477   2.914   6.819   2.301  0.9858 -0.1441  2.0319
  165SAPE   H3S18478   3.008   6.902   2.174 -0.3761 -1.0887 -0.2409
  165SAPE   C2418479   2.968   7.008   2.365  0.0115 -0.1071  0.0296
  165SAPE   H4R18480   2.935   6.978   2.468  1.2084 -2.4338 -0.1854
  165SAPE   H4S18481   2.876   7.046   2.317 -1.7181 -2.6430  1.0718
  165SAPE   C2518482   3.076   7.112   2.363 -0.1108 -0.4928 -0.2605
  165SAPE   H5R18483   3.116   7.158   2.271  0.8147  3.1272  1.7492
  165SAPE   C2618484   3.140   7.153   2.475  0.0189  1.0572 -0.3229
  165SAPE   H6R18485   3.226   7.221   2.464 -0.3066  1.1596 -3.0982
  165SAPE   C2718486   3.118   7.103   2.616  0.1001  0.8178 -0.0551
  165SAPE   H7R18487   3.013   7.077   2.644  0.2735 -0.4531 -0.5288
  165SAPE   H7S18488   3.143   7.185   2.686  1.2896 -0.1530  0.6842
  165SAPE   C2818489   3.208   6.983   2.641  0.1200 -0.6061  0.4138
  165SAPE   H8R18490   3.258   6.951   2.548  2.1030  2.4316  0.2766
  165SAPE   C2918491   3.231   6.914   2.751 -0.7913  0.1509 -0.0061
  165SAPE   H9R18492   3.314   6.842   2.753  0.1266  1.1682 -0.3483
  165SAPE  C21018493   3.161   6.925   2.887  0.0043 -0.2409  0.8127
  165SAPE  H10R18494   3.061   6.876   2.881 -0.8262  1.5230 -2.8584
  165SAPE  H10S18495   3.134   7.031   2.907 -0.2639 -0.3076  0.8180
  165SAPE  C21118496   3.235   6.874   3.013  0.1765 -0.2619  0.0151
  165SAPE  H11R18497   3.313   6.801   2.988  0.4585  0.2732 -0.6755
  165SAPE  C21218498   3.214   6.900   3.145 -0.0804  0.1772 -0.2620
  165SAPE  H12R18499   3.271   6.834   3.212 -0.5596 -0.0306 -0.0477
  165SAPE  C21318500   3.118   6.985   3.216  0.4164 -0.6204 -0.3400
  165SAPE  H13R18501   3.023   6.931   3.237  0.6072 -0.8925 -0.1694
  165SAPE  H13S18502   3.071   7.057   3.145 -0.3403 -2.5800 -1.9443
  165SAPE  C21418503   3.184   7.053   3.334  0.4978  0.3959  0.2493
  165SAPE  H14R18504   3.274   7.113   3.312  1.8362 -1.3549  0.6584
  165SAPE  C21518505   3.141   7.049   3.463  0.4379 -0.3252  0.3591
  165SAPE  H15R18506   3.196   7.110   3.536  1.1997 -0.4550 -0.0942
  165SAPE  C21618507   3.014   6.978   3.514  0.2608  0.0091 -0.3961
  165SAPE  H16R18508   3.053   6.882   3.553 -2.4260 -2.1663 -2.6209
  165SAPE  H16S18509   2.947   6.948   3.430  0.0683 -1.9742  0.4162
  165SAPE  C21718510   2.934   7.055   3.625 -0.1100  0.6406 -0.3794
  165SAPE  H17R18511   2.999   7.086   3.709 -0.9506  0.6653  0.2698
  165SAPE  H17S18512   2.867   6.978   3.670  0.4327  0.2488 -0.2336
  165SAPE  C21818513   2.844   7.165   3.569 -0.1469  0.5390 -0.3859
  165SAPE  H18R18514   2.903   7.225   3.496 -0.8019 -0.1730 -1.5238
  165SAPE  H18S18515   2.813   7.229   3.655 -0.6702  0.4677 -0.5203
  165SAPE  C21918516   2.722   7.105   3.505  0.5265 -0.1725 -0.1104
  165SAPE  H19R18517   2.649   7.065   3.579 -0.8667  1.7637 -0.3583
  165SAPE  H19S18518   2.742   7.022   3.434  0.7678 -1.7389  1.7148
  165SAPE  C22018519   2.648   7.208   3.421 -0.3476  0.1003  0.0717
  165SAPE  H20R18520   2.630   7.292   3.491  0.5316 -0.4419  0.9721
  165SAPE  H20S18521   2.542   7.178   3.406 -0.6015  0.0237  1.8366
  165SAPE  H20T18522   2.700   7.244   3.330  0.0385  0.5552  0.4672
  165SAPE   C3318523   3.600   7.179   2.394 -0.1493 -0.8859 -0.0663
  165SAPE   H3X18524   3.705   7.179   2.357  0.0574  1.0882  0.4193
  165SAPE   H3Y18525   3.568   7.074   2.409  0.2174 -0.9039  0.6427
  165SAPE   C3418526   3.611   7.255   2.528 -0.2445  0.0284  0.2984
  165SAPE   H4X18527   3.667   7.350   2.513 -0.4735  0.2436  0.7520
  165SAPE   H4Y18528   3.668   7.198   2.605  1.2775 -0.2710 -1.0118
  165SAPE   C3518529   3.477   7.290   2.596  0.1859 -0.8080  0.1841
  165SAPE   H5X18530   3.411   7.201   2.601 -0.4772 -0.4214 -1.1107
  165SAPE   H5Y18531   3.432   7.366   2.528  2.0622  1.9014  1.8212
  165SAPE   C3618532   3.497   7.337   2.742  0.6400  0.5105  0.4075
  165SAPE   H6X18533   3.406   7.399   2.759  1.6687  2.4607 -0.8486
  165SAPE   H6Y18534   3.575   7.415   2.754  0.5003  0.7853 -0.4483
  165SAPE   C3718535   3.508   7.224   2.842  0.1984  0.2224  0.2720
  165SAPE   H7X18536   3.595   7.155   2.846  1.2811  1.6018  0.9528
  165SAPE   H7Y18537   3.427   7.151   2.820  0.0359  0.3538  0.4338
  165SAPE   C3818538   3.475   7.259   2.986 -0.1911  0.4535 -0.6427
  165SAPE   H8X18539   3.445   7.163   3.032 -1.6245  0.4894 -1.4711
  165SAPE   H8Y18540   3.386   7.325   2.981 -0.0761  0.6375 -0.3076
  165SAPE   C3918541   3.599   7.308   3.060 -0.1154 -0.3585 -0.3244
  165SAPE   H9X18542   3.645   7.399   3.016 -0.1605  1.4266  2.9608
  165SAPE   H9Y18543   3.675   7.227   3.048  3.0833  2.0830  1.8348
  165SAPE  C31018544   3.572   7.348   3.215 -0.1325  0.2500  0.4591
  165SAPE  H10X18545   3.500   7.274   3.254 -1.1806  1.7530  1.5014
  165SAPE  H10Y18546   3.524   7.448   3.213  1.1628  0.8872 -0.9417
  165SAPE  C31118547   3.697   7.369   3.299  0.4618  0.0334  0.0794
  165SAPE  H11X18548   3.750   7.460   3.265  0.7266  0.4316  1.4914
  165SAPE  H11Y18549   3.761   7.279   3.287 -0.7229 -0.7862 -0.2825
  165SAPE  C31218550   3.673   7.386   3.450  0.5652  0.3728  0.2524
  165SAPE  H12X18551   3.626   7.304   3.509 -0.9723  0.7621 -0.3918
  165SAPE  H12Y18552   3.601   7.469   3.465  0.8152 -0.0467  5.6892
  165SAPE  C31318553   3.804   7.431   3.518  0.0726  0.4287 -0.4459
  165SAPE  H13X18554   3.870   7.501   3.461  0.4983  1.7347  1.5356
  165SAPE  H13Y18555   3.867   7.345   3.550 -0.8876  0.4397  1.5969
  165SAPE  C31418556   3.786   7.510   3.649 -0.6171  0.1781 -0.1499
  165SAPE  H14X18557   3.740   7.605   3.614 -0.3219  0.5915  0.5719
  165SAPE  H14Y18558   3.884   7.522   3.700 -1.3561 -0.0435  1.3771
  165SAPE  C31518559   3.694   7.449   3.751 -0.1028  0.5837  0.2540
  165SAPE  H15X18560   3.587   7.457   3.721 -0.3020 -0.3583  0.6778
  165SAPE  H15Y18561   3.698   7.507   3.846 -3.3947  1.9604 -0.2998
  165SAPE  C31618562   3.744   7.306   3.793 -0.4817  0.5785  0.8628
  165SAPE  H16X18563   3.851   7.305   3.825 -0.4100 -0.0304  0.6099
  165SAPE  H16Y18564   3.752   7.244   3.701  0.6852 -1.3689  2.2099
  165SAPE  C31718565   3.648   7.249   3.903 -0.1320  0.1572 -0.0047
  165SAPE  H17X18566   3.654   7.312   3.994  1.0570  1.8413 -1.1838
  165SAPE  H17Y18567   3.681   7.148   3.934  0.3014  0.5939  1.0042
  165SAPE  C31818568   3.502   7.253   3.858  1.1733 -0.6044 -0.0764
  165SAPE  H18X18569   3.439   7.243   3.949  0.4878  2.1763 -0.1480
  165SAPE  H18Y18570   3.481   7.174   3.782 -0.3793 -0.1133 -0.1887
  165SAPE  H18Z18571   3.462   7.350   3.822  2.1891  0.3136  1.1997
  166SAPE     N18572   5.053   0.743   1.931 -0.4199  1.0916 -0.3306
  166SAPE   HN118573   4.981   0.701   1.869 -0.4332 -3.4636  2.3961
  166SAPE   HN218574   5.022   0.835   1.969  0.1091  1.5650 -1.0204
  166SAPE   HN318575   5.144   0.763   1.885  1.0169 -0.0750  1.8328
  166SAPE   C1218576   5.068   0.645   2.043  0.4160  0.0456 -0.9026
  166SAPE  H12A18577   4.971   0.636   2.097  0.4138  0.0588 -0.9037
  166SAPE  H12B18578   5.143   0.684   2.114 -1.6216  1.3401  0.6271
  166SAPE   C1118579   5.108   0.499   1.990  0.1351 -0.3641  0.3889
  166SAPE  H11A18580   5.032   0.460   1.918  0.2129 -2.4347  1.3439
  166SAPE  H11B18581   5.096   0.428   2.075  0.6347 -2.3312 -1.1130
  166SAPE     P18582   5.266   0.486   1.783  0.0988  0.0735  0.1404
  166SAPE   O1318583   5.218   0.609   1.714 -0.5919  0.0932  0.1366
  166SAPE   O1418584   5.405   0.441   1.753 -0.2432  0.3989 -0.1114
  166SAPE   O1218585   5.245   0.501   1.947  0.0134 -0.3710 -0.3806
  166SAPE   O1118586   5.169   0.372   1.745  0.4346 -0.1069  0.6064
  166SAPE    C118587   5.203   0.239   1.775  0.3912 -0.2372  0.1910
  166SAPE    HA18588   5.257   0.186   1.694 -0.1806 -1.4491  0.5885
  166SAPE    HB18589   5.260   0.226   1.869 -0.0493 -0.3762  0.4376
  166SAPE    C218590   5.067   0.161   1.789 -0.6981  0.5292 -0.4573
  166SAPE    HS18591   5.011   0.177   1.694 -0.3398 -0.2957 -0.8128
  166SAPE   O2118592   4.991   0.212   1.900 -0.1769  0.4418 -0.3489
  166SAPE   C2118593   4.860   0.181   1.904 -0.3482  0.1908 -0.0425
  166SAPE   O2218594   4.805   0.113   1.822 -0.5188  0.0222 -0.6722
  166SAPE   C2218595   4.796   0.256   2.020  0.0214  0.3208  0.0300
  166SAPE   H2R18596   4.796   0.364   1.995 -1.3102  0.5532  0.9125
  166SAPE   H2S18597   4.690   0.225   2.027  0.1110  0.0658  0.3052
  166SAPE    C318598   5.097   0.007   1.797 -0.6773 -0.4155  0.2040
  166SAPE    HX18599   5.145  -0.015   1.700  0.7509  1.2824  0.4649
  166SAPE    HY18600   5.001  -0.048   1.796 -0.6430 -0.5674  1.8907
  166SAPE   O3118601   5.195  -0.019   1.906 -0.3583  0.0240  0.3410
  166SAPE   C3118602   5.144  -0.085   2.012 -0.5978 -0.6888 -0.2962
  166SAPE   O3218603   5.031  -0.122   2.025  0.3520 -0.2758 -0.2124
  166SAPE   C3218604   5.257  -0.117   2.107  0.2388  0.6857 -0.6307
  166SAPE   H2X18605   5.343  -0.114   2.037  1.1050  2.6774  0.4098
  166SAPE   H2Y18606   5.244  -0.219   2.149  0.4738  1.4655  1.5087
  166SAPE   C2318607   4.864   0.219   2.158 -0.0090  0.4946  0.4602
  166SAPE   H3R18608   4.975   0.230   2.157 -0.1861  3.0889  1.0137
  166SAPE   H3S18609   4.829   0.116   2.179 -0.8938 -0.2794 -3.8822
  166SAPE   C2418610   4.823   0.309   2.276 -0.5209  0.1975  0.0839
  166SAPE   H4R18611   4.712   0.319   2.269 -0.6320  0.5499  1.9738
  166SAPE   H4S18612   4.859   0.413   2.257  1.5198 -1.0086 -3.8147
  166SAPE   C2518613   4.864   0.241   2.405 -0.1501  0.3644 -0.5231
  166SAPE   H5R18614   4.830   0.136   2.413  0.7545  0.1248  0.4354
  166SAPE   C2618615   4.928   0.300   2.509 -0.4595 -0.8877  0.1181
  166SAPE   H6R18616   4.957   0.242   2.598  0.0099  2.1317  2.0992
  166SAPE   C2718617   4.981   0.442   2.504  0.6202  0.4434 -0.0114
  166SAPE   H7R18618   5.002   0.466   2.611  1.7055 -1.6430  0.2993
  166SAPE   H7S18619   4.904   0.515   2.471 -1.3404 -1.2275  0.6953
  166SAPE   C2818620   5.107   0.464   2.424 -0.2074 -0.1943 -0.3900
  166SAPE   H8R18621   5.156   0.374   2.383  0.8980  0.3382 -0.2620
  166SAPE   C2918622   5.169   0.586   2.412  0.2066 -0.2664  0.5727
  166SAPE   H9R18623   5.253   0.593   2.341  0.0937 -3.4930 -0.0103
  166SAPE  C21018624   5.120   0.710   2.471  0.3173  0.1223 -0.5518
  166SAPE  H10R18625   5.028   0.694   2.531  0.4124  0.2150 -0.3797
  166SAPE  H10S18626   5.092   0.789   2.399 -0.0732 -0.5755 -1.1731
  166SAPE  C21118627   5.213   0.789   2.569  0.3412  0.7459  0.5839
  166SAPE  H11R18628   5.301   0.829   2.516  0.8824 -1.6878 -0.4893
  166SAPE  C21218629   5.203   0.798   2.702  1.1121 -0.1261  0.4454
  166SAPE  H12R18630   5.286   0.844   2.759  0.8315  0.0487  0.7143
  166SAPE  C21318631   5.087   0.733   2.780 -0.4157 -0.4892 -1.0456
  166SAPE  H13R18632   5.133   0.644   2.827 -1.7198 -0.0330  1.2225
  166SAPE  H13S18633   4.995   0.718   2.721 -1.7719  0.6404  0.6835
  166SAPE  C21418634   5.043   0.831   2.892 -0.4780 -0.7359 -0.3992
  166SAPE  H14R18635   5.063   0.939   2.885 -2.7884 -0.3084 -1.4120
  166SAPE  C21518636   4.974   0.792   2.996  0.4128 -0.4652  0.2705
  166SAPE  H15R18637   4.936   0.867   3.067 -0.1527  2.6817 -3.0503
  166SAPE  C21618638   4.934   0.647   3.020  0.0922 -0.6033  0.6447
  166SAPE  H16R18639   4.955   0.585   2.930  0.7324 -0.7818  0.9127
  166SAPE  H16S18640   4.824   0.642   3.029 -0.2175 -0.5096 -2.1757
  166SAPE  C21718641   5.013   0.602   3.150  0.2479  0.8048  0.6181
  166SAPE  H17R18642   5.121   0.614   3.127  0.4420 -0.7531  0.6197
  166SAPE  H17S18643   5.000   0.493   3.169 -0.9580  0.8617  0.1589
  166SAPE  C21818644   4.967   0.679   3.278  0.2545 -0.6620 -0.2144
  166SAPE  H18R18645   4.993   0.784   3.252  0.6278 -0.3804  1.1893
  166SAPE  H18S18646   5.033   0.655   3.365  1.6282 -0.3487 -1.1278
  166SAPE  C21918647   4.817   0.675   3.306  0.3685 -0.3970 -0.0983
  166SAPE  H19R18648   4.773   0.574   3.294  0.6763 -0.5570  0.0879
  166SAPE  H19S18649   4.769   0.737   3.227 -0.8766  0.9466  1.6288
  166SAPE  C22018650   4.788   0.737   3.440  0.2567 -0.6595 -0.3658
  166SAPE  H20R18651   4.680   0.737   3.467  0.4370  0.7905  0.5163
  166SAPE  H20S18652   4.824   0.842   3.441  0.4130 -0.7080  1.0093
  166SAPE  H20T18653   4.839   0.683   3.523 -1.5119 -0.8822  0.6349
  166SAPE   C3318654   5.272  -0.008   2.215  0.6175 -0.1056  0.1792
  166SAPE   H3X18655   5.262   0.092   2.167 -0.1767 -1.5952 -3.0059
  166SAPE   H3Y18656   5.377  -0.000   2.253  1.2037  2.1202 -1.6332
  166SAPE   C3418657   5.174  -0.038   2.336 -0.0017 -1.0794 -0.0944
  166SAPE   H4X18658   5.171  -0.143   2.371  0.5847 -1.1164 -0.1548
  166SAPE   H4Y18659   5.066  -0.024   2.312  0.2742  1.7461 -0.0554
  166SAPE   C3518660   5.204   0.047   2.456 -0.1244  1.2121  0.1692
  166SAPE   H5X18661   5.159   0.144   2.426 -2.2793 -0.1095 -1.1781
  166SAPE   H5Y18662   5.311   0.063   2.480  0.7319 -3.1624 -0.0571
  166SAPE   C3618663   5.134  -0.002   2.588  0.1316  0.0432  0.3788
  166SAPE   H6X18664   5.169  -0.105   2.610 -0.8517 -0.1006  1.3902
  166SAPE   H6Y18665   5.023  -0.008   2.579  0.1020 -3.3580  1.5054
  166SAPE   C3718666   5.162   0.097   2.698 -0.1675 -0.7386  0.1970
  166SAPE   H7X18667   5.156   0.196   2.649  2.1362 -0.5454  0.1849
  166SAPE   H7Y18668   5.268   0.084   2.730 -0.1331 -3.9799 -0.8478
  166SAPE   C3818669   5.077   0.070   2.825  0.6255 -0.6972 -0.1351
  166SAPE   H8X18670   5.114  -0.024   2.872  3.1660  1.5209  2.6628
  166SAPE   H8Y18671   4.968   0.071   2.804  0.3069 -0.0116  1.4518
  166SAPE   C3918672   5.091   0.197   2.922  0.4650 -0.6907 -0.9589
  166SAPE   H9X18673   5.028   0.283   2.890 -0.7950 -1.0326  0.5329
  166SAPE   H9Y18674   5.200   0.220   2.923  1.0951 -3.2127  1.5025
  166SAPE  C31018675   5.050   0.167   3.070  0.7909 -0.2969 -0.4789
  166SAPE  H10X18676   4.968   0.093   3.061 -0.8033  1.1307  1.5721
  166SAPE  H10Y18677   5.003   0.253   3.121  3.0468  0.4312  0.5162
  166SAPE  C31118678   5.177   0.123   3.149  0.7735  0.2165 -0.7178
  166SAPE  H11X18679   5.248   0.205   3.126  1.4991  0.1425  1.0883
  166SAPE  H11Y18680   5.216   0.025   3.114  1.0375 -0.3938  1.1564
  166SAPE  C31218681   5.153   0.115   3.302  0.9458  0.8707  0.1808
  166SAPE  H12X18682   5.120   0.215   3.336 -0.0484  0.1646  1.4086
  166SAPE  H12Y18683   5.244   0.087   3.360  0.1550 -0.7550  0.7324
  166SAPE  C31318684   5.043   0.010   3.338 -0.7183 -0.4158 -0.5767
  166SAPE  H13X18685   4.953   0.008   3.272 -0.6616 -0.9570 -0.6456
  166SAPE  H13Y18686   5.004   0.037   3.438  4.8651 -0.5836  2.0069
  166SAPE  C31418687   5.107  -0.132   3.355  0.1534  0.1711  0.1012
  166SAPE  H14X18688   5.175  -0.140   3.443  0.6206 -0.1815 -0.2896
  166SAPE  H14Y18689   5.171  -0.162   3.269 -0.8135 -1.4753 -0.0780
  166SAPE  C31518690   4.995  -0.233   3.381  0.0785  0.5391 -0.3327
  166SAPE  H15X18691   4.924  -0.218   3.296 -0.8225 -0.8300  0.1440
  166SAPE  H15Y18692   4.937  -0.218   3.475 -0.2014  0.0663 -0.4259
  166SAPE  C31618693   5.041  -0.375   3.383 -0.3298 -0.7648  0.7717
  166SAPE  H16X18694   5.107  -0.390   3.295 -0.4309  1.1976  0.3276
  166SAPE  H16Y18695   4.952  -0.441   3.371 -0.6374  0.0365 -2.4843
  166SAPE  C31718696   5.110  -0.422   3.514  0.2382 -0.2301  0.0689
  166SAPE  H17X18697   5.042  -0.378   3.591  0.3424 -2.4395  1.4971
  166SAPE  H17Y18698   5.210  -0.374   3.518  0.7826 -0.9380 -2.8588
  166SAPE  C31818699   5.129  -0.573   3.523 -0.5050  0.2511 -0.0197
  166SAPE  H18X18700   5.189  -0.618   3.442 -0.4173  0.6573 -0.1860
  166SAPE  H18Y18701   5.031  -0.626   3.523 -0.2875 -0.1621  0.7962
  166SAPE  H18Z18702   5.166  -0.612   3.620 -0.4442 -0.4497 -0.3205
  167SAPE     N18703   0.197   4.437   1.871 -0.4087 -0.0657  0.2115
  167SAPE   HN118704   0.238   4.526   1.837 -0.8202 -0.1925 -0.6384
  167SAPE   HN218705   0.208   4.367   1.795 -1.5880 -1.0135  0.8758
  167SAPE   HN318706   0.098   4.469   1.872 -1.1103 -1.9857 -0.9395
  167SAPE   C1218707   0.251   4.399   2.004 -0.2728 -0.1511 -0.2755
  167SAPE  H12A18708   0.207   4.311   2.055 -1.3327  1.1724  1.2076
  167SAPE  H12B18709   0.238   4.482   2.078 -3.1775  1.3125 -2.2366
  167SAPE   C1118710   0.404   4.389   1.984 -0.1681 -0.1717 -0.2376
  167SAPE  H11A18711   0.432   4.298   1.926  3.1522  0.7096 -0.1926
  167SAPE  H11B18712   0.449   4.372   2.084 -0.4586 -1.6038 -0.3227
  167SAPE     P18713   0.494   4.639   1.967 -0.0224  0.1437 -0.4711
  167SAPE   O1318714   0.555   4.708   1.851  0.1920 -0.0579  0.1531
  167SAPE   O1418715   0.372   4.694   2.032  0.3060 -0.0143  0.1178
  167SAPE   O1218716   0.455   4.497   1.912 -0.9404  0.6676 -0.0419
  167SAPE   O1118717   0.600   4.602   2.072 -0.3217 -0.0457 -0.4985
  167SAPE    C118718   0.661   4.703   2.159  0.4572 -0.1305  0.2308
  167SAPE    HA18719   0.754   4.742   2.113  1.0380 -1.2797  0.4065
  167SAPE    HB18720   0.588   4.783   2.184 -1.0361 -0.9118 -1.4090
  167SAPE    C218721   0.707   4.649   2.300 -0.1597 -0.6454  0.3314
  167SAPE    HS18722   0.802   4.592   2.285  1.1813  1.9654 -1.9036
  167SAPE   O2118723   0.596   4.577   2.351  0.0610 -0.2294 -0.0607
  167SAPE   C2118724   0.626   4.474   2.421 -0.1141 -0.2510 -0.8022
  167SAPE   O2218725   0.741   4.439   2.463  1.0857  0.3967 -0.2492
  167SAPE   C2218726   0.505   4.381   2.420 -0.0156 -0.0307 -0.2218
  167SAPE   H2R18727   0.422   4.416   2.355  0.5436  0.6915 -0.5686
  167SAPE   H2S18728   0.540   4.283   2.383 -3.6648 -1.8291  0.5930
  167SAPE    C318729   0.743   4.771   2.392 -0.3076  0.0284  0.3509
  167SAPE    HX18730   0.656   4.840   2.394 -1.0547 -0.8897  0.0338
  167SAPE    HY18731   0.823   4.835   2.349 -1.8537  0.7643 -1.5504
  167SAPE   O3118732   0.769   4.743   2.525 -0.0102  0.2676 -0.2848
  167SAPE   C3118733   0.895   4.722   2.551 -0.2227  0.3110 -0.6176
  167SAPE   O3218734   0.985   4.725   2.466  0.5801 -0.5775 -0.2626
  167SAPE   C3218735   0.915   4.685   2.699 -0.1795  0.0986 -0.0332
  167SAPE   H2X18736   0.822   4.632   2.732  0.3246 -0.1107  1.0948
  167SAPE   H2Y18737   0.932   4.782   2.749 -0.2713  0.4511 -0.6676
  167SAPE   C2318738   0.451   4.346   2.563 -0.2234 -0.6703 -1.6975
  167SAPE   H3R18739   0.526   4.306   2.635  0.5224  0.4897 -1.8023
  167SAPE   H3S18740   0.375   4.267   2.545  1.0658 -2.8179  1.3734
  167SAPE   C2418741   0.371   4.467   2.628  0.0530  0.5819 -0.4560
  167SAPE   H4R18742   0.324   4.446   2.726 -0.4222  1.0587 -0.5722
  167SAPE   H4S18743   0.288   4.488   2.557  1.4478 -0.2035 -2.4091
  167SAPE   C2518744   0.456   4.594   2.642 -0.4888 -0.3168 -0.5089
  167SAPE   H5R18745   0.448   4.658   2.553 -1.7255  0.4902  0.1431
  167SAPE   C2618746   0.526   4.633   2.750  0.4650 -0.2456  0.2608
  167SAPE   H6R18747   0.565   4.735   2.761 -0.2741  0.0592  0.1191
  167SAPE   C2718748   0.530   4.558   2.881 -0.0458 -0.1304  0.2624
  167SAPE   H7R18749   0.595   4.472   2.854 -1.0633 -0.2351 -2.1709
  167SAPE   H7S18750   0.434   4.506   2.902  0.6451 -1.4570  0.2173
  167SAPE   C2818751   0.598   4.628   3.000 -0.3903 -0.2444  0.3740
  167SAPE   H8R18752   0.639   4.726   2.971  0.4905 -0.8759 -0.6116
  167SAPE   C2918753   0.604   4.571   3.121 -0.2499  0.3329 -0.4464
  167SAPE   H9R18754   0.646   4.629   3.204 -2.6853  0.1620  1.0125
  167SAPE  C21018755   0.557   4.440   3.163  0.6312 -0.3238 -0.5091
  167SAPE  H10R18756   0.628   4.398   3.238 -1.1123 -1.5607  0.5102
  167SAPE  H10S18757   0.538   4.358   3.091  0.2889 -1.7304  1.1287
  167SAPE  C21118758   0.431   4.468   3.242 -0.0750  0.6920 -0.7518
  167SAPE  H11R18759   0.345   4.496   3.178 -0.6142 -0.5765 -0.6138
  167SAPE  C21218760   0.414   4.458   3.377 -0.1658 -0.9594  0.1005
  167SAPE  H12R18761   0.309   4.461   3.409  0.1271 -0.5208  1.0536
  167SAPE  C21318762   0.512   4.416   3.477 -0.0240  0.0008 -1.2593
  167SAPE  H13R18763   0.600   4.484   3.490 -0.0213 -0.4867  1.9463
  167SAPE  H13S18764   0.558   4.319   3.448 -1.1327 -2.0523  3.0924
  167SAPE  C21418765   0.450   4.381   3.614  0.5159 -0.5605  0.3272
  167SAPE  H14R18766   0.455   4.273   3.637  0.4604 -1.0143 -1.5830
  167SAPE  C21518767   0.419   4.463   3.711  0.3430 -0.2431  0.2057
  167SAPE  H15R18768   0.375   4.427   3.805  1.5833  0.6755  1.1812
  167SAPE  C21618769   0.434   4.611   3.707  0.5665  0.5774  0.3504
  167SAPE  H16R18770   0.476   4.641   3.608  0.4160  0.0402  0.1211
  167SAPE  H16S18771   0.495   4.645   3.793 -2.5247  2.9210  1.8495
  167SAPE  C21718772   0.304   4.687   3.735 -0.2238 -0.2184 -0.3006
  167SAPE  H17R18773   0.338   4.792   3.745  0.8365 -0.6147  0.3858
  167SAPE  H17S18774   0.276   4.656   3.839  1.4580  1.2127  0.6297
  167SAPE  C21818775   0.193   4.673   3.635 -0.0809 -0.0068 -0.1692
  167SAPE  H18R18776   0.168   4.565   3.636  0.7184 -0.1997 -0.0777
  167SAPE  H18S18777   0.234   4.700   3.535  0.5127 -1.9420 -0.4850
  167SAPE  C21918778   0.074   4.764   3.667 -0.1021  0.2434  0.1287
  167SAPE  H19R18779   0.066   4.778   3.777 -1.1283  0.0500  0.0845
  167SAPE  H19S18780  -0.019   4.714   3.634  0.0868  0.3251 -0.5389
  167SAPE  C22018781   0.079   4.914   3.613 -0.1533  0.0183  0.1148
  167SAPE  H20R18782   0.065   4.931   3.505  0.8073 -0.6245 -0.1162
  167SAPE  H20S18783   0.175   4.954   3.652 -1.1474  1.9563  0.7136
  167SAPE  H20T18784  -0.006   4.969   3.659 -0.9760  0.4335 -1.8065
  167SAPE   C3318785   1.035   4.590   2.724  0.1111 -0.2371  0.0087
  167SAPE   H3X18786   1.136   4.626   2.694 -1.0152  1.3960 -2.1561
  167SAPE   H3Y18787   1.025   4.495   2.667  1.8332  0.0079 -0.7515
  167SAPE   C3418788   1.056   4.551   2.872 -0.0074  0.0330  0.0377
  167SAPE   H4X18789   1.069   4.650   2.922  2.1696  0.8980 -2.0920
  167SAPE   H4Y18790   1.143   4.486   2.894  1.7309  1.7501 -1.4341
  167SAPE   C3518791   0.930   4.482   2.925  1.1093  0.3502 -0.4324
  167SAPE   H5X18792   0.894   4.407   2.851  1.9748  0.2329 -0.7488
  167SAPE   H5Y18793   0.842   4.549   2.938  0.9035 -0.3263  2.0692
  167SAPE   C3618794   0.942   4.415   3.064  0.1787 -0.4064  0.5101
  167SAPE   H6X18795   1.020   4.336   3.067  0.1470 -0.4839 -0.4112
  167SAPE   H6Y18796   0.841   4.370   3.078 -0.4178  0.6760 -0.1547
  167SAPE   C3718797   0.985   4.507   3.162 -0.0053 -0.6611  0.1340
  167SAPE   H7X18798   0.913   4.591   3.166 -0.0613 -0.7403  1.1691
  167SAPE   H7Y18799   1.082   4.550   3.130  0.6614 -1.3513  1.1534
  167SAPE   C3818800   1.001   4.442   3.293  0.0874  0.2331 -0.6385
  167SAPE   H8X18801   1.093   4.379   3.292 -0.3727 -0.5945  1.8310
  167SAPE   H8Y18802   0.910   4.385   3.321  0.8305  0.2785  2.1477
  167SAPE   C3918803   1.015   4.551   3.403 -0.3465  0.1075  0.5571
  167SAPE   H9X18804   0.964   4.648   3.383 -1.6972 -1.1752 -2.9737
  167SAPE   H9Y18805   1.124   4.572   3.408  0.3351 -3.1313  2.5875
  167SAPE  C31018806   0.973   4.492   3.535  0.1809 -0.4530 -0.7782
  167SAPE  H10X18807   1.030   4.399   3.560  0.5625  0.2032  0.9246
  167SAPE  H10Y18808   0.872   4.449   3.517  0.5059 -1.4876 -0.2019
  167SAPE  C31118809   0.960   4.597   3.647  0.6503  1.0890  0.1677
  167SAPE  H11X18810   0.872   4.582   3.714  0.1196 -1.0272 -0.9145
  167SAPE  H11Y18811   0.951   4.700   3.607 -1.3448  1.5662  1.6789
  167SAPE  C31218812   1.084   4.590   3.736  0.3723  0.0084 -0.7299
  167SAPE  H12X18813   1.099   4.692   3.777 -1.1261  0.3557 -0.9980
  167SAPE  H12Y18814   1.182   4.560   3.694  1.0527 -1.6734  1.7966
  167SAPE  C31318815   1.063   4.505   3.855 -0.4046 -0.3680 -0.0395
  167SAPE  H13X18816   1.021   4.407   3.825  1.3104 -1.4308  0.8833
  167SAPE  H13Y18817   0.985   4.557   3.915  0.2247 -1.3137  1.6617
  167SAPE  C31418818   1.179   4.506   3.944 -0.0151  0.6332 -0.4464
  167SAPE  H14X18819   1.243   4.597   3.947  2.3777 -0.9286 -1.0721
  167SAPE  H14Y18820   1.245   4.423   3.909 -1.6441 -1.1207  0.4724
  167SAPE  C31518821   1.144   4.471   4.089 -0.2829 -0.5842 -0.0895
  167SAPE  H15X18822   1.088   4.552   4.142  1.3327  0.1146  0.6219
  167SAPE  H15Y18823   1.242   4.455   4.139 -0.3134 -2.0532 -0.4615
  167SAPE  C31618824   1.065   4.338   4.104 -0.2122 -0.0703 -0.4240
  167SAPE  H16X18825   1.108   4.271   4.027 -1.0979  0.8866 -1.7910
  167SAPE  H16Y18826   0.958   4.354   4.084 -0.2598  0.1066 -0.0404
  167SAPE  C31718827   1.070   4.283   4.256  0.0454 -0.5215  0.3285
  167SAPE  H17X18828   0.978   4.221   4.271 -1.4694  1.4063 -0.6186
  167SAPE  H17Y18829   1.048   4.366   4.326 -1.0463  1.7662 -2.4977
  167SAPE  C31818830   1.195   4.206   4.294  0.0479 -0.0562 -0.1082
  167SAPE  H18X18831   1.285   4.271   4.284  0.5212 -0.6589  0.2054
  167SAPE  H18Y18832   1.217   4.132   4.214 -2.6902 -0.3146 -0.7265
  167SAPE  H18Z18833   1.183   4.153   4.391 -0.0692 -2.6508 -1.4612
  168SAPE     N18834   2.041   0.690   1.775  0.8726 -0.6636  0.2200
  168SAPE   HN118835   2.098   0.754   1.833  0.5842 -1.5022  1.4898
  168SAPE   HN218836   1.983   0.744   1.708 -1.2498 -1.1617  1.5390
  168SAPE   HN318837   1.974   0.631   1.829 -0.9536  0.6642 -0.5209
  168SAPE   C1218838   2.130   0.624   1.674  0.2795  0.1285  0.3575
  168SAPE  H12A18839   2.186   0.708   1.628  1.0954 -1.1077 -1.0147
  168SAPE  H12B18840   2.078   0.554   1.605  2.1860 -0.7818 -0.2340
  168SAPE   C1118841   2.233   0.533   1.744  0.6059  0.8972  0.4229
  168SAPE  H11A18842   2.320   0.522   1.677 -1.2208 -0.2934 -1.9035
  168SAPE  H11B18843   2.181   0.434   1.745  2.8635 -0.3518  0.3348
  168SAPE     P18844   2.369   0.490   1.961  0.5634 -0.1493  0.5484
  168SAPE   O1318845   2.472   0.420   1.887  0.0135  0.2213 -0.0441
  168SAPE   O1418846   2.414   0.574   2.075 -0.6117  0.4026 -0.0641
  168SAPE   O1218847   2.276   0.584   1.871 -0.3761  0.5489 -0.0713
  168SAPE   O1118848   2.273   0.379   2.019  0.1957  0.2544  0.0161
  168SAPE    C118849   2.141   0.397   2.056 -0.2360 -0.8382  0.1054
  168SAPE    HA18850   2.110   0.499   2.026  1.7838 -0.0489  0.5866
  168SAPE    HB18851   2.078   0.339   1.984 -0.6684 -0.7125  0.3758
  168SAPE    C218852   2.115   0.359   2.204 -0.1943  0.7888  0.1656
  168SAPE    HS18853   2.018   0.409   2.227 -1.8641 -1.7362 -0.9365
  168SAPE   O2118854   2.224   0.398   2.290 -0.5610 -0.1437  0.2619
  168SAPE   C2118855   2.214   0.536   2.308  0.0390 -0.5639 -0.6647
  168SAPE   O2218856   2.130   0.606   2.255 -0.2661 -0.6028 -0.3025
  168SAPE   C2218857   2.317   0.589   2.406  0.2563  0.1900 -0.2359
  168SAPE   H2R18858   2.416   0.549   2.375 -0.9344 -1.0101 -2.7844
  168SAPE   H2S18859   2.305   0.698   2.387 -1.2243  0.2907  1.1051
  168SAPE    C318860   2.094   0.203   2.214  0.3946 -0.0797  0.1125
  168SAPE    HX18861   2.190   0.151   2.193  0.5322 -0.5943  1.7824
  168SAPE    HY18862   2.020   0.176   2.136  1.5918 -1.8558 -0.4970
  168SAPE   O3118863   2.061   0.165   2.348  0.0844 -0.0445 -0.3380
  168SAPE   C3118864   1.935   0.185   2.383 -0.0891 -0.6503 -0.0948
  168SAPE   O3218865   1.849   0.226   2.304 -0.1032 -0.0547 -0.0434
  168SAPE   C3218866   1.900   0.157   2.533 -0.0342  0.2243 -0.2328
  168SAPE   H2X18867   1.953   0.063   2.561  1.0935  1.2036  1.0535
  168SAPE   H2Y18868   1.791   0.139   2.538 -0.1259  0.5632 -0.9957
  168SAPE   C2318869   2.294   0.538   2.550  0.1829 -0.1515  0.5235
  168SAPE   H3R18870   2.365   0.594   2.614  2.8046 -2.4770 -0.1473
  168SAPE   H3S18871   2.323   0.431   2.560  2.5263  0.1256 -2.0392
  168SAPE   C2418872   2.158   0.554   2.610  0.2074  0.2009 -0.4823
  168SAPE   H4R18873   2.152   0.503   2.709 -1.6771  1.4017  0.0930
  168SAPE   H4S18874   2.088   0.498   2.544  0.4431 -0.1340 -0.4507
  168SAPE   C2518875   2.100   0.692   2.609 -1.0003  0.0943 -0.4187
  168SAPE   H5R18876   2.101   0.734   2.507  2.1781 -3.4272 -2.0994
  168SAPE   C2618877   2.060   0.762   2.716 -0.0984  0.9190  0.2577
  168SAPE   H6R18878   2.042   0.869   2.694 -1.3136  0.2737 -2.1811
  168SAPE   C2718879   2.061   0.710   2.860  0.2920  0.1249  0.5625
  168SAPE   H7R18880   2.155   0.738   2.913 -0.7211  2.4061  1.2651
  168SAPE   H7S18881   2.059   0.599   2.856 -0.9331  0.1460 -2.6777
  168SAPE   C2818882   1.939   0.747   2.929 -0.5946 -0.2359  0.9720
  168SAPE   H8R18883   1.849   0.771   2.870 -0.3280 -2.6885 -0.5508
  168SAPE   C2918884   1.935   0.761   3.059  0.1030 -0.0305 -0.4625
  168SAPE   H9R18885   1.837   0.761   3.110  1.3992  0.4455  2.2159
  168SAPE  C21018886   2.043   0.744   3.161 -0.0465  0.1207 -0.3136
  168SAPE  H10R18887   2.142   0.768   3.116  1.2425 -2.1049  1.1318
  168SAPE  H10S18888   2.057   0.641   3.200  0.3678  0.7772  1.3646
  168SAPE  C21118889   2.010   0.828   3.282  0.3575 -0.6451  0.1122
  168SAPE  H11R18890   1.908   0.817   3.322 -0.0812 -0.7179 -0.9934
  168SAPE  C21218891   2.103   0.886   3.366 -0.7241 -0.6163  0.6590
  168SAPE  H12R18892   2.051   0.940   3.446  1.5679  3.0926 -0.1102
  168SAPE  C21318893   2.255   0.898   3.368  0.1187 -0.4852  0.1663
  168SAPE  H13R18894   2.315   0.819   3.319 -1.0841 -1.2236 -0.1493
  168SAPE  H13S18895   2.274   0.894   3.478 -1.2186  1.3792  0.5094
  168SAPE  C21418896   2.300   1.026   3.315  0.5839 -0.5275  0.5530
  168SAPE  H14R18897   2.232   1.082   3.250 -1.5608 -1.7587  1.6371
  168SAPE  C21518898   2.418   1.083   3.336 -0.8181 -0.6148  0.5589
  168SAPE  H15R18899   2.441   1.180   3.291  0.2937 -0.0325  2.2784
  168SAPE  C21618900   2.533   1.029   3.420  0.6106 -0.0404  0.2284
  168SAPE  H16R18901   2.626   1.016   3.360  0.5617 -1.4239  0.4202
  168SAPE  H16S18902   2.509   0.929   3.461  0.7008  0.3137  1.1521
  168SAPE  C21718903   2.563   1.111   3.547 -0.1352  0.0713 -0.3460
  168SAPE  H17R18904   2.599   1.213   3.522 -1.8578  0.5162 -1.1116
  168SAPE  H17S18905   2.644   1.062   3.606  0.8357  0.0923 -1.6083
  168SAPE  C21818906   2.438   1.140   3.630 -0.0743 -0.5657 -0.8255
  168SAPE  H18R18907   2.376   1.048   3.637  0.6362 -1.2379 -2.7627
  168SAPE  H18S18908   2.378   1.224   3.588  0.5374  0.1167 -0.3554
  168SAPE  C21918909   2.477   1.194   3.774  0.1938  0.6666  1.1171
  168SAPE  H19R18910   2.536   1.287   3.765  2.5227 -0.6838  1.6763
  168SAPE  H19S18911   2.533   1.119   3.833 -0.0913  0.6934  1.4240
  168SAPE  C22018912   2.358   1.240   3.862 -0.3277 -0.5040  0.3528
  168SAPE  H20R18913   2.317   1.331   3.813 -0.9823 -0.2062  1.4155
  168SAPE  H20S18914   2.389   1.278   3.961  1.3701  2.4794 -1.2013
  168SAPE  H20T18915   2.282   1.159   3.872 -0.0309 -0.8004  0.2101
  168SAPE   C3318916   1.947   0.259   2.639  0.5638  0.7790  0.1179
  168SAPE   H3X18917   1.906   0.361   2.621 -0.4648  0.3327 -0.1289
  168SAPE   H3Y18918   2.056   0.280   2.638  0.6562  0.4019  1.2565
  168SAPE   C3418919   1.897   0.208   2.774 -0.2674  0.0396 -0.1556
  168SAPE   H4X18920   1.936   0.104   2.781 -0.1037  0.0775 -0.4683
  168SAPE   H4Y18921   1.786   0.201   2.781 -0.4468  1.8647 -0.6051
  168SAPE   C3518922   1.951   0.293   2.894 -0.2504  0.3233  0.4409
  168SAPE   H5X18923   1.932   0.399   2.869  1.0802  0.2158 -1.1777
  168SAPE   H5Y18924   2.060   0.273   2.891 -0.4579 -1.1488  1.5371
  168SAPE   C3618925   1.888   0.252   3.023  0.3095  0.2289  0.1388
  168SAPE   H6X18926   1.918   0.148   3.047 -1.1785 -0.1551  0.4893
  168SAPE   H6Y18927   1.778   0.240   3.007  0.5104 -1.4464 -0.1623
  168SAPE   C3718928   1.942   0.345   3.135 -0.3873  0.0367 -0.2905
  168SAPE   H7X18929   1.926   0.448   3.094  0.5174  0.4759  0.4259
  168SAPE   H7Y18930   2.050   0.323   3.150 -0.5716 -0.6544  0.0423
  168SAPE   C3818931   1.872   0.337   3.270  0.2062 -0.2407  0.4087
  168SAPE   H8X18932   1.762   0.342   3.262  0.1166 -2.9723 -1.2172
  168SAPE   H8Y18933   1.918   0.420   3.328  2.4501 -0.6720 -0.6421
  168SAPE   C3918934   1.895   0.190   3.324  0.4829 -0.1827 -0.1788
  168SAPE   H9X18935   2.004   0.176   3.334  0.8383  1.4555 -1.3279
  168SAPE   H9Y18936   1.856   0.121   3.246 -1.0232  1.2042 -0.7155
  168SAPE  C31018937   1.824   0.155   3.460 -0.8162  0.4174  0.2744
  168SAPE  H10X18938   1.852   0.050   3.481 -2.5820 -0.0235  0.5896
  168SAPE  H10Y18939   1.714   0.157   3.444 -0.7723 -1.6042 -0.5261
  168SAPE  C31118940   1.861   0.250   3.576 -0.6813 -0.5511  0.0310
  168SAPE  H11X18941   1.797   0.339   3.559  0.5978  0.9068  2.2820
  168SAPE  H11Y18942   1.964   0.289   3.558 -0.5396 -1.8207 -2.2365
  168SAPE  C31218943   1.847   0.197   3.719 -0.3231 -0.4967  1.1960
  168SAPE  H12X18944   1.922   0.244   3.786  0.7224  0.4388 -0.5552
  168SAPE  H12Y18945   1.874   0.090   3.721 -1.4406 -0.8279  0.1515
  168SAPE  C31318946   1.715   0.241   3.771  0.4185  0.0791  0.5317
  168SAPE  H13X18947   1.638   0.180   3.720  0.1688 -0.7333  1.8293
  168SAPE  H13Y18948   1.691   0.344   3.736 -1.6420 -0.9970 -1.4520
  168SAPE  C31418949   1.703   0.246   3.925 -0.1129 -0.5297  0.3927
  168SAPE  H14X18950   1.786   0.302   3.973 -0.4663 -0.2666  0.6977
  168SAPE  H14Y18951   1.722   0.141   3.956  0.7614  0.1136  2.1379
  168SAPE  C31518952   1.565   0.299   3.969 -0.6512  0.2770  0.2774
  168SAPE  H15X18953   1.488   0.219   3.973 -1.5672  1.1619  0.8345
  168SAPE  H15Y18954   1.543   0.370   3.886  0.5382  0.3139 -0.0284
  168SAPE  C31618955   1.573   0.373   4.103  0.2115  0.0575 -0.7450
  168SAPE  H16X18956   1.616   0.474   4.087  0.1641 -0.1790 -2.5258
  168SAPE  H16Y18957   1.640   0.315   4.170 -2.7029 -0.0664  2.2784
  168SAPE  C31718958   1.434   0.380   4.170  0.2494 -0.6288  0.0351
  168SAPE  H17X18959   1.409   0.274   4.190 -0.3307 -0.5097 -0.0511
  168SAPE  H17Y18960   1.363   0.438   4.108 -0.9486 -1.3567  0.6984
  168SAPE  C31818961   1.447   0.462   4.296  0.1311  0.9285 -0.2851
  168SAPE  H18X18962   1.489   0.558   4.258  0.2558  0.1822 -2.1688
  168SAPE  H18Y18963   1.513   0.411   4.370 -2.3595 -1.7838  0.2425
  168SAPE  H18Z18964   1.355   0.482   4.354  0.5028  0.1394  0.5927
  169SAPE     N18965   0.237   4.934   1.950  0.2693 -0.5284  0.2701
  169SAPE   HN118966   0.246   4.989   1.862 -0.4245  0.6588  0.9275
  169SAPE   HN218967   0.330   4.950   1.993  2.1061 -1.5372 -2.9200
  169SAPE   HN318968   0.222   4.835   1.921  0.8210 -0.2622 -0.9985
  169SAPE   C1218969   0.121   4.973   2.035 -0.2141  0.3037  0.3561
  169SAPE  H12A18970   0.042   5.033   1.985 -0.9921 -1.1133 -0.1392
  169SAPE  H12B18971   0.165   5.039   2.113  1.8125 -0.0951 -0.3920
  169SAPE   C1118972   0.044   4.849   2.084  0.0924 -0.6880  0.4109
  169SAPE  H11A18973  -0.029   4.875   2.163  1.3655  1.2463  1.0086
  169SAPE  H11B18974   0.121   4.777   2.119 -0.4089 -2.0883 -1.2172
  169SAPE     P18975  -0.097   4.653   1.976 -0.3622  0.2051  0.0588
  169SAPE   O1318976  -0.234   4.697   1.958  0.0304 -0.5100  0.0281
  169SAPE   O1418977  -0.034   4.552   1.889  0.3807 -0.6127 -0.0232
  169SAPE   O1218978  -0.021   4.785   1.971  0.0693 -0.2269  0.0514
  169SAPE   O1118979  -0.059   4.608   2.126 -0.6141 -0.8284 -0.3674
  169SAPE    C118980  -0.162   4.557   2.211 -0.5216 -0.1427 -0.3835
  169SAPE    HA18981  -0.244   4.507   2.154 -0.8583 -2.2165  1.7435
  169SAPE    HB18982  -0.118   4.473   2.269 -0.1973  0.9126  0.9295
  169SAPE    C218983  -0.234   4.657   2.298 -0.6843  0.7079  0.1988
  169SAPE    HS18984  -0.285   4.728   2.229 -2.5539 -3.3616 -3.0448
  169SAPE   O2118985  -0.130   4.722   2.379 -0.4252 -0.6696  0.6139
  169SAPE   C2118986  -0.148   4.844   2.412 -0.2124 -0.5212 -0.4321
  169SAPE   O2218987  -0.250   4.906   2.400  0.4631 -0.3653 -0.2052
  169SAPE   C2218988  -0.018   4.896   2.463  0.9950 -0.2712  0.7039
  169SAPE   H2R18989   0.065   4.822   2.460  1.6765  0.3988  2.0595
  169SAPE   H2S18990  -0.004   4.984   2.398  1.8534 -1.3831 -0.6825
  169SAPE    C318991  -0.342   4.596   2.386 -0.2020  0.1813 -0.2378
  169SAPE    HX18992  -0.402   4.551   2.304  0.7096 -1.1763 -0.2049
  169SAPE    HY18993  -0.397   4.677   2.438  0.8870  2.0111 -1.8071
  169SAPE   O3118994  -0.298   4.488   2.463 -0.5553 -0.0973  0.1539
  169SAPE   C3118995  -0.254   4.529   2.586  0.2974 -0.2826  0.6330
  169SAPE   O3218996  -0.281   4.627   2.648  0.3990 -0.5563 -0.4151
  169SAPE   C3218997  -0.175   4.405   2.634  0.2521  0.5250  0.5599
  169SAPE   H2X18998  -0.081   4.406   2.575  0.1327  2.2259  0.3484
  169SAPE   H2Y18999  -0.234   4.312   2.623  2.1510 -0.8965  1.8045
  169SAPE   C2319000  -0.023   4.962   2.607 -0.4051  0.1349 -0.8766
  169SAPE   H3R19001  -0.094   5.048   2.609 -1.0014 -0.3590  0.2278
  169SAPE   H3S19002   0.075   5.008   2.633 -0.7603  1.1928 -1.3552
  169SAPE   C2419003  -0.064   4.864   2.723 -0.0954 -1.0517 -0.1364
  169SAPE   H4R19004  -0.165   4.826   2.696 -1.1667  2.1683 -1.0744
  169SAPE   H4S19005  -0.072   4.929   2.813  0.4050  1.7511 -1.9883
  169SAPE   C2519006   0.038   4.751   2.736  0.0612  0.2210  0.3212
  169SAPE   H5R19007   0.031   4.665   2.669 -0.1594  1.2344 -1.0008
  169SAPE   C2619008   0.137   4.749   2.820 -0.0820 -0.2901  0.1083
  169SAPE   H6R19009   0.195   4.656   2.827 -1.0747 -0.8303  1.9026
  169SAPE   C2719010   0.163   4.851   2.924 -0.4690  0.2213  0.1199
  169SAPE   H7R19011   0.076   4.915   2.952 -1.3764  0.0511 -2.1263
  169SAPE   H7S19012   0.240   4.919   2.880  1.9315 -0.6513  2.6744
  169SAPE   C2819013   0.214   4.775   3.045 -1.0204 -0.9177 -0.0365
  169SAPE   H8R19014   0.188   4.669   3.060 -0.0817 -1.0093  1.1076
  169SAPE   C2919015   0.244   4.845   3.155 -1.2166 -0.0028  0.3868
  169SAPE   H9R19016   0.269   4.786   3.244 -0.3448 -0.8550 -0.3959
  169SAPE  C21019017   0.257   4.993   3.170 -0.2388  0.1983 -0.1890
  169SAPE  H10R19018   0.202   5.010   3.265 -0.2384  1.2346 -0.3586
  169SAPE  H10S19019   0.202   5.047   3.090  0.3656  1.8377  0.4571
  169SAPE  C21119020   0.399   5.038   3.174  0.0351  0.1857 -0.6104
  169SAPE  H11R19021   0.440   5.085   3.083 -0.1065  3.4076  0.8349
  169SAPE  C21219022   0.483   5.018   3.273 -0.2604 -0.8875 -0.3313
  169SAPE  H12R19023   0.579   5.072   3.283 -0.7732 -0.1675  0.9719
  169SAPE  C21319024   0.453   4.947   3.407 -0.3812 -0.2013  0.6254
  169SAPE  H13R19025   0.351   4.905   3.417 -0.0834 -0.9631  0.5127
  169SAPE  H13S19026   0.476   5.013   3.493 -2.8135  2.0940 -0.3569
  169SAPE  C21419027   0.539   4.819   3.399 -0.1124 -0.3487  0.2018
  169SAPE  H14R19028   0.484   4.738   3.348 -0.7392 -1.3657  2.3607
  169SAPE  C21519029   0.657   4.798   3.456 -0.0402 -0.3266 -0.2231
  169SAPE  H15R19030   0.721   4.710   3.439  2.0566  1.1563 -0.3794
  169SAPE  C21619031   0.732   4.896   3.545  0.3265  0.1244  0.7554
  169SAPE  H16R19032   0.719   5.001   3.513 -0.6024  0.1337  1.1345
  169SAPE  H16S19033   0.838   4.861   3.539 -0.5512 -2.8051  0.5057
  169SAPE  C21719034   0.700   4.881   3.701 -0.4929 -0.3903 -0.8009
  169SAPE  H17R19035   0.744   4.790   3.747  1.8042  1.9086  1.8500
  169SAPE  H17S19036   0.591   4.870   3.720 -0.4698  1.3567  0.5458
  169SAPE  C21819037   0.750   5.009   3.781  0.5679 -0.2250  0.1746
  169SAPE  H18R19038   0.700   5.100   3.742  0.8258 -0.4617 -0.7432
  169SAPE  H18S19039   0.857   5.022   3.755  0.9921  3.5567  3.0174
  169SAPE  C21919040   0.754   4.996   3.932 -0.0794  0.3075 -0.0228
  169SAPE  H19R19041   0.817   5.079   3.970  3.5333 -1.1402 -2.2772
  169SAPE  H19S19042   0.822   4.910   3.950 -2.4757 -2.0302 -1.5817
  169SAPE  C22019043   0.620   4.977   4.009 -0.1646 -0.7057 -0.2503
  169SAPE  H20R19044   0.644   4.953   4.115  0.7609  1.8211  0.1847
  169SAPE  H20S19045   0.569   4.881   3.985 -2.9961  0.7369 -0.3409
  169SAPE  H20T19046   0.554   5.066   4.005  1.1428  0.2492 -1.7541
  169SAPE   C3319047  -0.133   4.430   2.785 -0.7308  0.2092 -0.3166
  169SAPE   H3X19048  -0.226   4.433   2.846 -1.1366 -0.8115 -0.8572
  169SAPE   H3Y19049  -0.082   4.528   2.793 -0.1712 -0.1468  0.6778
  169SAPE   C3419050  -0.037   4.319   2.834 -0.3756  0.3583 -0.5838
  169SAPE   H4X19051   0.039   4.315   2.753  0.4015  0.8910  0.0912
  169SAPE   H4Y19052  -0.095   4.225   2.844 -1.2130  0.9196  0.0370
  169SAPE   C3519053   0.024   4.344   2.968 -0.1351 -0.1616 -0.0866
  169SAPE   H5X19054  -0.048   4.335   3.053 -0.8673 -0.0557 -0.6815
  169SAPE   H5Y19055   0.059   4.449   2.976  1.3056 -0.5512 -0.9327
  169SAPE   C3619056   0.138   4.255   2.995 -0.0018  0.3094 -0.1748
  169SAPE   H6X19057   0.227   4.307   2.954  0.5044 -0.4316 -0.0276
  169SAPE   H6Y19058   0.137   4.159   2.939 -0.2418 -0.0549  0.4382
  169SAPE   C3719059   0.146   4.212   3.144 -0.7094  0.2880  0.1369
  169SAPE   H7X19060   0.050   4.165   3.172 -0.7305  0.5076  0.4368
  169SAPE   H7Y19061   0.164   4.300   3.209 -0.2411  1.8013 -1.9383
  169SAPE   C3819062   0.261   4.111   3.155 -0.3649 -0.4626 -0.0028
  169SAPE   H8X19063   0.353   4.167   3.126 -1.5128  1.5455 -0.0044
  169SAPE   H8Y19064   0.250   4.023   3.089 -0.8224 -0.7022  0.3980
  169SAPE   C3919065   0.278   4.053   3.302 -0.1531  0.5649 -0.1213
  169SAPE   H9X19066   0.288   4.140   3.371 -1.2663 -0.0423  0.8342
  169SAPE   H9Y19067   0.383   4.015   3.300  0.1687  1.3874 -2.0496
  169SAPE  C31019068   0.172   3.953   3.350  0.2189 -0.0487 -0.1385
  169SAPE  H10X19069   0.082   4.017   3.359 -0.4957 -1.3538  3.0146
  169SAPE  H10Y19070   0.200   3.913   3.450  2.3934 -0.5678 -0.8992
  169SAPE  C31119071   0.151   3.841   3.253  0.2081 -0.0049  0.3366
  169SAPE  H11X19072   0.249   3.797   3.226  0.2845  1.1153 -1.3749
  169SAPE  H11Y19073   0.094   3.870   3.162 -0.4847 -2.4399 -0.0780
  169SAPE  C31219074   0.074   3.723   3.310  0.3525  0.0615  0.2927
  169SAPE  H12X19075  -0.032   3.755   3.319 -0.1738 -0.2739 -3.3129
  169SAPE  H12Y19076   0.107   3.689   3.411 -0.9907  1.7211  1.3614
  169SAPE  C31319077   0.063   3.601   3.213 -0.3302  0.0374 -0.4351
  169SAPE  H13X19078  -0.019   3.622   3.142 -0.3872 -0.9228 -0.6733
  169SAPE  H13Y19079   0.027   3.513   3.272 -1.9638  0.2912 -1.0132
  169SAPE  C31419080   0.195   3.559   3.152 -0.0897  0.0996  0.5475
  169SAPE  H14X19081   0.276   3.535   3.223  0.5879 -1.4750 -0.6977
  169SAPE  H14Y19082   0.240   3.640   3.090  2.2941 -1.2867  0.3566
  169SAPE  C31519083   0.165   3.434   3.059  0.1092  0.0777  0.1019
  169SAPE  H15X19084   0.248   3.413   2.988 -0.8202 -1.1008 -0.6721
  169SAPE  H15Y19085   0.073   3.449   2.999  0.2840 -2.4753 -0.9630
  169SAPE  C31619086   0.157   3.298   3.128  0.0320 -0.9762 -0.8743
  169SAPE  H16X19087   0.061   3.285   3.183 -0.3083  1.6860 -0.6992
  169SAPE  H16Y19088   0.238   3.281   3.201  1.2688  0.5888 -1.8163
  169SAPE  C31719089   0.168   3.178   3.036  0.3193  0.2884 -0.2062
  169SAPE  H17X19090   0.264   3.170   2.981  0.4806  1.9942 -0.2290
  169SAPE  H17Y19091   0.085   3.175   2.963 -0.2441  0.4521  0.4111
  169SAPE  C31819092   0.159   3.051   3.127  0.0363 -0.8568 -0.1554
  169SAPE  H18X19093   0.146   2.956   3.071 -1.3321 -0.7509 -0.0565
  169SAPE  H18Y19094   0.081   3.069   3.204 -0.2864  0.6680 -0.7946
  169SAPE  H18Z19095   0.254   3.045   3.184 -0.5626 -0.8478  0.8563
  170SAPE     N19096   6.011   7.108   1.617  0.2242 -0.1771 -0.6979
  170SAPE   HN119097   6.046   7.174   1.690 -2.5842 -1.1706  1.7551
  170SAPE   HN219098   5.963   7.039   1.678 -0.3304  0.3919 -0.4799
  170SAPE   HN319099   6.103   7.077   1.579 -0.1011 -2.1655  0.0245
  170SAPE   C1219100   5.923   7.170   1.510  0.5427 -0.6495 -0.1364
  170SAPE  H12A19101   5.880   7.080   1.462  0.9312 -0.5047 -0.7616
  170SAPE  H12B19102   6.001   7.207   1.440  0.9969 -0.8882  0.2343
  170SAPE   C1119103   5.821   7.274   1.560 -0.5394 -0.3126  0.0561
  170SAPE  H11A19104   5.735   7.227   1.611 -0.4316 -0.1870  0.3568
  170SAPE  H11B19105   5.779   7.316   1.466 -0.1251 -3.2699 -1.5429
  170SAPE     P19106   5.858   7.411   1.784 -0.3274  0.1916  0.0930
  170SAPE   O1319107   5.940   7.534   1.818 -0.0214 -0.4397  0.2593
  170SAPE   O1419108   5.715   7.412   1.819 -0.2986 -0.3706  0.0932
  170SAPE   O1219109   5.878   7.381   1.631  0.0721 -0.3887 -0.2999
  170SAPE   O1119110   5.924   7.280   1.850  0.1823 -0.2196  0.4085
  170SAPE    C119111   5.921   7.252   1.991  0.2824  0.2695 -0.0906
  170SAPE    HA19112   5.851   7.322   2.042 -0.5240  0.1550 -1.0153
  170SAPE    HB19113   5.880   7.151   2.010 -0.8496  1.1324  2.6206
  170SAPE    C219114   6.058   7.283   2.053 -0.2453 -1.2718  0.2108
  170SAPE    HS19115   6.106   7.369   2.001  0.7053 -1.4846  0.6996
  170SAPE   O2119116   6.140   7.171   2.035  0.1347  0.2726  0.5423
  170SAPE   C2119117   6.209   7.143   1.920  0.4042 -0.4360 -0.3651
  170SAPE   O2219118   6.197   7.200   1.813  0.0106  0.2301 -0.5158
  170SAPE   C2219119   6.300   7.025   1.946  0.3438  0.5755  0.1520
  170SAPE   H2R19120   6.239   6.945   1.993 -0.8823  0.9969 -0.6712
  170SAPE   H2S19121   6.326   6.971   1.852 -2.3222 -1.5452  0.4933
  170SAPE    C319122   6.051   7.319   2.197  0.4683 -0.1903  1.0155
  170SAPE    HX19123   5.999   7.417   2.200 -1.0079 -0.9028 -0.1601
  170SAPE    HY19124   6.153   7.338   2.239  1.2000  1.5873 -1.3726
  170SAPE   O3119125   5.974   7.219   2.271  0.4607 -0.1739 -0.3286
  170SAPE   C3119126   6.004   7.215   2.394 -0.3447  0.3552 -0.6026
  170SAPE   O3219127   6.075   7.295   2.455  0.7006  0.2200 -0.3723
  170SAPE   C3219128   5.930   7.093   2.450  0.2838 -0.7604  0.0709
  170SAPE   H2X19129   5.939   7.012   2.375  1.2118 -1.3594  0.8082
  170SAPE   H2Y19130   5.823   7.115   2.433  0.4228 -0.9620 -1.1216
  170SAPE   C2319131   6.427   7.035   2.036 -0.3653 -0.1081  0.0407
  170SAPE   H3R19132   6.409   7.091   2.130 -0.4410  0.6622 -0.4230
  170SAPE   H3S19133   6.513   7.079   1.981  1.0897 -0.9444  1.5719
  170SAPE   C2419134   6.459   6.897   2.090 -0.0632 -0.4009 -0.6211
  170SAPE   H4R19135   6.465   6.825   2.006 -1.8349 -0.2568 -0.9148
  170SAPE   H4S19136   6.367   6.869   2.147 -1.9486  2.2148 -2.1687
  170SAPE   C2519137   6.594   6.866   2.155  0.1137  0.4540  0.4581
  170SAPE   H5R19138   6.679   6.855   2.086 -0.3283  0.4253 -0.0789
  170SAPE   C2619139   6.614   6.869   2.287  0.0128  0.0917 -0.5723
  170SAPE   H6R19140   6.705   6.827   2.332 -1.4368 -1.9341  0.6307
  170SAPE   C2719141   6.504   6.899   2.388 -0.3049 -0.1090 -0.6879
  170SAPE   H7R19142   6.412   6.951   2.354 -0.7782  0.3618  1.1794
  170SAPE   H7S19143   6.562   6.960   2.461  2.4277 -3.5302  0.2687
  170SAPE   C2819144   6.447   6.778   2.470 -0.2722 -0.0205  1.0112
  170SAPE   H8R19145   6.415   6.699   2.400 -0.4225  0.1068  0.9346
  170SAPE   C2919146   6.429   6.758   2.600 -0.2032 -0.3013  0.3624
  170SAPE   H9R19147   6.384   6.664   2.635 -0.8318 -0.6976 -1.4228
  170SAPE  C21019148   6.466   6.856   2.708  0.1857 -0.1854  0.0201
  170SAPE  H10R19149   6.572   6.878   2.683 -0.0411 -1.2387 -2.1063
  170SAPE  H10S19150   6.467   6.822   2.814 -1.7348  2.1507  0.8588
  170SAPE  C21119151   6.395   6.990   2.713  0.4050 -0.3304 -0.1881
  170SAPE  H11R19152   6.372   7.041   2.618  1.1630  3.9093  1.6741
  170SAPE  C21219153   6.348   7.052   2.820  0.8724 -0.1888  0.2238
  170SAPE  H12R19154   6.303   7.151   2.805 -0.8901 -0.8811  0.6384
  170SAPE  C21319155   6.348   7.001   2.962  0.8285 -0.1368 -0.7948
  170SAPE  H13R19156   6.327   7.095   3.016  1.1414  1.2003 -2.8870
  170SAPE  H13S19157   6.453   6.977   2.991  0.8980  2.0918  1.0561
  170SAPE  C21419158   6.260   6.889   3.014 -0.0499 -0.1301  0.1978
  170SAPE  H14R19159   6.239   6.809   2.940 -2.2562  1.1122 -0.6047
  170SAPE  C21519160   6.210   6.874   3.138  0.7894 -0.9816  0.0943
  170SAPE  H15R19161   6.138   6.791   3.144  1.8647 -1.8822  0.8790
  170SAPE  C21619162   6.223   6.973   3.250 -0.5042  0.9340  0.6350
  170SAPE  H16R19163   6.213   7.075   3.208  0.8815  0.4205 -1.0708
  170SAPE  H16S19164   6.325   6.962   3.294  1.4570  1.7193 -3.2714
  170SAPE  C21719165   6.110   6.964   3.362  0.3538  0.1747  0.6388
  170SAPE  H17R19166   6.100   6.862   3.405 -0.8346  1.3576  3.4125
  170SAPE  H17S19167   6.013   6.985   3.312  1.3248 -0.7305 -1.8072
  170SAPE  C21819168   6.162   7.055   3.474  0.6321  0.5554 -0.0556
  170SAPE  H18R19169   6.202   7.147   3.426 -0.8127  0.4071 -1.6273
  170SAPE  H18S19170   6.243   7.010   3.536 -0.0318 -0.3554  0.1686
  170SAPE  C21919171   6.057   7.105   3.585 -0.4757 -0.5818  0.2981
  170SAPE  H19R19172   6.109   7.180   3.648  0.5141  0.1653 -1.3320
  170SAPE  H19S19173   6.032   7.018   3.650  1.9765 -0.3835  1.6420
  170SAPE  C22019174   5.924   7.171   3.532 -0.1922  0.2090 -0.8785
  170SAPE  H20R19175   5.856   7.091   3.496 -0.1056  0.1309 -0.8687
  170SAPE  H20S19176   5.950   7.241   3.450 -1.0091  0.2457 -1.1145
  170SAPE  H20T19177   5.867   7.228   3.610 -0.1339  0.2247 -0.8475
  170SAPE   C3319178   5.979   7.060   2.592  0.1366 -0.3616 -0.9393
  170SAPE   H3X19179   6.090   7.060   2.601  0.0603  0.5056  0.2005
  170SAPE   H3Y19180   5.941   6.959   2.619 -0.9719  0.3934  0.4390
  170SAPE   C3419181   5.910   7.145   2.712  0.4129 -0.2592  0.4099
  170SAPE   H4X19182   5.799   7.150   2.704  0.5371  0.4041 -1.2257
  170SAPE   H4Y19183   5.948   7.248   2.700 -1.3282  0.2361 -1.4002
  170SAPE   C3519184   5.954   7.084   2.845 -0.5006  0.0520  0.4819
  170SAPE   H5X19185   6.065   7.083   2.833 -0.6124  0.1135 -0.7009
  170SAPE   H5Y19186   5.917   6.980   2.851 -0.1297 -0.2056 -1.2950
  170SAPE   C3619187   5.903   7.163   2.966 -0.2116  0.4958 -0.1601
  170SAPE   H6X19188   5.943   7.111   3.056  1.2149 -0.1698 -1.1518
  170SAPE   H6Y19189   5.795   7.185   2.971 -0.0483  1.3861 -0.3307
  170SAPE   C3719190   5.965   7.306   2.980  0.1164 -0.3062 -0.3630
  170SAPE   H7X19191   5.923   7.374   2.903  1.4346 -0.6264 -1.3918
  170SAPE   H7Y19192   6.074   7.289   2.967 -0.2527 -1.5375 -2.1368
  170SAPE   C3819193   5.936   7.365   3.118  0.9340 -0.4552  0.0726
  170SAPE   H8X19194   6.006   7.446   3.147 -0.1389 -0.6438  3.6011
  170SAPE   H8Y19195   5.949   7.284   3.193  2.2373  0.5936  1.0265
  170SAPE   C3919196   5.791   7.414   3.134 -0.1703  1.0195 -0.5595
  170SAPE   H9X19197   5.741   7.320   3.164 -1.9153  2.6659  2.0945
  170SAPE   H9Y19198   5.753   7.459   3.040 -1.2490 -0.6465 -0.9633
  170SAPE  C31019199   5.772   7.511   3.248  0.6327  0.2052  0.1974
  170SAPE  H10X19200   5.787   7.616   3.214  2.0052  0.2354  0.8306
  170SAPE  H10Y19201   5.847   7.493   3.327  0.5885 -2.5456 -0.3044
  170SAPE  C31119202   5.647   7.488   3.321  0.3301  0.1869  0.2594
  170SAPE  H11X19203   5.656   7.553   3.410  0.1446 -0.2587  0.6058
  170SAPE  H11Y19204   5.624   7.380   3.335 -0.3030  0.1659 -0.7920
  170SAPE  C31219205   5.532   7.539   3.240 -0.5547 -0.3727  0.0585
  170SAPE  H12X19206   5.519   7.481   3.147 -1.6620 -2.0065  1.1860
  170SAPE  H12Y19207   5.556   7.643   3.209  1.3125 -0.9038 -0.4508
  170SAPE  C31319208   5.395   7.541   3.319  0.0750 -0.0444  0.3584
  170SAPE  H13X19209   5.366   7.434   3.316 -1.8142  0.4649 -1.0849
  170SAPE  H13Y19210   5.321   7.584   3.248  1.6103  0.9681 -0.7049
  170SAPE  C31419211   5.397   7.618   3.444  0.3233 -0.1058 -0.6559
  170SAPE  H14X19212   5.454   7.713   3.430 -1.5196  1.0715 -0.5610
  170SAPE  H14Y19213   5.433   7.546   3.521 -1.3290 -2.5084 -2.0384
  170SAPE  C31519214   5.257   7.663   3.490  0.0129 -0.2906 -0.2174
  170SAPE  H15X19215   5.189   7.642   3.405  1.3667 -0.6021 -1.2753
  170SAPE  H15Y19216   5.262   7.771   3.514  0.2392 -0.1394 -0.9125
  170SAPE  C31619217   5.212   7.575   3.610  0.5111 -0.0042 -0.0989
  170SAPE  H16X19218   5.261   7.617   3.701  0.5537 -1.0833  0.3991
  170SAPE  H16Y19219   5.248   7.470   3.603 -1.7645 -1.2863  3.9321
  170SAPE  C31719220   5.062   7.591   3.638 -0.5883  0.0981 -0.5456
  170SAPE  H17X19221   5.056   7.697   3.671  0.5075 -0.2392  0.8515
  170SAPE  H17Y19222   5.033   7.538   3.732  1.6987  2.6900  1.7952
  170SAPE  C31819223   4.960   7.552   3.533 -0.5469 -0.3381  0.1774
  170SAPE  H18X19224   4.860   7.586   3.568  0.0321  1.8908 -0.1643
  170SAPE  H18Y19225   4.958   7.443   3.513 -0.4173 -0.1541 -0.8545
  170SAPE  H18Z19226   4.990   7.591   3.434  0.4194 -1.0300  0.1847
  171SAPE     N19227   0.858   5.100   1.848 -0.2129  0.4791 -0.3058
  171SAPE   HN119228   0.763   5.136   1.869  0.2725  1.0769  1.0003
  171SAPE   HN219229   0.926   5.174   1.820  1.7961 -0.7312  1.0599
  171SAPE   HN319230   0.855   5.038   1.765  0.1495  0.6191 -0.4273
  171SAPE   C1219231   0.915   5.029   1.972  0.2241  0.1105  0.2333
  171SAPE  H12A19232   1.024   5.052   1.976  0.3488 -0.0416 -1.4732
  171SAPE  H12B19233   0.898   4.920   1.967  0.6685 -0.1792  3.2927
  171SAPE   C1119234   0.845   5.076   2.104 -1.0878 -0.2948  0.1636
  171SAPE  H11A19235   0.838   5.186   2.118 -2.1500 -0.4832  1.2862
  171SAPE  H11B19236   0.908   5.030   2.182  0.7781 -0.3473 -1.3015
  171SAPE     P19237   0.578   5.083   2.060  0.1015  0.3320 -0.0482
  171SAPE   O1319238   0.589   5.109   1.916 -0.1144 -0.1705 -0.1742
  171SAPE   O1419239   0.455   5.014   2.100  0.4252 -0.1784  0.5423
  171SAPE   O1219240   0.715   5.019   2.110 -0.3037 -0.6964 -0.4774
  171SAPE   O1119241   0.588   5.221   2.130  0.4014 -0.2713 -0.0660
  171SAPE    C119242   0.562   5.224   2.272  0.0794  0.7070  0.0499
  171SAPE    HA19243   0.454   5.246   2.287  0.3080  2.5496 -0.7429
  171SAPE    HB19244   0.579   5.126   2.321 -0.6525  0.4139 -0.2805
  171SAPE    C219245   0.641   5.336   2.335 -0.3105 -0.7628  0.1204
  171SAPE    HS19246   0.644   5.414   2.257 -2.5310  0.0725  0.7841
  171SAPE   O2119247   0.765   5.286   2.370 -0.2482 -0.0772 -0.1142
  171SAPE   C2119248   0.843   5.378   2.413 -0.7237  0.3416  0.1831
  171SAPE   O2219249   0.818   5.497   2.424 -0.1206 -0.0517  0.2145
  171SAPE   C2219250   0.979   5.324   2.438  0.3073 -0.3918  0.4409
  171SAPE   H2R19251   0.996   5.246   2.361  3.3020  1.0523 -0.5295
  171SAPE   H2S19252   1.062   5.394   2.414 -1.3093  1.7850  0.9250
  171SAPE    C319253   0.556   5.391   2.458  0.3782 -0.3103 -0.5498
  171SAPE    HX19254   0.483   5.467   2.422 -0.0582  0.2429  1.3711
  171SAPE    HY19255   0.613   5.452   2.530  0.4220 -1.4734  0.4432
  171SAPE   O3119256   0.482   5.283   2.525 -0.0146 -0.1028 -0.7698
  171SAPE   C3119257   0.468   5.300   2.650  0.3743 -0.2871 -0.2664
  171SAPE   O3219258   0.502   5.398   2.715 -0.4898 -0.2243  0.2992
  171SAPE   C3219259   0.405   5.173   2.713 -0.6042  0.4899 -0.3162
  171SAPE   H2X19260   0.302   5.163   2.674 -0.7727 -3.5986  0.7095
  171SAPE   H2Y19261   0.405   5.181   2.824  1.0462 -0.0208 -0.2453
  171SAPE   C2319262   0.984   5.265   2.586  0.1836  0.1015 -0.2666
  171SAPE   H3R19263   1.083   5.216   2.601  0.8304  1.5657  0.4384
  171SAPE   H3S19264   0.895   5.201   2.606 -2.4531  2.7191 -2.6980
  171SAPE   C2419265   0.975   5.391   2.679  0.2009 -0.1950  0.0879
  171SAPE   H4R19266   0.938   5.358   2.779  1.4453  1.2166  1.0701
  171SAPE   H4S19267   0.897   5.461   2.645 -0.7205 -0.2106  2.0087
  171SAPE   C2519268   1.109   5.458   2.685 -0.0961 -0.1377 -0.1048
  171SAPE   H5R19269   1.121   5.537   2.610  2.5460 -1.1819 -0.8791
  171SAPE   C2619270   1.212   5.420   2.761 -0.3098  0.4321  1.2433
  171SAPE   H6R19271   1.302   5.482   2.748  0.5455 -1.0339 -0.1557
  171SAPE   C2719272   1.225   5.304   2.862  0.4215  0.0756  0.5359
  171SAPE   H7R19273   1.251   5.208   2.811 -1.2196  0.1790 -0.5808
  171SAPE   H7S19274   1.126   5.278   2.905  0.4581  0.9294  1.1616
  171SAPE   C2819275   1.325   5.324   2.975 -0.5984  1.0037  0.3494
  171SAPE   H8R19276   1.419   5.269   2.963 -1.8959 -1.5459  1.2050
  171SAPE   C2919277   1.309   5.408   3.088  0.0580  0.7174  0.4688
  171SAPE   H9R19278   1.395   5.414   3.157 -0.4108 -0.6384  1.1956
  171SAPE  C21019279   1.188   5.492   3.109  0.3461  1.0500 -0.2405
  171SAPE  H10R19280   1.098   5.446   3.063  1.3982 -2.1946  0.6657
  171SAPE  H10S19281   1.209   5.593   3.067  0.2442  1.0505 -0.2921
  171SAPE  C21119282   1.154   5.506   3.257 -0.1079 -0.8152  0.2389
  171SAPE  H11R19283   1.149   5.416   3.319 -0.2583  0.5068  2.2603
  171SAPE  C21219284   1.134   5.618   3.330  0.6109  0.2505  0.2232
  171SAPE  H12R19285   1.100   5.603   3.434  0.5029  3.0252  0.6596
  171SAPE  C21319286   1.131   5.762   3.274  0.2369 -0.0917 -0.3827
  171SAPE  H13R19287   1.124   5.751   3.163  1.8481 -0.4610 -0.4635
  171SAPE  H13S19288   1.229   5.809   3.294  1.4273 -1.4704 -2.5785
  171SAPE  C21419289   1.020   5.847   3.337 -0.1209  0.7707  0.8976
  171SAPE  H14R19290   0.927   5.842   3.280  1.0031 -2.0045 -0.9164
  171SAPE  C21519291   1.014   5.908   3.458  0.7566  0.0649 -0.1338
  171SAPE  H15R19292   0.923   5.966   3.476  0.3137 -1.1648  1.8278
  171SAPE  C21619293   1.116   5.904   3.570 -0.3678  1.0864  0.1887
  171SAPE  H16R19294   1.207   5.845   3.547  1.6074  3.3294  1.7398
  171SAPE  H16S19295   1.068   5.859   3.660  0.1476 -1.4894 -0.7288
  171SAPE  C21719296   1.166   6.038   3.621  0.5168  0.2116  0.4231
  171SAPE  H17R19297   1.088   6.092   3.678  0.4791  1.8746 -1.1053
  171SAPE  H17S19298   1.185   6.106   3.535 -0.0559 -0.5215 -0.2909
  171SAPE  C21819299   1.299   6.024   3.703  0.1410 -0.6843 -0.5852
  171SAPE  H18R19300   1.338   6.124   3.732 -0.2187 -0.6796 -0.1039
  171SAPE  H18S19301   1.381   5.980   3.642  0.3244 -0.6376 -0.3748
  171SAPE  C21919302   1.271   5.953   3.833 -1.0046 -0.1775 -0.8130
  171SAPE  H19R19303   1.369   5.919   3.872 -0.1293 -0.1911 -2.8999
  171SAPE  H19S19304   1.204   5.865   3.822  0.0554 -1.0596 -0.3524
  171SAPE  C22019305   1.195   6.032   3.940 -0.3113 -0.6672  0.2222
  171SAPE  H20R19306   1.255   6.112   3.991  0.2241 -1.0908  0.2679
  171SAPE  H20S19307   1.169   5.963   4.023  2.0398  0.9531  2.5360
  171SAPE  H20T19308   1.110   6.084   3.891  1.5798  2.2399 -0.2436
  171SAPE   C3319309   0.485   5.044   2.672 -0.5833 -0.5059  0.0761
  171SAPE   H3X19310   0.472   5.024   2.563  0.9679  1.4323 -0.5101
  171SAPE   H3Y19311   0.428   4.959   2.715  0.8794 -1.9569 -0.7234
  171SAPE   C3419312   0.633   5.045   2.705 -1.2300  0.1343  0.1330
  171SAPE   H4X19313   0.677   5.116   2.631 -1.8343 -0.0483 -0.4147
  171SAPE   H4Y19314   0.665   4.940   2.688  3.1009  1.4043 -0.7225
  171SAPE   C3519315   0.669   5.093   2.847  0.2514 -0.0036 -0.3143
  171SAPE   H5X19316   0.600   5.044   2.919  0.0907 -2.0469 -1.7810
  171SAPE   H5Y19317   0.684   5.203   2.847 -0.4674  0.1083 -1.0335
  171SAPE   C3619318   0.812   5.049   2.889 -0.8197 -0.4551  0.0234
  171SAPE   H6X19319   0.885   5.055   2.806  1.3894  4.1559  1.9395
  171SAPE   H6Y19320   0.818   4.942   2.918 -0.0069 -1.1633 -2.4685
  171SAPE   C3719321   0.852   5.137   3.012 -0.9251  0.6663 -0.7552
  171SAPE   H7X19322   0.771   5.141   3.087  3.0071  1.7317  4.0049
  171SAPE   H7Y19323   0.870   5.237   2.967 -2.9481  0.6556 -1.6852
  171SAPE   C3819324   0.979   5.084   3.084 -0.0581 -0.2518  0.2027
  171SAPE   H8X19325   1.065   5.094   3.014 -1.4510  1.0776 -1.4169
  171SAPE   H8Y19326   0.972   4.975   3.100  1.4405 -0.3370  0.3630
  171SAPE   C3919327   1.020   5.164   3.203 -0.1456 -0.7533 -0.1948
  171SAPE   H9X19328   1.034   5.273   3.190  0.9688 -0.6855  1.2011
  171SAPE   H9Y19329   1.125   5.137   3.228 -0.0405  0.9093  1.3950
  171SAPE  C31019330   0.926   5.148   3.322 -0.2615 -0.1674  0.0192
  171SAPE  H10X19331   0.856   5.062   3.318 -0.9018  0.3874 -3.4842
  171SAPE  H10Y19332   0.858   5.235   3.327 -0.2596 -0.1673  0.0456
  171SAPE  C31119333   1.003   5.143   3.454  0.3128  0.4251 -0.1084
  171SAPE  H11X19334   1.097   5.198   3.432  1.4137 -1.2376  0.2693
  171SAPE  H11Y19335   1.027   5.037   3.477  0.7889  0.2482 -1.3712
  171SAPE  C31219336   0.939   5.214   3.573 -0.4823  0.4075 -0.5136
  171SAPE  H12X19337   0.976   5.181   3.673  0.7964  1.2406 -0.6840
  171SAPE  H12Y19338   0.830   5.192   3.579 -0.4013  0.1677  3.8076
  171SAPE  C31319339   0.961   5.367   3.569  0.1480  0.0668  0.0599
  171SAPE  H13X19340   0.938   5.407   3.468 -1.8461  1.5880  1.0547
  171SAPE  H13Y19341   1.067   5.387   3.597 -0.0208 -0.4505  1.1352
  171SAPE  C31419342   0.877   5.439   3.679 -0.4024  0.0031  0.8719
  171SAPE  H14X19343   0.910   5.406   3.780  0.4829 -1.2579  0.1894
  171SAPE  H14Y19344   0.774   5.398   3.671  0.1988 -1.2828 -0.6946
  171SAPE  C31519345   0.871   5.594   3.676 -0.1646 -0.0991 -0.2156
  171SAPE  H15X19346   0.834   5.638   3.581 -1.4092  0.7890  0.6426
  171SAPE  H15Y19347   0.977   5.624   3.661 -0.3922  0.3782 -0.8822
  171SAPE  C31619348   0.801   5.654   3.802  0.1123  1.0259 -0.3436
  171SAPE  H16X19349   0.801   5.584   3.888 -0.1418  0.3892 -0.8520
  171SAPE  H16Y19350   0.694   5.676   3.787 -0.6135 -1.9388 -0.1853
  171SAPE  C31719351   0.873   5.781   3.854 -0.0684  0.3913 -0.5807
  171SAPE  H17X19352   0.857   5.869   3.789 -2.4941  0.4482 -0.0111
  171SAPE  H17Y19353   0.982   5.760   3.858  0.1796  0.5807 -3.9121
  171SAPE  C31819354   0.827   5.811   3.999  0.0399  0.0706 -0.3394
  171SAPE  H18X19355   0.892   5.892   4.041 -0.7706  0.0429  1.0455
  171SAPE  H18Y19356   0.825   5.718   4.060 -3.8746  0.2407  0.0505
  171SAPE  H18Z19357   0.721   5.845   3.999 -0.2099 -0.6434  0.8037
  172SAPE     N19358   7.147   6.035   2.176  0.2385  0.1796  0.2595
  172SAPE   HN119359   7.196   5.946   2.151 -0.8141 -1.0291  2.2655
  172SAPE   HN219360   7.151   6.038   2.280  0.6512  3.3871  0.2467
  172SAPE   HN319361   7.050   6.023   2.139  0.7823  0.6767 -1.4435
  172SAPE   C1219362   7.220   6.155   2.125 -0.1611 -0.5235 -0.3241
  172SAPE  H12A19363   7.296   6.173   2.204 -1.0010 -2.0541  0.8810
  172SAPE  H12B19364   7.151   6.241   2.110 -0.6343 -1.1680 -2.0894
  172SAPE   C1119365   7.295   6.134   1.991  0.0206 -0.4055 -0.2656
  172SAPE  H11A19366   7.353   6.039   1.997 -0.3551 -0.7077 -1.3233
  172SAPE  H11B19367   7.378   6.206   1.972 -0.4992  0.0439 -0.8964
  172SAPE     P19368   7.254   6.203   1.744  0.0649  0.2296  0.1462
  172SAPE   O1319369   7.371   6.129   1.696  0.0569  0.2732 -0.1260
  172SAPE   O1419370   7.127   6.210   1.662 -0.6833  0.1163  0.5584
  172SAPE   O1219371   7.211   6.130   1.878 -0.1169 -0.0696 -0.5189
  172SAPE   O1119372   7.298   6.349   1.771 -0.0908  0.8057 -0.0028
  172SAPE    C119373   7.211   6.445   1.839  0.1982  0.0708 -0.1301
  172SAPE    HA19374   7.148   6.492   1.761  0.1727 -1.7987 -1.2873
  172SAPE    HB19375   7.147   6.400   1.918  0.9022 -0.8250 -0.0534
  172SAPE    C219376   7.294   6.556   1.896  0.2119 -0.7813  0.8391
  172SAPE    HS19377   7.362   6.598   1.820 -0.9503  0.5200  0.4822
  172SAPE   O2119378   7.367   6.519   2.015  0.4407 -0.0980  0.6393
  172SAPE   C2119379   7.473   6.448   1.999  0.1025  0.3990 -0.1597
  172SAPE   O2219380   7.534   6.416   1.895  0.2785  0.0430  0.7424
  172SAPE   C2219381   7.519   6.420   2.141  0.6948  0.0410 -0.1588
  172SAPE   H2R19382   7.550   6.521   2.177  0.0468 -0.4431  1.8623
  172SAPE   H2S19383   7.429   6.380   2.191  1.8330 -3.3805 -0.6061
  172SAPE    C319384   7.195   6.678   1.921 -0.0700 -0.2514 -0.4393
  172SAPE    HX19385   7.142   6.693   1.824 -0.2838  0.7440 -0.1781
  172SAPE    HY19386   7.260   6.763   1.948  0.7808 -1.0846  0.1978
  172SAPE   O3119387   7.105   6.651   2.030  0.5693 -0.0666  0.1115
  172SAPE   C3119388   6.998   6.730   2.033 -0.5827  0.2610  0.0851
  172SAPE   O3219389   6.957   6.799   1.942 -0.4407  0.1471  0.0718
  172SAPE   C3219390   6.944   6.732   2.171  0.3845  0.0015 -0.2386
  172SAPE   H2X19391   6.834   6.745   2.156  0.0697 -1.7603  0.2976
  172SAPE   H2Y19392   6.991   6.824   2.210  1.1676  0.3161 -1.8482
  172SAPE   C2319393   7.632   6.323   2.146 -0.0258  0.1889  0.2252
  172SAPE   H3R19394   7.714   6.374   2.091  0.7217 -0.2432  0.9322
  172SAPE   H3S19395   7.607   6.226   2.099 -2.1748  0.8606 -0.1732
  172SAPE   C2419396   7.686   6.305   2.290  0.5384  0.3269  0.5644
  172SAPE   H4R19397   7.682   6.406   2.336  0.6620 -1.0644  3.9272
  172SAPE   H4S19398   7.796   6.287   2.293  0.5574  0.4170  0.3727
  172SAPE   C2519399   7.599   6.211   2.360 -0.0408 -0.4394  0.0260
  172SAPE   H5R19400   7.581   6.114   2.311 -1.7887 -0.5732  0.8670
  172SAPE   C2619401   7.518   6.233   2.469  0.8122 -0.1978  0.1405
  172SAPE   H6R19402   7.445   6.156   2.497  1.9767 -1.3053  0.2034
  172SAPE   C2719403   7.501   6.365   2.544 -0.0939 -0.4260  0.2013
  172SAPE   H7R19404   7.590   6.430   2.530 -0.4047  0.7770  3.0698
  172SAPE   H7S19405   7.480   6.345   2.651  1.1959 -2.4790  0.1288
  172SAPE   C2819406   7.389   6.432   2.469 -0.2164  0.2902 -0.2375
  172SAPE   H8R19407   7.410   6.494   2.381  0.3758 -0.7853 -0.8799
  172SAPE   C2919408   7.262   6.438   2.512  0.6079 -0.1046  0.7416
  172SAPE   H9R19409   7.198   6.501   2.450  3.4758 -0.9227 -3.5277
  172SAPE  C21019410   7.207   6.390   2.647  0.1541 -0.4274 -0.3683
  172SAPE  H10R19411   7.181   6.482   2.703 -0.4162 -0.9376  0.2270
  172SAPE  H10S19412   7.285   6.341   2.709 -1.3846 -0.1943  1.9053
  172SAPE  C21119413   7.077   6.307   2.633  0.0326  1.3079  0.1171
  172SAPE  H11R19414   7.029   6.299   2.534 -0.0950  0.8556  0.2092
  172SAPE  C21219415   7.009   6.256   2.735  0.9426  0.1085  0.3474
  172SAPE  H12R19416   6.920   6.194   2.714  0.2972  0.1625  2.7103
  172SAPE  C21319417   7.036   6.287   2.878  0.5417  0.8635 -0.4592
  172SAPE  H13R19418   7.075   6.391   2.880  0.6355  0.8923 -2.0228
  172SAPE  H13S19419   7.113   6.219   2.918 -0.2798  0.0708 -0.1970
  172SAPE  C21419420   6.930   6.279   2.980  0.3957  0.0883  0.0174
  172SAPE  H14R19421   6.831   6.312   2.946  0.4582  1.2374  0.8696
  172SAPE  C21519422   6.938   6.244   3.112 -0.0269  0.0261 -0.7699
  172SAPE  H15R19423   6.845   6.246   3.171 -0.6457 -1.2488 -1.6585
  172SAPE  C21619424   7.068   6.209   3.191 -0.4481  0.2064 -0.7281
  172SAPE  H16R19425   7.151   6.214   3.118  0.4644 -1.6073  0.1097
  172SAPE  H16S19426   7.051   6.112   3.242 -3.0867  0.8301 -0.2956
  172SAPE  C21719427   7.087   6.320   3.292 -0.4520 -0.2346  0.4116
  172SAPE  H17R19428   7.194   6.301   3.314  0.0769  0.7262 -1.1728
  172SAPE  H17S19429   7.021   6.317   3.381 -0.7848 -0.7402  0.1581
  172SAPE  C21819430   7.084   6.461   3.223 -0.7384 -0.4682  0.0112
  172SAPE  H18R19431   6.980   6.499   3.223 -0.3813  0.5447 -0.7035
  172SAPE  H18S19432   7.120   6.448   3.119  0.4361 -1.4169  0.5120
  172SAPE  C21919433   7.157   6.573   3.294 -0.4715 -0.5851 -0.2403
  172SAPE  H19R19434   7.156   6.657   3.220  1.3292  1.0104  1.4456
  172SAPE  H19S19435   7.264   6.544   3.299 -0.5587 -0.9870 -0.6068
  172SAPE  C22019436   7.105   6.617   3.431  0.6428 -0.4634 -0.4794
  172SAPE  H20R19437   7.109   6.529   3.498  0.2578  0.7152  1.1619
  172SAPE  H20S19438   6.996   6.634   3.418  0.4621 -1.9224 -1.1101
  172SAPE  H20T19439   7.162   6.705   3.467  0.3635  0.5605 -2.3649
  172SAPE   C3319440   6.973   6.599   2.250  0.1374 -0.4244  0.3050
  172SAPE   H3X19441   7.083   6.595   2.267  0.0468  0.9962  1.3647
  172SAPE   H3Y19442   6.948   6.512   2.186  0.5102  0.6956 -1.4015
  172SAPE   C3419443   6.915   6.583   2.388 -0.2836 -0.1403 -0.0121
  172SAPE   H4X19444   6.944   6.480   2.417  0.0401  0.0269  0.2697
  172SAPE   H4Y19445   6.806   6.602   2.383  0.2629  3.7709 -0.6192
  172SAPE   C3519446   6.972   6.697   2.482 -0.4475 -0.1368 -0.3257
  172SAPE   H5X19447   6.923   6.794   2.457 -0.0344  0.4232  0.9703
  172SAPE   H5Y19448   7.081   6.705   2.460 -0.6254  0.7533 -0.9768
  172SAPE   C3619449   6.949   6.673   2.626 -0.2433  0.0751 -0.4224
  172SAPE   H6X19450   6.989   6.766   2.672 -0.7407 -1.0787  2.5168
  172SAPE   H6Y19451   7.016   6.592   2.662 -0.6353  0.5558  1.4910
  172SAPE   C3719452   6.804   6.638   2.666 -0.4356 -0.0349  0.3579
  172SAPE   H7X19453   6.791   6.547   2.604  2.8711  0.6524 -1.6019
  172SAPE   H7Y19454   6.734   6.721   2.641  0.6413  0.4904 -1.0692
  172SAPE   C3819455   6.789   6.608   2.814  0.0512 -0.2648  0.2966
  172SAPE   H8X19456   6.861   6.532   2.851 -1.0960 -0.5281  2.1128
  172SAPE   H8Y19457   6.691   6.563   2.840 -0.4587 -0.5217 -1.9001
  172SAPE   C3919458   6.800   6.742   2.901 -0.3998  0.0078 -1.0846
  172SAPE   H9X19459   6.706   6.801   2.891 -1.8252 -2.1539 -1.3686
  172SAPE   H9Y19460   6.887   6.793   2.856  0.2382  0.0085  0.1159
  172SAPE  C31019461   6.829   6.728   3.050 -0.4935 -0.3455  0.1402
  172SAPE  H10X19462   6.830   6.832   3.090 -0.6218  0.2776 -1.4303
  172SAPE  H10Y19463   6.931   6.693   3.075  0.1908  0.8466 -0.8784
  172SAPE  C31119464   6.720   6.651   3.116 -0.0777  0.4512 -0.3668
  172SAPE  H11X19465   6.725   6.545   3.081  0.5525 -0.1460  1.4031
  172SAPE  H11Y19466   6.627   6.695   3.075 -0.2599 -0.7278 -1.2692
  172SAPE  C31219467   6.709   6.674   3.268  0.0680  0.6373  0.2418
  172SAPE  H12X19468   6.752   6.770   3.304 -0.7835  0.8426  0.7377
  172SAPE  H12Y19469   6.751   6.593   3.331 -0.7532  0.5549  0.6953
  172SAPE  C31319470   6.564   6.652   3.302  0.8908 -0.3888  0.0223
  172SAPE  H13X19471   6.527   6.561   3.250  1.2095 -0.6568  0.2575
  172SAPE  H13Y19472   6.497   6.726   3.252  1.0079 -0.9933 -1.0565
  172SAPE  C31419473   6.539   6.656   3.456  0.2728  0.4606  0.3155
  172SAPE  H14X19474   6.584   6.748   3.498 -1.8417  0.9038  1.7878
  172SAPE  H14Y19475   6.598   6.574   3.503 -0.4421 -0.2342  0.0350
  172SAPE  C31519476   6.392   6.637   3.508 -0.1862 -0.3242  0.1066
  172SAPE  H15X19477   6.363   6.533   3.483  2.7825 -0.9015 -1.4506
  172SAPE  H15Y19478   6.334   6.718   3.459 -1.5041  1.2960  3.9497
  172SAPE  C31619479   6.377   6.643   3.663  0.0562  0.3138  0.3992
  172SAPE  H16X19480   6.414   6.740   3.703 -1.3329  1.6353 -1.3727
  172SAPE  H16Y19481   6.442   6.564   3.706 -0.1539  0.5140  1.1017
  172SAPE  C31719482   6.230   6.626   3.705 -0.2941 -0.7088 -0.2887
  172SAPE  H17X19483   6.222   6.599   3.812 -2.1950  3.7094  0.8934
  172SAPE  H17Y19484   6.196   6.543   3.638  0.5759 -0.6184 -0.8586
  172SAPE  C31819485   6.137   6.750   3.701  0.4653  0.3083  0.0977
  172SAPE  H18X19486   6.118   6.780   3.596  0.6550 -0.1640 -0.0722
  172SAPE  H18Y19487   6.182   6.832   3.761  0.5063 -0.0943  0.6205
  172SAPE  H18Z19488   6.039   6.724   3.748 -0.2749 -0.5863 -1.8077
  173SLPC     N19489   5.314   2.696   5.908 -0.2067  0.1635 -0.3233
  173SLPC   C1319490   5.388   2.564   5.920  0.0029 -0.2922 -0.1795
  173SLPC  H13A19491   5.413   2.525   5.822  0.2327 -2.1804  0.5912
  173SLPC  H13B19492   5.486   2.575   5.963  1.3919 -1.1581 -2.8922
  173SLPC  H13C19493   5.335   2.490   5.979 -2.5180 -0.7098 -2.7462
  173SLPC   C1419494   5.281   2.756   6.042  0.0935  0.7428 -0.0342
  173SLPC  H14A19495   5.203   2.829   6.025 -1.2800 -0.6559  0.0184
  173SLPC  H14B19496   5.231   2.685   6.106  0.3515  1.6480  1.1891
  173SLPC  H14C19497   5.367   2.792   6.095  1.1246 -1.9214  0.2362
  173SLPC   C1519498   5.186   2.661   5.849  0.1791 -0.2213 -0.2566
  173SLPC  H15A19499   5.138   2.741   5.794  1.7520 -0.2320 -1.7222
  173SLPC  H15B19500   5.197   2.581   5.777  0.2029  0.0327 -0.5376
  173SLPC  H15C19501   5.115   2.632   5.925  0.1415  1.3855  0.3728
  173SLPC   C1219502   5.382   2.799   5.814 -0.0242 -0.0340 -0.0728
  173SLPC  H12A19503   5.468   2.838   5.865 -0.2435  0.3484  0.0138
  173SLPC  H12B19504   5.317   2.882   5.787  1.4898  1.4827  0.7759
  173SLPC   C1119505   5.423   2.746   5.682 -0.2197  0.0150 -0.2159
  173SLPC  H11A19506   5.422   2.837   5.617 -1.5381 -0.6421 -1.1479
  173SLPC  H11B19507   5.349   2.675   5.640 -2.1228  2.0544 -0.5291
  173SLPC     P19508   5.674   2.780   5.665  0.2856 -0.1113  0.2428
  173SLPC   O1319509   5.661   2.909   5.730  0.6577 -0.3692  0.0821
  173SLPC   O1419510   5.788   2.696   5.703  0.2517  0.6108 -0.0096
  173SLPC   O1219511   5.548   2.687   5.699  0.3761 -0.2421  0.3195
  173SLPC   O1119512   5.670   2.801   5.507 -0.2452  0.5123  0.2330
  173SLPC    C119513   5.636   2.684   5.432 -0.0814  0.0608  0.5454
  173SLPC    HA19514   5.566   2.607   5.471 -1.6802  1.8350  1.3156
  173SLPC    HB19515   5.582   2.720   5.342  1.5952  1.9146  0.2199
  173SLPC    C219516   5.764   2.611   5.381  0.6406 -0.3806  0.0748
  173SLPC    HS19517   5.817   2.580   5.474  1.5543  0.7200 -0.0456
  173SLPC   O2119518   5.837   2.703   5.296  0.3433  0.1866 -0.3495
  173SLPC   C2119519   5.967   2.700   5.300  0.4880 -0.0382  0.7134
  173SLPC   O2219520   6.033   2.624   5.369 -0.1640 -0.1533  0.3636
  173SLPC   C2219521   6.022   2.813   5.207  0.5639 -0.2349  0.1608
  173SLPC   H2R19522   5.978   2.815   5.105  1.3257  0.3865 -0.1670
  173SLPC   H2S19523   5.980   2.905   5.254 -0.9024 -0.5761 -0.4256
  173SLPC    C319524   5.741   2.487   5.285 -0.0468 -0.4143  0.4287
  173SLPC    HX19525   5.696   2.406   5.347  1.3116  0.1418  2.2158
  173SLPC    HY19526   5.841   2.455   5.250 -2.6051 -4.1108 -4.8436
  173SLPC   O3119527   5.655   2.533   5.179  0.5186  0.3064 -0.1548
  173SLPC   C3119528   5.710   2.555   5.060  0.1653  0.2205 -0.1300
  173SLPC   O3219529   5.826   2.535   5.035 -0.2542  0.3897 -0.0350
  173SLPC   C3219530   5.608   2.616   4.969 -0.0781  0.5723 -0.1237
  173SLPC   H2X19531   5.508   2.610   5.016 -0.0362  2.5090  0.3076
  173SLPC   H2Y19532   5.606   2.559   4.873  1.8209  0.6589 -0.2622
  173SLPC   C2319533   6.178   2.829   5.187  0.6666 -0.0903  0.4317
  173SLPC   H3R19534   6.217   2.747   5.122  2.4249  1.4197 -0.4927
  173SLPC   H3S19535   6.222   2.835   5.288 -2.0847 -0.1779  1.7487
  173SLPC   C2419536   6.207   2.963   5.124  0.0162 -0.0662 -0.3140
  173SLPC   H4R19537   6.317   2.981   5.129 -0.1740  1.3342 -0.8872
  173SLPC   H4S19538   6.170   3.047   5.187 -0.4319 -1.2470  1.0601
  173SLPC   C2519539   6.155   2.983   4.983 -0.3982  0.1456 -0.3462
  173SLPC   H5R19540   6.044   2.988   4.988 -0.4419 -1.9594  2.0379
  173SLPC   H5S19541   6.171   2.885   4.934 -2.1440  0.7362 -2.2908
  173SLPC   C2619542   6.230   3.081   4.884 -0.2647  0.2912 -0.4159
  173SLPC   H6R19543   6.223   3.183   4.927 -3.2853 -0.0426  0.0719
  173SLPC   H6S19544   6.166   3.093   4.794 -0.8909 -0.6985 -0.1214
  173SLPC   C2719545   6.360   3.027   4.834 -0.7941 -0.5134 -0.7888
  173SLPC   H7R19546   6.346   2.927   4.789  0.8762  0.1434 -2.9489
  173SLPC   H7S19547   6.434   3.014   4.916  0.4059  0.3828 -1.6722
  173SLPC   C2819548   6.409   3.121   4.723 -0.1398  0.4677 -0.0497
  173SLPC   H8R19549   6.431   3.221   4.766 -2.3052  1.6074 -1.4176
  173SLPC   H8S19550   6.320   3.137   4.658  0.4287 -2.9845 -1.9412
  173SLPC   C2919551   6.533   3.062   4.663  1.1053 -0.6845 -0.5991
  173SLPC   H9R19552   6.626   3.088   4.715 -0.5342  1.8373  1.3227
  173SLPC  C21019553   6.535   2.990   4.555  0.0749 -0.5706 -0.2812
  173SLPC  H10R19554   6.636   2.961   4.523  0.7067  0.5061  0.6612
  173SLPC  C21119555   6.429   2.934   4.469 -0.2038 -0.0806 -0.2752
  173SLPC  H11R19556   6.392   3.012   4.399 -1.7634 -0.0399  0.5460
  173SLPC  H11S19557   6.341   2.916   4.534  0.9571  0.2851  1.4543
  173SLPC  C21219558   6.466   2.808   4.388 -0.1021  0.1878  0.6879
  173SLPC  H12R19559   6.513   2.731   4.452  0.1151  0.3771  0.7598
  173SLPC  C21319560   6.446   2.791   4.259 -0.4633 -0.2660  0.5740
  173SLPC  H13R19561   6.463   2.690   4.220  0.3315  0.7563 -1.9270
  173SLPC  C21419562   6.398   2.891   4.160 -0.0643  0.1454 -0.0152
  173SLPC  H14R19563   6.396   2.995   4.197 -0.0505 -0.3828  1.5681
  173SLPC  H14S19564   6.299   2.861   4.121  0.0214 -1.3618  0.8227
  173SLPC  C21519565   6.480   2.895   4.026  0.3830 -0.3158 -0.2331
  173SLPC  H15R19566   6.576   2.949   4.040  0.2536 -0.4551  1.3678
  173SLPC  H15S19567   6.413   2.948   3.956 -0.3162 -1.5920 -0.5701
  173SLPC  C21619568   6.488   2.758   3.959 -0.1242  0.0959 -0.5216
  173SLPC  H16R19569   6.393   2.700   3.960 -0.1200 -0.1226 -3.5053
  173SLPC  H16S19570   6.557   2.694   4.019  0.2697  0.5712 -0.4664
  173SLPC  C21719571   6.547   2.765   3.823  0.4769 -0.0049  1.3998
  173SLPC  H17R19572   6.584   2.666   3.792  1.8850 -0.1512  3.3859
  173SLPC  H17S19573   6.636   2.830   3.841  2.3195 -2.3774  1.2602
  173SLPC  C21819574   6.464   2.841   3.714 -0.6516  0.3871  0.4437
  173SLPC  H18R19575   6.430   2.940   3.750 -1.9672  0.0389  0.2197
  173SLPC  H18S19576   6.382   2.774   3.682  1.4348 -1.7460 -0.7800
  173SLPC  H18T19577   6.527   2.848   3.622  1.7759 -1.3833  1.8398
  173SLPC   C3319578   5.639   2.768   4.943 -0.4089 -0.5647  0.6211
  173SLPC   H3X19579   5.670   2.819   5.037  1.1254 -0.5122  0.1165
  173SLPC   H3Y19580   5.541   2.811   4.912  0.3474  0.9880  0.2958
  173SLPC   C3419581   5.731   2.799   4.829  0.4610 -0.4043  0.5718
  173SLPC   H4X19582   5.707   2.750   4.732  0.7952 -2.1517  1.3256
  173SLPC   H4Y19583   5.837   2.774   4.851  0.6480 -1.6749 -1.4407
  173SLPC   C3519584   5.744   2.954   4.812 -0.1260  0.3004  0.2562
  173SLPC   H5X19585   5.773   2.997   4.911  0.3793  1.0423 -0.2074
  173SLPC   H5Y19586   5.643   2.996   4.798 -0.5092 -0.0703  1.7407
  173SLPC   C3619587   5.835   3.004   4.699 -0.0883 -0.2459  0.3186
  173SLPC   H6X19588   5.935   2.956   4.705  0.3352  0.7533  1.7709
  173SLPC   H6Y19589   5.838   3.114   4.714 -3.9098 -0.1769  1.6607
  173SLPC   C3719590   5.787   2.972   4.554  0.2150 -0.0608  0.3557
  173SLPC   H7X19591   5.677   2.986   4.553  0.2840  0.9705  1.9768
  173SLPC   H7Y19592   5.803   2.864   4.532 -2.1735 -0.3198 -0.3439
  173SLPC   C3819593   5.837   3.079   4.461  0.1071 -0.2711  0.2255
  173SLPC   H8X19594   5.803   3.180   4.492 -2.4273 -0.3411 -1.9083
  173SLPC   H8Y19595   5.790   3.064   4.361 -0.0105  0.8954  0.0916
  173SLPC   C3919596   5.986   3.103   4.455 -0.3370  0.0186  0.6407
  173SLPC   H9X19597   6.024   3.000   4.437  3.0332  0.7709  2.6401
  173SLPC   H9Y19598   6.031   3.135   4.551  1.4851  1.9034 -0.7398
  173SLPC  C31019599   6.038   3.181   4.329 -0.1656 -0.7614 -0.7634
  173SLPC  H10X19600   5.999   3.285   4.324  1.4153 -0.1862 -2.7434
  173SLPC  H10Y19601   6.008   3.124   4.238 -3.6731 -0.7176  0.2484
  173SLPC  C31119602   6.188   3.205   4.324 -0.6714 -0.2263 -0.5117
  173SLPC  H11X19603   6.223   3.101   4.309  2.0608  0.3027  1.3839
  173SLPC  H11Y19604   6.235   3.247   4.416  0.0835 -1.4502 -0.3167
  173SLPC  C31219605   6.238   3.284   4.204  0.0376 -0.6679  0.1342
  173SLPC  H12X19606   6.199   3.385   4.228  1.4036  0.1972 -1.0822
  173SLPC  H12Y19607   6.187   3.266   4.107 -1.8846 -1.4257  1.2287
  173SLPC  C31319608   6.393   3.302   4.196 -0.0590  0.2641 -0.0190
  173SLPC  H13X19609   6.407   3.379   4.116  0.2804 -1.1593 -1.3654
  173SLPC  H13Y19610   6.430   3.204   4.161  0.7232  0.5239  0.0664
  173SLPC  C31419611   6.464   3.347   4.329 -0.1551 -0.1233  1.0033
  173SLPC  H14X19612   6.425   3.273   4.403 -0.1054 -0.7627  0.4017
  173SLPC  H14Y19613   6.425   3.447   4.358 -1.6755 -0.1163 -0.8661
  173SLPC  C31519614   6.617   3.348   4.326 -0.4075 -0.4258 -0.7297
  173SLPC  H15X19615   6.644   3.241   4.315  0.2122 -0.5576  1.5784
  173SLPC  H15Y19616   6.647   3.375   4.430 -1.1390  0.9162 -0.8470
  173SLPC  C31619617   6.673   3.446   4.219  0.0053  0.8050  0.4043
  173SLPC  H16X19618   6.653   3.410   4.116  1.1229  3.2166 -0.7400
  173SLPC  H16Y19619   6.784   3.453   4.225  0.0973 -0.5112  0.5512
  173SLPC  C31719620   6.623   3.591   4.233 -0.4207 -0.6809  0.3909
  173SLPC  H17X19621   6.521   3.604   4.190 -0.0866 -2.3550 -1.0380
  173SLPC  H17Y19622   6.685   3.643   4.157 -0.3001  1.4640  1.8994
  173SLPC  C31819623   6.652   3.649   4.369  0.2123  0.4976  0.5904
  173SLPC  H18X19624   6.757   3.618   4.386  0.2263 -0.4000 -1.0004
  173SLPC  H18Y19625   6.577   3.593   4.429 -0.5458  0.1406 -0.6647
  173SLPC  H18Z19626   6.626   3.757   4.375  0.8945  0.6756  0.3560
  174SLPC     N19627   1.526   1.411   5.636 -0.2479  0.0540 -0.3418
  174SLPC   C1319628   1.610   1.327   5.546 -0.5006  0.4010  0.5480
  174SLPC  H13A19629   1.693   1.391   5.522  0.1142  0.2681  2.1670
  174SLPC  H13B19630   1.653   1.245   5.601 -0.6551 -1.6264 -2.1744
  174SLPC  H13C19631   1.557   1.307   5.454  0.5023  2.9854 -0.6999
  174SLPC   C1419632   1.602   1.442   5.762 -0.3491 -1.0169 -0.8639
  174SLPC  H14A19633   1.705   1.469   5.748 -1.3860  3.2541 -1.5507
  174SLPC  H14B19634   1.552   1.524   5.811  1.9771  0.2330 -0.4479
  174SLPC  H14C19635   1.591   1.352   5.820 -0.0761  1.1884  2.8961
  174SLPC   C1519636   1.399   1.339   5.676 -0.0222 -0.0462  0.0945
  174SLPC  H15A19637   1.361   1.292   5.586  0.2706 -0.7981  0.3541
  174SLPC  H15B19638   1.418   1.260   5.746  1.5166 -0.0563 -0.2935
  174SLPC  H15C19639   1.319   1.405   5.707 -1.5674 -2.0186  0.5138
  174SLPC   C1219640   1.490   1.544   5.563 -0.5790  1.0011 -0.0635
  174SLPC  H12A19641   1.427   1.525   5.477 -0.1531  1.8784 -0.5802
  174SLPC  H12B19642   1.588   1.574   5.529 -0.1808  0.6828  0.7689
  174SLPC   C1119643   1.417   1.647   5.647  0.1302 -1.1151  1.1009
  174SLPC  H11A19644   1.314   1.619   5.678  0.0688 -1.4734  0.5882
  174SLPC  H11B19645   1.399   1.726   5.571 -2.7808 -2.9692 -0.3278
  174SLPC     P19646   1.516   1.848   5.781 -0.0235  0.0954  0.6022
  174SLPC   O1319647   1.378   1.907   5.790  0.3727  0.1262 -0.0550
  174SLPC   O1419648   1.607   1.853   5.895  0.2944  0.8135  0.6830
  174SLPC   O1219649   1.497   1.696   5.760 -0.1046  0.3328  0.4698
  174SLPC   O1119650   1.590   1.899   5.648 -0.5134 -0.5020  0.4426
  174SLPC    C119651   1.711   1.831   5.605  0.4945 -0.5916 -0.1020
  174SLPC    HA19652   1.796   1.863   5.669  0.0324  0.5437 -0.0158
  174SLPC    HB19653   1.690   1.722   5.603 -2.8201 -0.1271  1.3136
  174SLPC    C219654   1.746   1.866   5.459  0.1124  0.3453 -0.1397
  174SLPC    HS19655   1.817   1.950   5.442  0.0116 -0.2165 -4.6774
  174SLPC   O2119656   1.634   1.893   5.367  0.4998 -0.4014  0.2075
  174SLPC   C2119657   1.567   1.998   5.384  0.0178 -0.2083  0.3534
  174SLPC   O2219658   1.593   2.098   5.449  0.6397  0.0470 -0.2722
  174SLPC   C2219659   1.451   1.996   5.290  0.7833 -0.3021  0.6822
  174SLPC   H2R19660   1.428   1.891   5.264  0.2800  0.2366 -1.2309
  174SLPC   H2S19661   1.364   2.044   5.339  1.2031 -1.5694  2.7456
  174SLPC    C319662   1.832   1.747   5.400 -0.6343 -1.5248  0.2456
  174SLPC    HX19663   1.903   1.733   5.485 -0.0673  0.5373  0.1773
  174SLPC    HY19664   1.894   1.793   5.320 -1.9944  2.6647  1.3501
  174SLPC   O3119665   1.753   1.632   5.369 -0.0085 -0.8187 -0.0452
  174SLPC   C3119666   1.760   1.592   5.247  0.1231 -0.0908  0.4622
  174SLPC   O3219667   1.812   1.654   5.158 -0.1264  0.1828 -0.0321
  174SLPC   C3219668   1.680   1.450   5.237  0.9708 -0.6302  0.2873
  174SLPC   H2X19669   1.640   1.459   5.134  1.1532  4.3584  0.3752
  174SLPC   H2Y19670   1.598   1.447   5.313 -0.2232 -4.8938 -0.9236
  174SLPC   C2319671   1.478   2.077   5.164 -0.0374 -0.6605 -0.1739
  174SLPC   H3R19672   1.567   2.032   5.115  0.5967 -1.2861  1.4874
  174SLPC   H3S19673   1.509   2.180   5.192  1.4823 -0.8507 -1.0254
  174SLPC   C2419674   1.362   2.071   5.075 -0.2762  0.5976  0.4925
  174SLPC   H4R19675   1.268   2.081   5.134 -0.6512  1.7922 -0.2847
  174SLPC   H4S19676   1.377   1.972   5.025  1.3994  0.6535  0.8426
  174SLPC   C2519677   1.367   2.176   4.964 -0.1930  0.0680  0.5856
  174SLPC   H5R19678   1.447   2.157   4.889  0.8327  1.7916  1.1864
  174SLPC   H5S19679   1.396   2.279   4.994  1.1622  0.5500 -2.0746
  174SLPC   C2619680   1.231   2.181   4.893  0.2659 -0.0274 -0.2201
  174SLPC   H6R19681   1.165   2.249   4.951  0.5336 -1.8811  2.3857
  174SLPC   H6S19682   1.178   2.083   4.891  0.1272  0.0464 -1.5644
  174SLPC   C2719683   1.247   2.225   4.739  0.4069  0.7365 -0.8579
  174SLPC   H7R19684   1.152   2.196   4.690  1.9543 -0.1893 -3.5564
  174SLPC   H7S19685   1.326   2.161   4.692 -0.9113 -1.4967 -0.1888
  174SLPC   C2819686   1.272   2.376   4.724 -0.1367  0.1652 -0.4630
  174SLPC   H8R19687   1.360   2.412   4.780  0.0208  0.9242 -1.1797
  174SLPC   H8S19688   1.185   2.432   4.765  1.4719  1.5432  1.2059
  174SLPC   C2919689   1.291   2.402   4.576 -0.6519 -0.8130 -0.0775
  174SLPC   H9R19690   1.198   2.411   4.518 -0.8634  1.3230  0.5238
  174SLPC  C21019691   1.406   2.442   4.515 -0.2801 -0.4599  0.1156
  174SLPC  H10R19692   1.408   2.459   4.406  0.3388 -2.7614 -0.2865
  174SLPC  C21119693   1.543   2.458   4.589  0.1257  0.1363  0.3145
  174SLPC  H11R19694   1.548   2.377   4.665 -1.2566 -0.3981 -0.1283
  174SLPC  H11S19695   1.552   2.562   4.627  0.7449  0.0685  0.3589
  174SLPC  C21219696   1.641   2.441   4.470  0.5253 -0.3017 -1.1763
  174SLPC  H12R19697   1.687   2.534   4.436  0.0070  0.6646  0.6362
  174SLPC  C21319698   1.676   2.324   4.412 -0.2432 -0.9304 -0.0658
  174SLPC  H13R19699   1.754   2.338   4.336 -0.1281  0.7053  0.3133
  174SLPC  C21419700   1.628   2.186   4.447  0.0008 -0.2124  0.4690
  174SLPC  H14R19701   1.534   2.199   4.505 -0.1466  2.1159 -0.1977
  174SLPC  H14S19702   1.701   2.129   4.509  0.9339  0.7430  0.2746
  174SLPC  C21519703   1.603   2.099   4.322  0.3805 -0.1500 -0.2695
  174SLPC  H15R19704   1.686   2.091   4.248 -0.0477 -2.0679 -0.5993
  174SLPC  H15S19705   1.511   2.133   4.269  0.3626 -0.5432 -0.4914
  174SLPC  C21619706   1.565   1.958   4.371  0.5701 -0.0654  0.4749
  174SLPC  H16R19707   1.502   1.958   4.462  0.6542 -0.4578  0.5370
  174SLPC  H16S19708   1.664   1.913   4.398  1.8427  2.5707  0.5060
  174SLPC  C21719709   1.503   1.867   4.263  0.4033 -0.2697  0.6445
  174SLPC  H17R19710   1.551   1.882   4.164  0.0327 -0.1856  0.4765
  174SLPC  H17S19711   1.397   1.899   4.258  0.5353  0.0176 -0.6970
  174SLPC  C21819712   1.513   1.717   4.305  0.0889  0.4117 -0.0676
  174SLPC  H18R19713   1.434   1.655   4.258 -2.8520  3.4591  0.4204
  174SLPC  H18S19714   1.509   1.702   4.415 -1.4942  1.6002  0.0689
  174SLPC  H18T19715   1.611   1.676   4.271  0.1608  0.5637 -0.0494
  174SLPC   C3319716   1.776   1.328   5.252  0.0878  0.2796 -0.6772
  174SLPC   H3X19717   1.708   1.241   5.252  0.5450 -0.0830 -0.2943
  174SLPC   H3Y19718   1.823   1.333   5.353 -0.8155 -0.5436 -0.1975
  174SLPC   C3419719   1.872   1.326   5.136  0.4224  0.3364 -0.7284
  174SLPC   H4X19720   1.963   1.275   5.175  0.0404  1.0010  1.1641
  174SLPC   H4Y19721   1.921   1.420   5.104  2.5383 -0.3849  0.1532
  174SLPC   C3519722   1.818   1.242   5.021  0.2854  0.6956  0.0358
  174SLPC   H5X19723   1.735   1.311   4.992  0.8632  1.8452  1.0410
  174SLPC   H5Y19724   1.789   1.140   5.055  2.6612  0.7540  2.5218
  174SLPC   C3619725   1.903   1.235   4.892 -0.6656  0.0799 -0.3371
  174SLPC   H6X19726   1.984   1.165   4.920 -0.1335  0.8355  0.0497
  174SLPC   H6Y19727   1.954   1.327   4.857  0.4462 -0.5992 -0.5531
  174SLPC   C3719728   1.824   1.192   4.770 -0.6549  0.0381  0.2438
  174SLPC   H7X19729   1.733   1.254   4.758 -0.4105  0.4232  0.3473
  174SLPC   H7Y19730   1.794   1.087   4.791 -1.7490 -0.0860 -1.7375
  174SLPC   C3819731   1.901   1.194   4.636  0.1655  0.4894  0.3195
  174SLPC   H8X19732   2.002   1.148   4.645  1.5684  3.3772  0.2553
  174SLPC   H8Y19733   1.917   1.298   4.601 -1.0001 -0.3809 -3.1775
  174SLPC   C3919734   1.822   1.120   4.523 -0.6833 -0.3494  0.1696
  174SLPC   H9X19735   1.722   1.168   4.519 -1.5729 -1.9541  1.6303
  174SLPC   H9Y19736   1.799   1.015   4.554 -2.1861  0.3136  1.4736
  174SLPC  C31019737   1.890   1.127   4.379  0.4752 -0.2997  0.2815
  174SLPC  H10X19738   1.828   1.064   4.310  3.0785 -2.9624  0.1747
  174SLPC  H10Y19739   1.992   1.085   4.385  1.5025  1.8922 -0.6899
  174SLPC  C31119740   1.890   1.274   4.324 -0.1346 -0.2123  0.0606
  174SLPC  H11X19741   1.961   1.335   4.384 -0.3756  1.5795 -1.4175
  174SLPC  H11Y19742   1.786   1.309   4.342 -1.1069 -2.0485 -1.5651
  174SLPC  C31219743   1.914   1.301   4.177  0.5411  0.7358  0.7639
  174SLPC  H12X19744   1.848   1.264   4.096 -0.9945  2.0181  1.3730
  174SLPC  H12Y19745   2.019   1.275   4.151  0.2057 -0.2397  0.3224
  174SLPC  C31319746   1.925   1.451   4.157  0.2031  0.5073  0.2168
  174SLPC  H13X19747   1.983   1.500   4.239  0.1781 -3.0953  2.6148
  174SLPC  H13Y19748   1.825   1.499   4.153  0.7622  1.8997  1.5259
  174SLPC  C31419749   1.994   1.480   4.023  0.3043  0.2574 -0.3678
  174SLPC  H14X19750   1.931   1.426   3.949  2.6000 -0.5905 -1.8230
  174SLPC  H14Y19751   2.091   1.426   4.023 -0.8347 -1.9271  0.0379
  174SLPC  C31519752   2.001   1.630   3.993  1.0157  0.1778 -0.2655
  174SLPC  H15X19753   2.034   1.678   4.088 -0.4864 -1.4421  1.1679
  174SLPC  H15Y19754   1.904   1.682   3.980  1.4178  0.8083 -0.7559
  174SLPC  C31619755   2.091   1.662   3.874  0.2883 -0.0560 -1.1547
  174SLPC  H16X19756   2.194   1.623   3.890 -0.8914 -3.1241 -0.1816
  174SLPC  H16Y19757   2.100   1.772   3.871 -0.4412  0.0593 -0.0263
  174SLPC  C31719758   2.047   1.617   3.729  0.3603  0.3861 -0.1942
  174SLPC  H17X19759   1.937   1.634   3.721  0.2439 -0.7421 -1.3520
  174SLPC  H17Y19760   2.064   1.508   3.719 -0.0408  0.1347  1.6320
  174SLPC  C31819761   2.113   1.692   3.610  0.3418 -0.1970  0.0267
  174SLPC  H18X19762   2.222   1.671   3.606  0.4766  0.1804  1.2584
  174SLPC  H18Y19763   2.102   1.802   3.615  1.3382 -0.1105  0.6498
  174SLPC  H18Z19764   2.067   1.644   3.521  1.3904  0.5711 -0.9511
  175SLPC     N19765   6.210   3.980   5.696  0.0535  0.3980 -0.1283
  175SLPC   C1319766   6.100   3.880   5.696  1.0672  0.2665  0.2940
  175SLPC  H13A19767   6.104   3.795   5.763  1.7140 -0.1526 -0.2608
  175SLPC  H13B19768   6.008   3.927   5.725  2.0936  2.5046  0.0781
  175SLPC  H13C19769   6.077   3.837   5.600 -3.2081  2.0688  0.3106
  175SLPC   C1419770   6.333   3.903   5.666 -0.5420 -0.2910 -0.0131
  175SLPC  H14A19771   6.339   3.879   5.561 -1.2863  1.8623 -0.6050
  175SLPC  H14B19772   6.420   3.965   5.683  0.7907 -1.3488 -2.4060
  175SLPC  H14C19773   6.343   3.813   5.724 -0.2346 -0.3636 -0.1744
  175SLPC   C1519774   6.219   4.042   5.827 -0.3036  0.1185 -0.5456
  175SLPC  H15A19775   6.139   4.111   5.849 -0.8235 -1.1917  2.0040
  175SLPC  H15B19776   6.209   3.967   5.903 -1.1032  0.4384 -0.3224
  175SLPC  H15C19777   6.312   4.096   5.839 -1.3259  1.7545  0.5457
  175SLPC   C1219778   6.186   4.083   5.589 -0.3039 -0.2252  0.3630
  175SLPC  H12A19779   6.097   4.134   5.622 -0.2803  0.0167  0.0545
  175SLPC  H12B19780   6.165   4.026   5.500  3.5827 -2.3845  0.6245
  175SLPC   C1119781   6.303   4.177   5.551  0.3732 -0.4009 -0.3423
  175SLPC  H11A19782   6.260   4.250   5.478  1.5096  1.0437  0.3864
  175SLPC  H11B19783   6.389   4.123   5.505  1.7386  0.3425  1.2410
  175SLPC     P19784   6.493   4.271   5.705  0.1705 -0.1694  0.2867
  175SLPC   O1319785   6.502   4.410   5.742  0.4099 -1.0075 -0.2090
  175SLPC   O1419786   6.522   4.164   5.804  0.2859  0.2229  0.1392
  175SLPC   O1219787   6.353   4.256   5.657  0.0614 -0.6635 -0.2688
  175SLPC   O1119788   6.587   4.239   5.584  0.4326  0.4000  0.5601
  175SLPC    C119789   6.660   4.339   5.519 -0.6693 -0.0404  0.4363
  175SLPC    HA19790   6.717   4.409   5.585 -1.2119  0.3579  0.4910
  175SLPC    HB19791   6.727   4.289   5.446 -1.9316  0.5083 -1.1533
  175SLPC    C219792   6.567   4.436   5.436  0.1995  0.1138 -0.1216
  175SLPC    HS19793   6.487   4.467   5.506  0.3627 -0.8836  0.5277
  175SLPC   O2119794   6.519   4.369   5.323 -0.2657 -0.1587  0.4183
  175SLPC   C2119795   6.414   4.433   5.276  0.4169  0.0387  0.3474
  175SLPC   O2219796   6.357   4.533   5.322  0.0841 -0.5348 -0.0358
  175SLPC   C2219797   6.363   4.369   5.147  0.9217 -0.2442  0.3837
  175SLPC   H2R19798   6.442   4.302   5.108  1.5854  1.4586 -1.3152
  175SLPC   H2S19799   6.269   4.315   5.173  0.5085  0.3284  0.1151
  175SLPC    C319800   6.648   4.563   5.392  0.3104  0.4719 -0.8287
  175SLPC    HX19801   6.675   4.605   5.491 -0.9052  1.0706 -0.7429
  175SLPC    HY19802   6.585   4.640   5.343 -0.0493  0.9649  0.3817
  175SLPC   O3119803   6.767   4.532   5.321  0.3985 -0.2278  0.6009
  175SLPC   C3119804   6.806   4.608   5.226 -0.3779 -1.1344 -0.3296
  175SLPC   O3219805   6.746   4.712   5.185  0.6620  0.2405 -0.1623
  175SLPC   C3219806   6.945   4.573   5.184  0.7603  0.1072 -0.0645
  175SLPC   H2X19807   6.981   4.480   5.231  1.7054 -0.1367 -1.2401
  175SLPC   H2Y19808   7.015   4.655   5.212 -0.0821  1.8233 -2.6081
  175SLPC   C2319809   6.329   4.479   5.042 -0.4460 -0.2614 -0.6022
  175SLPC   H3R19810   6.278   4.566   5.090  1.3707  1.2316 -1.2379
  175SLPC   H3S19811   6.273   4.432   4.959 -1.2367  1.7118 -1.2586
  175SLPC   C2419812   6.464   4.519   4.974 -1.1477 -0.6115 -0.3070
  175SLPC   H4R19813   6.525   4.428   4.960 -1.9115 -1.1257 -0.3796
  175SLPC   H4S19814   6.518   4.586   5.045  0.9461 -1.2354 -1.2491
  175SLPC   C2519815   6.449   4.584   4.835  0.5365  0.4146 -0.2224
  175SLPC   H5R19816   6.548   4.625   4.805  1.7839 -2.3631 -0.1748
  175SLPC   H5S19817   6.380   4.669   4.852  2.1861  1.1217  4.3519
  175SLPC   C2619818   6.404   4.498   4.718  0.0312 -0.6162 -0.7494
  175SLPC   H6R19819   6.297   4.482   4.741 -0.4963  4.2627  1.3050
  175SLPC   H6S19820   6.451   4.397   4.717  0.0263 -0.6164 -1.1793
  175SLPC   C2719821   6.413   4.576   4.588  0.2368 -0.6285  0.2112
  175SLPC   H7R19822   6.381   4.682   4.595  0.5804 -0.5667  0.8631
  175SLPC   H7S19823   6.346   4.551   4.502  0.1155  0.5399 -0.0529
  175SLPC   C2819824   6.556   4.557   4.525 -0.4174  0.1836  0.9080
  175SLPC   H8R19825   6.639   4.576   4.596 -0.0602 -0.9779  0.8176
  175SLPC   H8S19826   6.559   4.633   4.444  1.9319 -0.6302  0.1714
  175SLPC   C2919827   6.563   4.424   4.451 -0.0897 -0.3812 -0.1324
  175SLPC   H9R19828   6.511   4.340   4.501  1.3098 -1.7871 -0.9528
  175SLPC  C21019829   6.642   4.404   4.348  0.1193  0.3692  0.4165
  175SLPC  H10R19830   6.648   4.310   4.292 -1.3420  1.3557 -1.5104
  175SLPC  C21119831   6.729   4.514   4.286 -0.2380 -0.4119  0.5274
  175SLPC  H11R19832   6.779   4.574   4.364  0.8949 -0.0180 -0.4778
  175SLPC  H11S19833   6.665   4.582   4.226  1.8464 -0.1554 -1.5059
  175SLPC  C21219834   6.829   4.467   4.180  0.1814 -0.2691 -0.2269
  175SLPC  H12R19835   6.795   4.464   4.075  0.5808  0.0415 -0.3735
  175SLPC  C21319836   6.953   4.425   4.211  0.0297  0.3492  0.1111
  175SLPC  H13R19837   7.018   4.400   4.126 -0.6071 -0.9587 -0.0173
  175SLPC  C21419838   7.021   4.401   4.342  0.2955 -0.1382  0.2022
  175SLPC  H14R19839   7.064   4.299   4.357  1.2251  0.6293  3.3202
  175SLPC  H14S19840   6.941   4.400   4.418 -0.1235 -0.2442 -0.2323
  175SLPC  C21519841   7.125   4.512   4.388  0.4539  0.1987  0.4796
  175SLPC  H15R19842   7.124   4.514   4.499 -2.1014 -0.4106  0.5299
  175SLPC  H15S19843   7.095   4.618   4.374 -0.6277  0.1348  2.0278
  175SLPC  C21619844   7.270   4.491   4.337 -0.2177 -0.0802 -0.3645
  175SLPC  H16R19845   7.267   4.438   4.240  2.1394 -0.3104 -0.3856
  175SLPC  H16S19846   7.307   4.411   4.404  0.9871 -0.9775 -2.0192
  175SLPC  C21719847   7.363   4.614   4.328 -0.6994  0.0268 -0.2192
  175SLPC  H17R19848   7.368   4.656   4.431 -0.9629 -0.1813 -0.1212
  175SLPC  H17S19849   7.319   4.699   4.271 -1.5229 -0.3267 -0.1140
  175SLPC  C21819850   7.511   4.570   4.295 -0.2320  0.0619  0.2332
  175SLPC  H18R19851   7.545   4.474   4.340  2.6107  0.7663 -0.1617
  175SLPC  H18S19852   7.582   4.654   4.308 -0.0523  0.4547 -2.5596
  175SLPC  H18T19853   7.513   4.565   4.184  0.2799 -2.3699  0.2912
  175SLPC   C3319854   6.948   4.550   5.030 -0.5523 -0.0673 -0.2823
  175SLPC   H3X19855   7.035   4.483   5.012 -0.9345 -0.5902 -0.1983
  175SLPC   H3Y19856   6.949   4.645   4.973  2.2870  1.2236  1.7099
  175SLPC   C3419857   6.843   4.448   4.970  0.1806 -0.5749 -0.5229
  175SLPC   H4X19858   6.744   4.497   4.969 -0.6305 -2.1023  1.0854
  175SLPC   H4Y19859   6.847   4.356   5.032 -1.2126 -0.9244 -0.9112
  175SLPC   C3519860   6.872   4.390   4.830 -0.5578 -0.2096 -0.6946
  175SLPC   H5X19861   6.965   4.330   4.834 -1.6149 -2.0326 -1.8960
  175SLPC   H5Y19862   6.889   4.474   4.758  3.4447 -0.8114 -0.6704
  175SLPC   C3619863   6.755   4.309   4.779  0.3520  0.0192  0.2052
  175SLPC   H6X19864   6.682   4.389   4.756  0.5467  0.6618  1.6990
  175SLPC   H6Y19865   6.703   4.254   4.860  0.9295 -1.1748 -0.2146
  175SLPC   C3719866   6.803   4.213   4.672 -0.3803 -0.4776  0.3245
  175SLPC   H7X19867   6.897   4.170   4.713 -0.4395  0.8825  2.0095
  175SLPC   H7Y19868   6.839   4.270   4.583  0.6008 -2.4999 -0.6311
  175SLPC   C3819869   6.704   4.118   4.610  0.5653 -0.1686  0.4407
  175SLPC   H8X19870   6.639   4.185   4.548 -1.2004  0.3076  2.6781
  175SLPC   H8Y19871   6.655   4.059   4.689  0.8550  0.9772  1.5084
  175SLPC   C3919872   6.779   4.014   4.515  0.1056 -0.0078  0.5078
  175SLPC   H9X19873   6.707   3.943   4.470  1.2075 -2.6600  2.5784
  175SLPC   H9Y19874   6.852   3.961   4.581 -1.9879 -3.9244 -0.0029
  175SLPC  C31019875   6.869   4.081   4.400  0.3696 -0.5790  0.2180
  175SLPC  H10X19876   6.956   4.139   4.440  0.4022 -1.9851  2.3518
  175SLPC  H10Y19877   6.801   4.147   4.342 -1.9513 -1.3646  1.9004
  175SLPC  C31119878   6.920   3.974   4.308 -0.5991  0.1168  0.3463
  175SLPC  H11X19879   6.835   3.922   4.258 -0.1547 -1.5809  1.2672
  175SLPC  H11Y19880   6.981   3.900   4.364 -1.6594 -1.4790 -0.5179
  175SLPC  C31219881   7.015   4.027   4.192 -0.2740 -0.6581  0.0382
  175SLPC  H12X19882   7.085   3.942   4.176 -0.6347 -0.9548  0.0231
  175SLPC  H12Y19883   7.073   4.111   4.236 -0.2097 -0.5869 -0.1794
  175SLPC  C31319884   6.933   4.062   4.066  0.7980 -0.3725 -0.5087
  175SLPC  H13X19885   6.866   4.149   4.084  1.4419 -0.4738  3.1028
  175SLPC  H13Y19886   6.865   3.977   4.042 -1.2201  0.8864  0.4517
  175SLPC  C31419887   7.017   4.081   3.937  0.9573  0.3958 -0.4801
  175SLPC  H14X19888   6.947   4.091   3.851 -0.4366  0.1736  0.5919
  175SLPC  H14Y19889   7.084   3.997   3.910  1.3020 -0.1054  1.7676
  175SLPC  C31519890   7.096   4.213   3.946  0.2582  0.4752  0.0190
  175SLPC  H15X19891   7.146   4.229   4.044 -0.1490 -1.8918  0.6690
  175SLPC  H15Y19892   7.026   4.299   3.938 -0.2980  0.3933  2.9773
  175SLPC  C31619893   7.216   4.225   3.844  0.5714 -0.3220  0.1251
  175SLPC  H16X19894   7.278   4.136   3.866  2.0774  0.5762 -0.3187
  175SLPC  H16Y19895   7.269   4.317   3.878 -0.4564 -0.2282  1.5490
  175SLPC  C31719896   7.176   4.244   3.695 -0.1066  0.1007 -0.1388
  175SLPC  H17X19897   7.111   4.332   3.678 -1.2820 -0.5402  0.8324
  175SLPC  H17Y19898   7.115   4.157   3.661  0.0416  0.4301 -1.2842
  175SLPC  C31819899   7.291   4.258   3.600 -0.4300  0.5139  0.0478
  175SLPC  H18X19900   7.265   4.236   3.494  0.5796  2.4604 -0.6402
  175SLPC  H18Y19901   7.355   4.170   3.624  0.0806  0.9419  0.2567
  175SLPC  H18Z19902   7.351   4.351   3.601 -1.0630  0.9478 -0.6449
  176SLPC     N19903   5.474   1.297   5.881 -0.2379  0.2981  0.0812
  176SLPC   C1319904   5.598   1.222   5.931 -0.2836 -1.0420 -0.0434
  176SLPC  H13A19905   5.586   1.121   5.969 -1.1981 -1.0894 -0.4313
  176SLPC  H13B19906   5.673   1.217   5.854 -0.6254  0.4396 -0.5014
  176SLPC  H13C19907   5.642   1.283   6.008 -0.7729  1.4454 -1.6313
  176SLPC   C1419908   5.525   1.420   5.814 -0.1712 -1.1722  0.4642
  176SLPC  H14A19909   5.594   1.398   5.734  1.3687 -0.2797  1.4984
  176SLPC  H14B19910   5.443   1.485   5.788 -0.7415 -1.4715  1.4679
  176SLPC  H14C19911   5.582   1.485   5.880  1.6965 -0.7494 -1.4476
  176SLPC   C1519912   5.393   1.324   6.004  0.1194  0.2108  0.2476
  176SLPC  H15A19913   5.449   1.398   6.059  0.4369  0.2753 -0.1537
  176SLPC  H15B19914   5.291   1.355   5.985 -0.3938 -1.3403  0.3667
  176SLPC  H15C19915   5.389   1.230   6.057 -0.8653 -1.8253 -3.1297
  176SLPC   C1219916   5.390   1.207   5.784 -0.5255  0.0092  0.0084
  176SLPC  H12A19917   5.360   1.117   5.836 -1.7502  1.2645  1.5638
  176SLPC  H12B19918   5.450   1.169   5.702 -0.4071 -3.6051  1.5979
  176SLPC   C1119919   5.260   1.276   5.726  0.1827  0.7589 -0.2799
  176SLPC  H11A19920   5.270   1.373   5.673  1.0819  1.1345  0.5353
  176SLPC  H11B19921   5.195   1.297   5.814  2.0031  0.9973  1.0813
  176SLPC     P19922   5.139   1.053   5.662  0.2158  0.6091  0.1449
  176SLPC   O1319923   5.060   1.056   5.792  0.4414  0.9017  0.2982
  176SLPC   O1419924   5.061   0.989   5.553 -0.1830  0.6369 -0.1260
  176SLPC   O1219925   5.203   1.194   5.626  0.3947  0.4413 -0.3674
  176SLPC   O1119926   5.270   0.966   5.681 -0.4399  0.4736  0.3813
  176SLPC    C119927   5.276   0.828   5.629 -0.2585 -0.4750  0.1709
  176SLPC    HA19928   5.200   0.769   5.685  0.5840 -0.2236  1.6187
  176SLPC    HB19929   5.247   0.813   5.523 -0.0652  0.4378 -0.0161
  176SLPC    C219930   5.417   0.759   5.641  0.1702  0.3111 -0.5189
  176SLPC    HS19931   5.446   0.741   5.746  0.3117  0.1855 -0.5790
  176SLPC   O2119932   5.518   0.811   5.555 -0.0546  0.8794 -1.0386
  176SLPC   C2119933   5.566   0.915   5.607 -0.1436 -0.3103  0.0456
  176SLPC   O2219934   5.539   0.955   5.720 -0.4359  0.2383  0.5813
  176SLPC   C2219935   5.668   0.978   5.513  0.2463 -0.0841 -0.3000
  176SLPC   H2R19936   5.770   0.938   5.532 -0.2892 -1.4649 -0.2534
  176SLPC   H2S19937   5.648   0.931   5.414  0.2233 -0.3979 -0.1469
  176SLPC    C319938   5.394   0.605   5.595  0.1579  1.2024 -0.5087
  176SLPC    HX19939   5.326   0.560   5.671  2.5335  1.7294  2.1181
  176SLPC    HY19940   5.489   0.554   5.621 -0.2875  1.1195  1.0573
  176SLPC   O3119941   5.345   0.592   5.464  0.2292  0.3440  0.1676
  176SLPC   C3119942   5.427   0.580   5.357 -0.3196 -0.0040 -0.1287
  176SLPC   O3219943   5.547   0.573   5.366  0.2991  0.8024  0.4839
  176SLPC   C3219944   5.342   0.557   5.231  0.3933 -0.3190 -0.1714
  176SLPC   H2X19945   5.257   0.628   5.221 -0.2422 -1.1122 -0.5071
  176SLPC   H2Y19946   5.292   0.459   5.241 -0.0249 -0.0052  1.0217
  176SLPC   C2319947   5.656   1.135   5.500  0.2881  0.1745 -0.0899
  176SLPC   H3R19948   5.743   1.164   5.437  0.9131 -0.6819  0.3662
  176SLPC   H3S19949   5.667   1.179   5.601  0.2530  0.2764 -0.1299
  176SLPC   C2419950   5.526   1.179   5.437  0.0102  1.1622  0.2009
  176SLPC   H4R19951   5.535   1.289   5.439  0.4191  1.1365 -0.0629
  176SLPC   H4S19952   5.433   1.151   5.491  0.5063 -1.4100 -0.1357
  176SLPC   C2519953   5.504   1.125   5.295 -0.2372  0.5442 -0.1489
  176SLPC   H5R19954   5.475   1.017   5.295  0.0692  0.4582  0.3066
  176SLPC   H5S19955   5.595   1.129   5.231  0.5426  2.8476  0.9907
  176SLPC   C2619956   5.385   1.187   5.222  0.2445  0.4893  0.5424
  176SLPC   H6R19957   5.401   1.296   5.208  1.2364  0.1738 -1.0661
  176SLPC   H6S19958   5.302   1.175   5.294  1.2024  0.0666  1.6022
  176SLPC   C2719959   5.346   1.123   5.086 -1.0530 -0.1442 -0.3905
  176SLPC   H7R19960   5.379   1.019   5.103  4.8566  1.4176  0.1072
  176SLPC   H7S19961   5.413   1.160   5.005 -0.3548 -1.7011 -0.5687
  176SLPC   C2819962   5.198   1.139   5.035 -0.6642 -0.1119  0.4374
  176SLPC   H8R19963   5.119   1.079   5.085 -2.1325  0.9322 -0.5245
  176SLPC   H8S19964   5.202   1.114   4.927  1.0012  3.7400 -0.5451
  176SLPC   C2919965   5.159   1.283   5.042 -0.7423 -0.6399 -0.6019
  176SLPC   H9R19966   5.138   1.311   5.146  0.8261 -3.2510  0.5242
  176SLPC  C21019967   5.166   1.382   4.954 -0.9061  0.2408  0.1034
  176SLPC  H10R19968   5.153   1.486   4.985 -1.4476  0.0513  0.5222
  176SLPC  C21119969   5.214   1.366   4.814 -0.7633 -0.0727 -0.0196
  176SLPC  H11R19970   5.247   1.262   4.792  1.7850  0.9634 -1.5766
  176SLPC  H11S19971   5.312   1.419   4.814  0.3560 -1.9454  2.5604
  176SLPC  C21219972   5.128   1.424   4.707  0.3354  0.2300  0.4934
  176SLPC  H12R19973   5.022   1.395   4.712  0.5494 -0.4172  1.5473
  176SLPC  C21319974   5.155   1.518   4.621  0.2948 -1.2727  0.4306
  176SLPC  H13R19975   5.068   1.546   4.559  0.6742 -1.0026  0.0133
  176SLPC  C21419976   5.289   1.587   4.612 -0.7620 -0.7570  0.1135
  176SLPC  H14R19977   5.304   1.631   4.511  0.7001 -0.7848  0.3081
  176SLPC  H14S19978   5.363   1.508   4.634 -1.1128 -0.9233  0.7389
  176SLPC  C21519979   5.290   1.701   4.720  0.0212 -0.0774  0.5203
  176SLPC  H15R19980   5.301   1.666   4.824 -1.6448 -0.3382  0.6407
  176SLPC  H15S19981   5.201   1.765   4.703  0.0803 -0.3945 -1.1970
  176SLPC  C21619982   5.417   1.786   4.700  0.5586 -0.1910 -0.7092
  176SLPC  H16R19983   5.404   1.832   4.599 -1.8835  2.0331  0.4982
  176SLPC  H16S19984   5.504   1.718   4.709 -0.9991 -2.0014  1.5687
  176SLPC  C21719985   5.423   1.900   4.805 -0.0856 -0.2290  0.0213
  176SLPC  H17R19986   5.388   1.863   4.904  0.7864 -0.9776  0.0589
  176SLPC  H17S19987   5.370   1.992   4.772  1.1421  0.8095  0.8938
  176SLPC  C21819988   5.569   1.937   4.838  0.0058  0.0814 -0.1967
  176SLPC  H18R19989   5.583   2.000   4.929 -0.5522 -0.6304  0.3812
  176SLPC  H18S19990   5.625   1.981   4.752 -0.6653  2.0271  0.2977
  176SLPC  H18T19991   5.620   1.841   4.861 -0.5674  0.4048  2.7587
  176SLPC   C3319992   5.421   0.577   5.097  0.4542  0.2780  0.3454
  176SLPC   H3X19993   5.367   0.545   5.006 -0.7538  3.3696 -0.1694
  176SLPC   H3Y19994   5.509   0.511   5.111  0.0077 -0.3833  0.0532
  176SLPC   C3419995   5.462   0.723   5.072  0.2556 -0.4098  0.7120
  176SLPC   H4X19996   5.487   0.774   5.167 -1.3045  0.5961  0.6120
  176SLPC   H4Y19997   5.365   0.775   5.056  1.7951  1.9251 -1.9664
  176SLPC   C3519998   5.557   0.754   4.958 -0.5563 -0.5611  0.2728
  176SLPC   H5X19999   5.622   0.665   4.943 -0.6673 -0.3201 -1.8893
  176SLPC   H5Y20000   5.621   0.840   4.988 -0.9520  0.0905 -0.7090
  176SLPC   C3620001   5.486   0.782   4.824  0.0119 -0.2373 -0.1211
  176SLPC   H6X20002   5.405   0.709   4.803  1.5264 -1.7206 -1.0323
  176SLPC   H6Y20003   5.561   0.777   4.742 -0.7388  1.9028 -1.0289
  176SLPC   C3720004   5.422   0.928   4.824  1.1576  0.0919  0.7121
  176SLPC   H7X20005   5.501   1.006   4.838 -0.6740  1.6977  3.1140
  176SLPC   H7Y20006   5.363   0.937   4.918  0.6246  3.2519  0.2141
  176SLPC   C3820007   5.333   0.947   4.700  0.3995  0.3302 -0.0833
  176SLPC   H8X20008   5.293   1.050   4.712 -0.7914 -0.0156 -0.8277
  176SLPC   H8Y20009   5.239   0.888   4.698  1.6464 -1.7320 -1.0412
  176SLPC   C3920010   5.396   0.950   4.561 -0.4339  0.4877 -0.4403
  176SLPC   H9X20011   5.368   0.856   4.509  0.5130  0.7441 -1.4584
  176SLPC   H9Y20012   5.506   0.964   4.562 -0.3424 -0.2318 -0.3211
  176SLPC  C31020013   5.350   1.060   4.460 -0.2776 -0.3895 -0.0152
  176SLPC  H10X20014   5.388   1.162   4.484 -0.3171 -0.1300 -0.9993
  176SLPC  H10Y20015   5.240   1.075   4.460 -0.5214 -1.9779  0.9217
  176SLPC  C31120016   5.407   1.022   4.318 -0.3330 -0.8486  0.3128
  176SLPC  H11X20017   5.347   0.940   4.273 -1.5138  0.2148 -0.1239
  176SLPC  H11Y20018   5.515   0.998   4.328  0.0390 -0.7635 -2.5631
  176SLPC  C31220019   5.397   1.126   4.207 -0.1388 -0.4695  0.0971
  176SLPC  H12X20020   5.431   1.225   4.242  0.2937 -0.7872  0.5887
  176SLPC  H12Y20021   5.289   1.143   4.186  0.8099  1.1997 -4.3652
  176SLPC  C31320022   5.472   1.085   4.088 -1.0751  0.7442 -0.1925
  176SLPC  H13X20023   5.469   0.973   4.088  0.0064  0.6860  1.2781
  176SLPC  H13Y20024   5.580   1.109   4.096 -1.1420  0.6397  1.2791
  176SLPC  C31420025   5.428   1.140   3.951  0.0967 -0.0055  0.6876
  176SLPC  H14X20026   5.431   1.251   3.948  0.1277 -0.0081 -3.1360
  176SLPC  H14Y20027   5.324   1.106   3.934 -0.3505  1.6890 -0.1338
  176SLPC  C31520028   5.519   1.093   3.839 -1.1059  0.6763 -0.3002
  176SLPC  H15X20029   5.547   0.989   3.868  0.3548  1.0041 -0.4270
  176SLPC  H15Y20030   5.606   1.163   3.843  0.4243 -1.0606 -1.3933
  176SLPC  C31620031   5.456   1.107   3.695  0.3751  0.5723 -0.0036
  176SLPC  H16X20032   5.532   1.092   3.616  0.0101 -2.5114  0.1190
  176SLPC  H16Y20033   5.408   1.207   3.687  2.2328  1.4206 -1.1925
  176SLPC  C31720034   5.345   1.006   3.674 -0.2205 -0.7202  0.7990
  176SLPC  H17X20035   5.272   1.023   3.756 -0.6829  0.4146  0.1717
  176SLPC  H17Y20036   5.384   0.905   3.700 -1.4600 -0.8072  2.5199
  176SLPC  C31820037   5.279   1.004   3.533 -0.8935  0.0103 -0.0576
  176SLPC  H18X20038   5.203   0.925   3.517  0.8002 -2.2425  2.1988
  176SLPC  H18Y20039   5.358   0.995   3.454  0.9754  0.2847  1.7068
  176SLPC  H18Z20040   5.239   1.105   3.511 -0.3406 -0.0672 -1.6273
  177SLPC     N20041   7.094   3.066   5.759  0.2540 -0.1598  0.7320
  177SLPC   C1320042   7.133   3.165   5.864 -0.6174  0.1591  0.0371
  177SLPC  H13A20043   7.196   3.113   5.934  0.2467  0.1393 -0.7397
  177SLPC  H13B20044   7.187   3.252   5.831  0.4738  0.2606  1.8914
  177SLPC  H13C20045   7.047   3.209   5.913 -0.8607  1.1904 -1.2631
  177SLPC   C1420046   7.223   3.030   5.694  0.4418 -0.2972 -0.1826
  177SLPC  H14A20047   7.281   3.116   5.664 -1.1588  0.3440 -1.6499
  177SLPC  H14B20048   7.277   2.957   5.752  2.8500  0.2335 -1.6472
  177SLPC  H14C20049   7.191   2.978   5.605 -2.2843  0.0778  0.4923
  177SLPC   C1520050   7.004   3.133   5.659  0.1564  0.1443 -0.2286
  177SLPC  H15A20051   7.051   3.222   5.619 -0.5003  0.8404  0.5111
  177SLPC  H15B20052   7.000   3.070   5.571 -1.6965  3.5230 -2.8347
  177SLPC  H15C20053   6.903   3.148   5.695 -0.0222 -2.0465  0.3002
  177SLPC   C1220054   7.021   2.949   5.824  0.1628 -0.0222 -0.5619
  177SLPC  H12A20055   6.981   2.884   5.748 -0.2936  0.5505 -0.8172
  177SLPC  H12B20056   6.940   2.978   5.888  2.6484  0.9428  2.4081
  177SLPC   C1120057   7.105   2.874   5.921  0.4856  0.3238  0.4956
  177SLPC  H11A20058   7.031   2.810   5.974  1.2530 -1.7474 -0.8115
  177SLPC  H11B20059   7.149   2.932   6.005  0.0292  0.0249  0.9451
  177SLPC     P20060   7.152   2.657   5.799 -0.1552  0.1597  0.3037
  177SLPC   O1320061   7.260   2.590   5.726  0.5723 -0.4602  0.4229
  177SLPC   O1420062   7.091   2.584   5.907  0.1743 -0.0587 -0.2970
  177SLPC   O1220063   7.210   2.793   5.860 -0.0799  0.4247  0.0679
  177SLPC   O1120064   7.039   2.696   5.698  0.0703  0.3201 -0.0895
  177SLPC    C120065   7.066   2.707   5.558 -0.1261 -0.0247 -0.2672
  177SLPC    HA20066   7.160   2.764   5.541 -0.2911  0.1090 -0.7712
  177SLPC    HB20067   7.066   2.602   5.521 -0.1072 -0.2695  0.4220
  177SLPC    C220068   6.953   2.783   5.478  0.6459  0.2380 -0.1389
  177SLPC    HS20069   6.943   2.879   5.533 -0.1504 -0.6670  1.3860
  177SLPC   O2120070   6.827   2.717   5.507  0.3406  0.6435 -0.3802
  177SLPC   C2120071   6.712   2.788   5.507 -0.4016  0.2952 -0.1249
  177SLPC   O2220072   6.716   2.908   5.522  0.2178  0.2093 -0.2495
  177SLPC   C2220073   6.582   2.709   5.481  0.3862 -0.0997  0.0287
  177SLPC   H2R20074   6.587   2.623   5.551 -1.2227  0.2226  0.5905
  177SLPC   H2S20075   6.496   2.777   5.504 -1.2169 -2.1754  0.4997
  177SLPC    C320076   6.976   2.797   5.325 -0.1967 -0.9876  0.4049
  177SLPC    HX20077   6.957   2.696   5.283 -1.5209 -0.4556 -0.3292
  177SLPC    HY20078   7.082   2.817   5.298 -0.5938  0.2879 -0.3089
  177SLPC   O3120079   6.894   2.885   5.251  0.2810 -0.3840  0.5260
  177SLPC   C3120080   6.937   3.012   5.260 -0.2331  0.7081  0.2976
  177SLPC   O3220081   7.037   3.042   5.325 -0.3039  0.4017 -0.5754
  177SLPC   C3220082   6.862   3.100   5.165  0.4191 -0.4017  0.5660
  177SLPC   H2X20083   6.870   3.206   5.197 -1.6599 -0.2474  0.7061
  177SLPC   H2Y20084   6.756   3.069   5.172  0.5788 -1.1902 -0.2144
  177SLPC   C2320085   6.572   2.675   5.331 -0.1698  0.4726  0.0818
  177SLPC   H3R20086   6.487   2.604   5.323 -0.4967  1.0425 -2.4163
  177SLPC   H3S20087   6.663   2.623   5.295 -0.1774  0.6996 -0.2663
  177SLPC   C2420088   6.534   2.791   5.246 -0.3654 -0.0774 -0.7116
  177SLPC   H4R20089   6.608   2.869   5.273  0.1654 -1.1245  1.0106
  177SLPC   H4S20090   6.437   2.828   5.284 -0.4013  0.2112 -1.0804
  177SLPC   C2520091   6.524   2.760   5.096 -0.3426  0.1118  0.4425
  177SLPC   H5R20092   6.499   2.858   5.050  0.2876  1.1549  2.2114
  177SLPC   H5S20093   6.441   2.690   5.070  0.0657  0.3062 -1.5471
  177SLPC   C2620094   6.650   2.709   5.031  0.0575  0.1562  0.1509
  177SLPC   H6R20095   6.741   2.754   5.077  0.1075  1.8240 -1.4821
  177SLPC   H6S20096   6.649   2.748   4.927 -0.6133 -0.1785  0.0245
  177SLPC   C2720097   6.665   2.555   5.024 -0.0168 -0.1671 -0.0549
  177SLPC   H7R20098   6.574   2.506   4.985 -0.8284 -1.0689  2.7210
  177SLPC   H7S20099   6.678   2.512   5.126  0.4254  3.5981  1.6562
  177SLPC   C2820100   6.779   2.512   4.929 -0.1440 -0.3549  0.1470
  177SLPC   H8R20101   6.874   2.563   4.957 -0.2371 -0.7272  1.1802
  177SLPC   H8S20102   6.752   2.544   4.826  0.3849 -0.4996 -0.0400
  177SLPC   C2920103   6.817   2.373   4.952 -0.5341 -0.6754  0.1624
  177SLPC   H9R20104   6.858   2.352   5.052  0.5497  0.1447 -0.0905
  177SLPC  C21020105   6.808   2.276   4.862 -0.2504 -1.0517 -0.1985
  177SLPC  H10R20106   6.813   2.171   4.896  0.4906 -0.8717  0.2607
  177SLPC  C21120107   6.758   2.287   4.716 -0.2246  0.4948 -0.2346
  177SLPC  H11R20108   6.798   2.195   4.667  1.7393  0.9692  0.3971
  177SLPC  H11S20109   6.810   2.372   4.668  2.3400  0.5485  2.3628
  177SLPC  C21220110   6.605   2.286   4.726 -0.4716 -0.6359  0.2004
  177SLPC  H12R20111   6.562   2.213   4.796  0.5785 -0.2734  1.2620
  177SLPC  C21320112   6.535   2.379   4.661  0.2423 -0.1283  0.3375
  177SLPC  H13R20113   6.427   2.388   4.677  0.6099  1.4448  2.3397
  177SLPC  C21420114   6.580   2.483   4.559 -0.0661  0.1551  0.0813
  177SLPC  H14R20115   6.662   2.549   4.593  1.8091 -1.5615 -0.8900
  177SLPC  H14S20116   6.504   2.562   4.540  2.0912  1.8207 -2.1230
  177SLPC  C21520117   6.622   2.424   4.416  0.3805 -0.2012  0.5445
  177SLPC  H15R20118   6.706   2.351   4.428 -0.0188 -0.8583 -0.4647
  177SLPC  H15S20119   6.640   2.499   4.336 -1.8962 -1.1389 -0.9576
  177SLPC  C21620120   6.504   2.345   4.358 -0.0163 -0.5803 -0.2905
  177SLPC  H16R20121   6.416   2.413   4.355  0.4959  0.2588  2.1620
  177SLPC  H16S20122   6.479   2.253   4.414  3.2805 -2.6301 -1.8325
  177SLPC  C21720123   6.536   2.267   4.225  0.0117 -0.3987  0.7023
  177SLPC  H17R20124   6.448   2.204   4.202  0.6502 -0.8733 -0.5360
  177SLPC  H17S20125   6.622   2.196   4.233  0.4175  0.2004  2.1281
  177SLPC  C21820126   6.562   2.356   4.095 -0.0317  0.0649  0.5506
  177SLPC  H18R20127   6.469   2.399   4.052  1.1239  1.4459 -0.6959
  177SLPC  H18S20128   6.592   2.291   4.010  0.3640 -0.6160  1.1962
  177SLPC  H18T20129   6.643   2.431   4.106 -0.5951  0.5241  1.8239
  177SLPC   C3320130   6.924   3.092   5.021 -0.0331  1.0178 -0.1212
  177SLPC   H3X20131   7.035   3.101   5.022  0.3766 -2.5237  1.2449
  177SLPC   H3Y20132   6.894   3.186   4.970  3.2344  0.6547 -3.1049
  177SLPC   C3420133   6.862   2.983   4.930  0.6747 -0.4262 -0.3411
  177SLPC   H4X20134   6.751   2.985   4.936  0.5823  1.8710 -1.8749
  177SLPC   H4Y20135   6.892   2.879   4.956  1.4888 -0.3382 -0.8916
  177SLPC   C3520136   6.904   2.995   4.789 -0.0557  0.4154 -0.2209
  177SLPC   H5X20137   7.015   2.998   4.782 -0.1186  2.3125 -1.0400
  177SLPC   H5Y20138   6.875   3.087   4.734 -0.0111 -0.2272 -1.3668
  177SLPC   C3620139   6.854   2.871   4.712 -0.2621  0.3704 -0.0645
  177SLPC   H6X20140   6.745   2.852   4.714 -0.0950 -0.5839  0.2035
  177SLPC   H6Y20141   6.895   2.779   4.757 -3.3268 -1.0442  0.0439
  177SLPC   C3720142   6.905   2.875   4.562  0.0876  0.1129 -0.5377
  177SLPC   H7X20143   7.014   2.893   4.565  0.8147 -3.3049 -1.6009
  177SLPC   H7Y20144   6.866   2.966   4.511  1.6941  1.7281  1.0042
  177SLPC   C3820145   6.885   2.752   4.474  0.4220 -0.6937 -1.0139
  177SLPC   H8X20146   6.775   2.736   4.471  0.6627 -2.6731 -0.8483
  177SLPC   H8Y20147   6.933   2.662   4.520  0.0821 -1.4344 -2.0746
  177SLPC   C3920148   6.936   2.761   4.333  0.1860 -0.7888 -0.5128
  177SLPC   H9X20149   6.874   2.823   4.264 -0.5252 -1.3610 -0.4072
  177SLPC   H9Y20150   6.920   2.659   4.292 -2.1624 -0.3429 -0.8331
  177SLPC  C31020151   7.083   2.802   4.324  0.1142 -0.7271 -0.5197
  177SLPC  H10X20152   7.144   2.754   4.403  1.9514  1.9840 -0.1295
  177SLPC  H10Y20153   7.094   2.910   4.351  3.9397 -1.4036  1.3871
  177SLPC  C31120154   7.145   2.760   4.184  0.4994 -0.3247 -0.3770
  177SLPC  H11X20155   7.163   2.650   4.185  3.1510  0.0441  1.1572
  177SLPC  H11Y20156   7.244   2.810   4.173  0.2494  0.3868  0.5040
  177SLPC  C31220157   7.056   2.819   4.071  0.1173  0.6121 -0.4584
  177SLPC  H12X20158   7.024   2.921   4.099 -0.3850  1.1011 -2.6137
  177SLPC  H12Y20159   6.966   2.754   4.073  0.1628  0.5596  0.6710
  177SLPC  C31320160   7.133   2.818   3.941 -0.1514  0.1900  0.1505
  177SLPC  H13X20161   7.206   2.901   3.931  2.2542 -1.7185  0.7713
  177SLPC  H13Y20162   7.054   2.843   3.868  0.1707 -0.0375 -0.2781
  177SLPC  C31420163   7.195   2.671   3.907  0.0489 -1.0559 -0.2482
  177SLPC  H14X20164   7.147   2.583   3.954 -0.6105 -0.7618 -0.3550
  177SLPC  H14Y20165   7.298   2.672   3.950 -0.8211 -0.4856  1.9894
  177SLPC  C31520166   7.206   2.653   3.758  0.2390 -0.1148 -0.0812
  177SLPC  H15X20167   7.104   2.632   3.718  0.4804 -0.0122 -0.7733
  177SLPC  H15Y20168   7.263   2.562   3.728 -2.6201 -1.6882 -1.1810
  177SLPC  C31620169   7.277   2.779   3.686  0.9455  0.7549 -0.0170
  177SLPC  H16X20170   7.385   2.785   3.710  0.7614 -1.5068  1.7513
  177SLPC  H16Y20171   7.225   2.872   3.716 -1.6079 -0.8588  0.9353
  177SLPC  C31720172   7.266   2.771   3.534 -0.4095 -0.0014 -0.5301
  177SLPC  H17X20173   7.300   2.670   3.503 -0.5880  0.0083 -0.7561
  177SLPC  H17Y20174   7.325   2.848   3.480 -0.7460  0.6841  0.0556
  177SLPC  C31820175   7.124   2.784   3.479 -0.1124  0.8545 -0.2123
  177SLPC  H18X20176   7.077   2.882   3.503  2.3389  1.8969  0.5878
  177SLPC  H18Y20177   7.060   2.708   3.528  0.3918 -0.1562 -1.1039
  177SLPC  H18Z20178   7.121   2.767   3.370  1.1084 -0.6035 -0.0431
  178SLPC     N20179   1.643   0.034   6.052 -0.1524  0.0447  0.2892
  178SLPC   C1320180   1.594   0.078   6.181 -0.4119 -0.5662  0.2026
  178SLPC  H13A20181   1.675   0.072   6.252 -0.3090 -0.8995  0.0595
  178SLPC  H13B20182   1.558   0.179   6.193 -1.7998 -1.1721  1.5302
  178SLPC  H13C20183   1.514   0.017   6.221  0.7748 -2.4335 -0.1338
  178SLPC   C1420184   1.701  -0.107   6.069 -0.0914  0.3368 -0.1980
  178SLPC  H14A20185   1.632  -0.187   6.089  1.2381 -1.1975 -1.4327
  178SLPC  H14B20186   1.747  -0.139   5.977  0.8800  0.8626  0.0926
  178SLPC  H14C20187   1.774  -0.108   6.149 -1.2428 -0.9916  0.8956
  178SLPC   C1520188   1.744   0.129   6.003  0.2814 -0.3157  0.8348
  178SLPC  H15A20189   1.698   0.220   5.970  0.8724 -0.4240 -0.3466
  178SLPC  H15B20190   1.816   0.151   6.081  1.8597  2.2262 -1.1586
  178SLPC  H15C20191   1.794   0.084   5.918  2.5137  2.2125  0.6860
  178SLPC   C1220192   1.521   0.028   5.961  0.2250 -0.1438 -0.4688
  178SLPC  H12A20193   1.468   0.122   5.964  0.6435  0.1469 -1.4780
  178SLPC  H12B20194   1.454  -0.042   6.009  1.3106  0.8780  2.7504
  178SLPC   C1120195   1.529  -0.013   5.811 -0.3458 -0.1628  0.8019
  178SLPC  H11A20196   1.425  -0.020   5.773  0.1390  0.9369 -0.8104
  178SLPC  H11B20197   1.577  -0.113   5.811  0.9490  0.4231 -0.7201
  178SLPC     P20198   1.724   0.047   5.640  0.6087 -0.1295  0.1492
  178SLPC   O1320199   1.764   0.178   5.577 -0.2180  0.2896  0.2355
  178SLPC   O1420200   1.832  -0.019   5.717  0.2321  0.1964  0.4780
  178SLPC   O1220201   1.607   0.078   5.734  0.3683  0.1314 -1.0355
  178SLPC   O1120202   1.656  -0.053   5.536 -0.1824 -0.5574 -0.1449
  178SLPC    C120203   1.741  -0.138   5.457 -0.0499 -0.3854 -0.4882
  178SLPC    HA20204   1.786  -0.221   5.515  2.3680 -0.1526 -1.9042
  178SLPC    HB20205   1.683  -0.206   5.390  1.7594 -2.3405 -0.1656
  178SLPC    C220206   1.860  -0.072   5.373 -0.4060 -0.1863 -0.1609
  178SLPC    HS20207   1.916  -0.017   5.452 -0.7353  1.5697 -1.1031
  178SLPC   O2120208   1.804   0.025   5.282 -0.3570  0.2284 -0.0563
  178SLPC   C2120209   1.895   0.121   5.261  0.3840 -0.6459 -0.3168
  178SLPC   O2220210   2.013   0.125   5.291 -0.5512  0.4791  0.2710
  178SLPC   C2220211   1.823   0.247   5.197 -0.0629  0.7141 -0.1577
  178SLPC   H2R20212   1.724   0.254   5.248 -0.8497 -2.2080 -1.0569
  178SLPC   H2S20213   1.889   0.329   5.232 -1.1387  1.0955  1.0451
  178SLPC    C320214   1.951  -0.172   5.307 -1.6513 -0.1670 -0.1160
  178SLPC    HX20215   1.980  -0.241   5.390 -2.2724  2.3708  2.3838
  178SLPC    HY20216   2.039  -0.118   5.266 -0.0506 -0.2856  2.8539
  178SLPC   O3120217   1.875  -0.252   5.211  0.5471  0.0326  0.5754
  178SLPC   C3120218   1.870  -0.209   5.080 -0.2568  0.4933 -0.1638
  178SLPC   O3220219   1.915  -0.112   5.036 -0.0359  0.0114  0.0867
  178SLPC   C3220220   1.802  -0.313   4.999 -0.4861  0.0161  0.6527
  178SLPC   H2X20221   1.720  -0.360   5.058 -1.4642 -1.0971 -1.5163
  178SLPC   H2Y20222   1.878  -0.392   4.982 -0.6780  0.2552 -1.6301
  178SLPC   C2320223   1.823   0.247   5.043  0.1593  0.2237  0.4129
  178SLPC   H3R20224   1.921   0.221   4.998 -0.3866  0.2652 -0.8223
  178SLPC   H3S20225   1.807   0.354   5.015  1.1479 -0.3468 -2.7586
  178SLPC   C2420226   1.710   0.167   4.969 -0.4030  0.3710 -0.1449
  178SLPC   H4R20227   1.615   0.201   5.016 -1.2784 -2.9857  0.7739
  178SLPC   H4S20228   1.724   0.060   4.995  0.0652  0.5115  0.1799
  178SLPC   C2520229   1.718   0.191   4.820 -0.4035  0.5845  0.1375
  178SLPC   H5R20230   1.818   0.151   4.795 -0.7177 -0.0349 -0.1683
  178SLPC   H5S20231   1.717   0.300   4.799 -0.5432  0.2897 -1.5964
  178SLPC   C2620232   1.616   0.125   4.735  0.6475  0.1331  0.4596
  178SLPC   H6R20233   1.514   0.159   4.764  0.9211  2.6994 -1.2402
  178SLPC   H6S20234   1.633   0.016   4.747  2.1270  0.2993  0.0383
  178SLPC   C2720235   1.624   0.162   4.584  0.3393 -0.0715 -0.0423
  178SLPC   H7R20236   1.603   0.271   4.575  0.4567  0.1587  1.9523
  178SLPC   H7S20237   1.547   0.102   4.531 -0.3758 -0.5479  1.4749
  178SLPC   C2820238   1.757   0.123   4.512  0.7285 -0.2192 -0.0199
  178SLPC   H8R20239   1.780   0.014   4.518 -1.3759 -0.7389 -0.5549
  178SLPC   H8S20240   1.838   0.178   4.563  1.2153 -1.7399  0.9221
  178SLPC   C2920241   1.752   0.166   4.368 -0.0957 -0.7134 -0.2387
  178SLPC   H9R20242   1.717   0.271   4.367  1.2265 -0.2446  0.3234
  178SLPC  C21020243   1.804   0.109   4.258 -0.0682 -0.0288 -0.1602
  178SLPC  H10R20244   1.789   0.165   4.165 -0.5324 -0.8924 -0.6103
  178SLPC  C21120245   1.882  -0.016   4.253 -0.1693 -0.1362 -0.1028
  178SLPC  H11R20246   1.937  -0.019   4.350 -0.4137  0.4945  0.0591
  178SLPC  H11S20247   1.963  -0.007   4.178  2.8230 -0.9967  2.7836
  178SLPC  C21220248   1.796  -0.135   4.237 -0.1842 -0.2730 -0.3187
  178SLPC  H12R20249   1.700  -0.133   4.290 -0.1064  1.1207 -0.2045
  178SLPC  C21320250   1.824  -0.236   4.156  0.1913 -0.1328 -0.8336
  178SLPC  H13R20251   1.750  -0.317   4.165 -1.3822  1.3882  0.5485
  178SLPC  C21420252   1.938  -0.263   4.069  0.6912  0.1606 -0.1683
  178SLPC  H14R20253   1.997  -0.351   4.104 -1.4139 -1.6596 -0.9610
  178SLPC  H14S20254   2.010  -0.181   4.049  2.1337 -0.8880  0.5383
  178SLPC  C21520255   1.895  -0.312   3.922 -0.7218  0.0333 -0.4035
  178SLPC  H15R20256   1.825  -0.398   3.930 -2.6900  1.2285 -3.0531
  178SLPC  H15S20257   1.985  -0.350   3.869 -2.1066 -2.8612 -0.8926
  178SLPC  C21620258   1.823  -0.203   3.835 -0.3940 -0.6178 -0.0001
  178SLPC  H16R20259   1.884  -0.112   3.818 -0.2558 -0.7271 -0.0940
  178SLPC  H16S20260   1.737  -0.168   3.896 -1.1405  1.0068 -1.8708
  178SLPC  C21720261   1.773  -0.256   3.703 -0.6254  0.1077 -0.3496
  178SLPC  H17R20262   1.702  -0.177   3.672  1.0127  1.1846 -1.5522
  178SLPC  H17S20263   1.724  -0.352   3.727 -3.0961  0.9087 -1.8819
  178SLPC  C21820264   1.878  -0.272   3.601 -0.2914  0.1224  0.2984
  178SLPC  H18R20265   1.930  -0.177   3.575  0.3774 -0.7606 -1.8269
  178SLPC  H18S20266   1.837  -0.314   3.506  1.1661 -4.3172  1.3937
  178SLPC  H18T20267   1.956  -0.348   3.623  0.1004  0.2392 -0.6437
  178SLPC   C3320268   1.752  -0.270   4.858  0.4851  0.1150 -0.4007
  178SLPC   H3X20269   1.746  -0.159   4.848 -0.7932  0.0479 -0.5774
  178SLPC   H3Y20270   1.646  -0.300   4.844  0.4517  0.5695 -1.1771
  178SLPC   C3420271   1.821  -0.334   4.741 -0.3615  0.3305  0.0246
  178SLPC   H4X20272   1.751  -0.331   4.655  2.0247  1.7732 -1.9888
  178SLPC   H4Y20273   1.845  -0.443   4.748 -1.9785 -0.0170  0.7027
  178SLPC   C3520274   1.949  -0.248   4.704  0.1646  0.4943 -0.1700
  178SLPC   H5X20275   2.019  -0.247   4.791 -1.0022  2.8502  0.8603
  178SLPC   H5Y20276   1.913  -0.143   4.702  1.7001  1.0559  0.0190
  178SLPC   C3620277   2.010  -0.276   4.566 -0.7367 -0.1727 -0.5358
  178SLPC   H6X20278   1.941  -0.249   4.483 -1.8133 -1.9953 -0.2783
  178SLPC   H6Y20279   2.020  -0.386   4.558 -1.1862 -0.1296 -1.9559
  178SLPC   C3720280   2.148  -0.198   4.550 -0.1903  0.4766 -0.3915
  178SLPC   H7X20281   2.213  -0.210   4.639 -0.2951 -0.1603 -0.3982
  178SLPC   H7Y20282   2.113  -0.092   4.547 -1.1852  0.1364 -1.4588
  178SLPC   C3820283   2.223  -0.237   4.423  0.0432  0.4858 -0.5773
  178SLPC   H8X20284   2.155  -0.220   4.337 -0.4810  2.0348  0.1192
  178SLPC   H8Y20285   2.238  -0.348   4.421  2.5050  0.6986  1.0079
  178SLPC   C3920286   2.354  -0.159   4.398 -0.6170  0.3365 -0.5979
  178SLPC   H9X20287   2.433  -0.195   4.468 -1.4246 -0.7518 -0.2181
  178SLPC   H9Y20288   2.329  -0.054   4.422  0.2425  0.6026 -0.8164
  178SLPC  C31020289   2.399  -0.167   4.256 -0.8138 -0.6050 -0.2793
  178SLPC  H10X20290   2.489  -0.102   4.251 -1.9646  1.1572  0.9838
  178SLPC  H10Y20291   2.325  -0.128   4.184 -0.0433 -0.4893 -1.0227
  178SLPC  C31120292   2.430  -0.309   4.214 -0.4444 -0.0693 -0.7879
  178SLPC  H11X20293   2.342  -0.375   4.229  0.5715 -1.2689  0.1003
  178SLPC  H11Y20294   2.504  -0.342   4.290 -1.3406  0.3591  0.3077
  178SLPC  C31220295   2.493  -0.332   4.080  0.1026  0.2239  0.1335
  178SLPC  H12X20296   2.577  -0.262   4.061 -0.2748  0.3404 -1.2668
  178SLPC  H12Y20297   2.407  -0.308   4.014 -0.1104  0.8854  0.6461
  178SLPC  C31320298   2.540  -0.476   4.055  0.5264  0.3651 -0.2920
  178SLPC  H13X20299   2.569  -0.484   3.948 -0.2869 -3.3905 -0.3768
  178SLPC  H13Y20300   2.457  -0.550   4.061  0.3552  0.6010  0.3859
  178SLPC  C31420301   2.682  -0.512   4.109  0.0293 -0.3192 -0.0664
  178SLPC  H14X20302   2.674  -0.506   4.220  2.9932 -1.2550  0.2897
  178SLPC  H14Y20303   2.759  -0.437   4.080  0.1583 -1.1007 -1.8785
  178SLPC  C31520304   2.725  -0.661   4.081 -0.5377  0.4497 -0.4459
  178SLPC  H15X20305   2.832  -0.681   4.102 -0.6610  1.2570  1.0664
  178SLPC  H15Y20306   2.688  -0.688   3.979  0.1041  1.6927 -1.0248
  178SLPC  C31620307   2.650  -0.750   4.187 -0.1354  0.0484  0.4036
  178SLPC  H16X20308   2.542  -0.724   4.181 -0.4145 -1.3064 -1.5825
  178SLPC  H16Y20309   2.698  -0.724   4.284 -1.6283 -1.4199  1.5868
  178SLPC  C31720310   2.660  -0.903   4.171  0.4322  0.4738  0.3120
  178SLPC  H17X20311   2.768  -0.929   4.174  0.6086  1.1279 -0.0694
  178SLPC  H17Y20312   2.626  -0.934   4.069 -3.2384 -0.8754  1.7581
  178SLPC  C31820313   2.587  -0.980   4.280  0.4508  0.1415  0.0146
  178SLPC  H18X20314   2.607  -1.089   4.285  0.8459  0.2593  1.6288
  178SLPC  H18Y20315   2.478  -0.965   4.267  0.7489  2.1546 -0.6964
  178SLPC  H18Z20316   2.620  -0.926   4.371  1.5931 -0.5035 -0.0005
  179SLPC     N20317   3.093   2.123   2.029 -0.0707  1.0078  0.0602
  179SLPC   C1320318   3.186   2.193   2.123 -0.1157 -0.0626  0.2688
  179SLPC  H13A20319   3.223   2.275   2.063  1.6248 -0.1823  1.1125
  179SLPC  H13B20320   3.127   2.222   2.208 -0.4546  0.2881 -0.0818
  179SLPC  H13C20321   3.271   2.133   2.154  0.9951  1.6901  0.7736
  179SLPC   C1420322   3.173   2.094   1.900 -0.3547 -0.0034  0.1185
  179SLPC  H14A20323   3.247   2.016   1.907 -0.5714 -0.1036  1.6680
  179SLPC  H14B20324   3.104   2.060   1.824  0.1476  0.6015 -0.6335
  179SLPC  H14C20325   3.223   2.181   1.858  3.1523 -1.5015  0.8714
  179SLPC   C1520326   2.986   2.220   1.993  0.0376  0.3000  0.0870
  179SLPC  H15A20327   3.040   2.312   1.975 -0.8072  0.8196  0.1858
  179SLPC  H15B20328   2.921   2.189   1.913  1.1688 -2.7784  0.1976
  179SLPC  H15C20329   2.920   2.226   2.078 -2.4380  1.1644 -1.7870
  179SLPC   C1220330   3.046   1.999   2.098 -0.5996  0.2509  0.5421
  179SLPC  H12A20331   3.119   1.920   2.096 -0.3991  0.4427 -0.0479
  179SLPC  H12B20332   2.966   1.956   2.038  0.1025 -1.9525  1.1059
  179SLPC   C1120333   2.975   2.000   2.234  0.2186 -1.0205 -0.3060
  179SLPC  H11A20334   3.041   2.045   2.311 -0.2872 -0.0703 -0.4213
  179SLPC  H11B20335   2.945   1.907   2.288  1.5182 -1.4035 -0.1983
  179SLPC     P20336   2.730   2.068   2.159  0.6002 -0.3592 -0.0925
  179SLPC   O1320337   2.702   2.185   2.071  0.2820 -1.3535 -0.5509
  179SLPC   O1420338   2.738   1.936   2.083  0.7217  0.4330 -1.2093
  179SLPC   O1220339   2.869   2.087   2.232  0.3790 -0.1320  0.0802
  179SLPC   O1120340   2.620   2.065   2.276 -0.0697 -0.1206  0.0095
  179SLPC    C120341   2.650   2.055   2.410  0.0237  0.4682 -0.4338
  179SLPC    HA20342   2.561   2.012   2.458  0.2515  1.1874  0.6657
  179SLPC    HB20343   2.734   1.985   2.432 -0.3802 -0.1998 -0.9722
  179SLPC    C220344   2.675   2.195   2.475  0.1511 -0.1647 -0.0229
  179SLPC    HS20345   2.735   2.267   2.415  0.1381 -0.8344 -0.8500
  179SLPC   O2120346   2.739   2.156   2.602 -0.0607 -0.4953 -0.3692
  179SLPC   C2120347   2.854   2.221   2.642  0.7366 -0.0593  0.2252
  179SLPC   O2220348   2.911   2.304   2.576  0.2416 -0.0869  0.2097
  179SLPC   C2220349   2.911   2.149   2.765  0.3242 -0.3203 -0.2156
  179SLPC   H2R20350   2.844   2.147   2.854  0.8291 -0.2587  0.1728
  179SLPC   H2S20351   2.928   2.044   2.732  1.5955 -0.5174  0.9497
  179SLPC    C320352   2.549   2.275   2.510  0.3688 -0.1801  0.6762
  179SLPC    HX20353   2.470   2.214   2.559  0.5150  0.3185  1.5553
  179SLPC    HY20354   2.506   2.307   2.412 -0.8537 -1.0259  0.9138
  179SLPC   O3120355   2.586   2.390   2.593  0.3142 -0.0014 -0.7488
  179SLPC   C3120356   2.525   2.507   2.570  0.2010 -0.3088 -0.1156
  179SLPC   O3220357   2.450   2.525   2.472  0.0029 -0.5337 -1.0568
  179SLPC   C3220358   2.535   2.608   2.683  0.4895  0.4648 -0.0727
  179SLPC   H2X20359   2.461   2.688   2.663  0.7486  0.2700 -2.0455
  179SLPC   H2Y20360   2.635   2.655   2.674 -0.2906  2.0308 -1.0274
  179SLPC   C2320361   3.056   2.205   2.808  0.0951  0.1270  0.3613
  179SLPC   H3R20362   3.045   2.305   2.857  0.1893  0.5939 -0.5577
  179SLPC   H3S20363   3.114   2.212   2.714 -2.8451 -2.2804 -1.8459
  179SLPC   C2420364   3.134   2.114   2.903  0.7577  0.4377 -0.2247
  179SLPC   H4R20365   3.118   2.013   2.860  1.9730  0.6742 -1.3207
  179SLPC   H4S20366   3.085   2.129   3.001 -1.0222  0.1746 -1.0400
  179SLPC   C2520367   3.277   2.152   2.927 -0.6372  0.0630  0.5463
  179SLPC   H5R20368   3.268   2.256   2.965  2.9668  0.8377 -0.3175
  179SLPC   H5S20369   3.330   2.144   2.830 -3.1354 -0.7251 -0.8285
  179SLPC   C2620370   3.351   2.068   3.034  0.0000 -0.2034  0.3622
  179SLPC   H6R20371   3.364   1.965   2.995  1.1490 -0.3847  1.1590
  179SLPC   H6S20372   3.286   2.059   3.123 -1.3621 -4.1494 -0.8485
  179SLPC   C2720373   3.490   2.135   3.072 -0.2359 -0.1049  0.3104
  179SLPC   H7R20374   3.490   2.245   3.054  2.4338  0.3099  2.1553
  179SLPC   H7S20375   3.560   2.102   2.992 -2.5225 -1.3091 -1.3029
  179SLPC   C2820376   3.539   2.108   3.213 -0.1560 -0.5321  0.4379
  179SLPC   H8R20377   3.472   2.161   3.285 -1.7245 -1.7972 -0.0316
  179SLPC   H8S20378   3.646   2.136   3.228  0.3868 -1.8725 -0.7188
  179SLPC   C2920379   3.532   1.962   3.234  0.1682 -0.0968 -0.0369
  179SLPC   H9R20380   3.533   1.909   3.138 -0.4798  0.6014 -0.4419
  179SLPC  C21020381   3.516   1.896   3.349  0.0121 -0.3606  0.5473
  179SLPC  H10R20382   3.486   1.790   3.343 -0.4822 -0.3425  2.2460
  179SLPC  C21120383   3.523   1.961   3.480  0.0357 -0.9030 -0.1012
  179SLPC  H11R20384   3.547   2.070   3.478 -1.0403 -0.6325  0.6633
  179SLPC  H11S20385   3.600   1.912   3.543  0.0684 -0.2846  0.3539
  179SLPC  C21220386   3.388   1.952   3.544  0.8450  0.8541  0.0570
  179SLPC  H12R20387   3.306   1.997   3.487 -1.0820 -0.6353  1.5203
  179SLPC  C21320388   3.369   1.893   3.661  0.1155  0.1034 -0.1329
  179SLPC  H13R20389   3.263   1.883   3.690  0.1008 -0.1012 -0.2577
  179SLPC  C21420390   3.459   1.821   3.757 -0.0286 -0.4371  0.3705
  179SLPC  H14R20391   3.561   1.807   3.717  0.0346  0.7436  0.0716
  179SLPC  H14S20392   3.423   1.717   3.772  1.8713 -1.2182 -0.2618
  179SLPC  C21520393   3.482   1.887   3.892 -0.5702  0.0830  0.2106
  179SLPC  H15R20394   3.529   1.985   3.869 -1.0856 -0.1401 -2.1142
  179SLPC  H15S20395   3.556   1.828   3.949 -0.3241 -1.0481 -1.2056
  179SLPC  C21620396   3.346   1.912   3.977  0.3246  0.1759  0.4987
  179SLPC  H16R20397   3.301   1.817   4.012 -0.0403  0.2793  0.3133
  179SLPC  H16S20398   3.273   1.948   3.901  0.4658  1.6061  1.0123
  179SLPC  C21720399   3.358   2.007   4.097 -0.6789  0.9846 -0.4510
  179SLPC  H17R20400   3.445   1.981   4.162 -1.5693 -0.0862  0.3503
  179SLPC  H17S20401   3.260   2.000   4.148 -1.2857 -1.5707 -1.8120
  179SLPC  C21820402   3.379   2.150   4.054  0.4670 -0.0850 -0.5536
  179SLPC  H18R20403   3.313   2.190   3.973 -2.5939  1.0331  2.2431
  179SLPC  H18S20404   3.484   2.177   4.031  1.2797 -2.7564 -0.3388
  179SLPC  H18T20405   3.347   2.223   4.132  0.5081  0.1339 -0.7421
  179SLPC   C3320406   2.509   2.553   2.827  0.0758  0.0368 -0.6287
  179SLPC   H3X20407   2.582   2.477   2.860  0.0170  0.2554  0.0296
  179SLPC   H3Y20408   2.414   2.499   2.807  0.3370 -0.4207 -0.6494
  179SLPC   C3420409   2.500   2.665   2.940  0.1854 -0.1994 -0.0940
  179SLPC   H4X20410   2.415   2.735   2.932 -0.5446 -0.9077  1.1252
  179SLPC   H4Y20411   2.587   2.735   2.935 -0.3619  0.5471  0.6382
  179SLPC   C3520412   2.484   2.593   3.078  0.0717 -0.2732  0.0943
  179SLPC   H5X20413   2.397   2.525   3.065 -0.4140 -0.1877  2.4101
  179SLPC   H5Y20414   2.574   2.532   3.100  1.0980  1.2018  0.1166
  179SLPC   C3620415   2.472   2.688   3.197 -0.2861 -0.0745  0.3721
  179SLPC   H6X20416   2.535   2.775   3.171 -2.0411  1.3303  0.6153
  179SLPC   H6Y20417   2.518   2.653   3.292 -2.4858 -0.9882  1.1684
  179SLPC   C3720418   2.331   2.726   3.218  0.1730 -0.3281 -0.4303
  179SLPC   H7X20419   2.279   2.643   3.271 -0.6234  1.8708  2.4908
  179SLPC   H7Y20420   2.280   2.731   3.119  1.2387 -1.6762 -1.0725
  179SLPC   C3820421   2.309   2.859   3.290 -0.5926  0.6443  0.9040
  179SLPC   H8X20422   2.356   2.858   3.390 -0.0214  2.6903  0.7039
  179SLPC   H8Y20423   2.198   2.863   3.301 -1.1954 -1.7770 -2.5518
  179SLPC   C3920424   2.360   2.976   3.193  0.1291  0.0287 -0.3424
  179SLPC   H9X20425   2.295   2.967   3.103 -1.1155  1.0653  0.4113
  179SLPC   H9Y20426   2.466   2.957   3.165  0.0904 -0.7583  0.0255
  179SLPC  C31020427   2.346   3.114   3.259  0.0802 -0.1797  0.0172
  179SLPC  H10X20428   2.243   3.122   3.301 -0.1038 -0.7850 -0.3149
  179SLPC  H10Y20429   2.364   3.196   3.186 -0.8017  1.3511  1.4507
  179SLPC  C31120430   2.437   3.124   3.392 -0.0217 -0.2158  0.0919
  179SLPC  H11X20431   2.540   3.115   3.352 -0.2985 -2.9865 -0.1830
  179SLPC  H11Y20432   2.417   3.043   3.465 -2.9569 -0.3536 -0.7515
  179SLPC  C31220433   2.420   3.265   3.457 -0.0190 -0.2825 -0.3380
  179SLPC  H12X20434   2.311   3.284   3.472  0.0596 -0.1836  0.1372
  179SLPC  H12Y20435   2.452   3.337   3.379  1.2693 -1.6101 -1.0665
  179SLPC  C31320436   2.490   3.278   3.594 -0.3488 -0.2725  1.3129
  179SLPC  H13X20437   2.600   3.289   3.581 -0.0661 -2.3235  1.5521
  179SLPC  H13Y20438   2.475   3.195   3.666 -0.4432  0.6905  2.4448
  179SLPC  C31420439   2.457   3.407   3.671 -0.0559 -0.2299  0.0748
  179SLPC  H14X20440   2.346   3.409   3.681  0.0632 -0.5030  1.6489
  179SLPC  H14Y20441   2.489   3.490   3.604  0.8679 -0.9279 -0.3718
  179SLPC  C31520442   2.508   3.417   3.810 -0.3399 -0.5533  0.1364
  179SLPC  H15X20443   2.476   3.507   3.866  0.3788 -0.2891  0.1240
  179SLPC  H15Y20444   2.619   3.425   3.807 -0.4390  0.9582 -0.0859
  179SLPC  C31620445   2.474   3.302   3.910  0.6392 -0.5581 -0.2228
  179SLPC  H16X20446   2.500   3.202   3.869 -0.6290 -0.6058 -0.9574
  179SLPC  H16Y20447   2.364   3.318   3.902  0.7781  1.5347  1.3345
  179SLPC  C31720448   2.532   3.320   4.057  0.1878  0.2113 -0.3101
  179SLPC  H17X20449   2.534   3.428   4.082 -1.8695 -0.0272  1.1239
  179SLPC  H17Y20450   2.632   3.272   4.063  0.8090  1.5182  0.1133
  179SLPC  C31820451   2.449   3.250   4.165  0.1358  0.0701  1.1152
  179SLPC  H18X20452   2.485   3.276   4.267 -0.8661 -1.3472  1.8581
  179SLPC  H18Y20453   2.451   3.139   4.159 -0.5526  0.0199  1.6614
  179SLPC  H18Z20454   2.344   3.284   4.154  0.1547 -0.2253 -0.1652
  180SLPC     N20455   2.719   3.298   1.848 -0.4023 -0.6178 -0.3203
  180SLPC   C1320456   2.720   3.440   1.798 -0.0813  0.3104  0.6067
  180SLPC  H13A20457   2.626   3.487   1.821 -0.3646  0.3409 -0.5722
  180SLPC  H13B20458   2.788   3.507   1.848 -0.6297  0.7690  0.7475
  180SLPC  H13C20459   2.734   3.441   1.691 -0.6081  0.8037  0.5382
  180SLPC   C1420460   2.677   3.305   1.987  0.1562  0.1599  0.1343
  180SLPC  H14A20461   2.697   3.212   2.039  0.1700  0.1535  0.1179
  180SLPC  H14B20462   2.739   3.369   2.049  1.8534 -1.7322  0.5054
  180SLPC  H14C20463   2.577   3.345   1.992 -0.1611 -0.3715 -1.3458
  180SLPC   C1520464   2.858   3.258   1.839  0.3482  0.2351 -0.3232
  180SLPC  H15A20465   2.926   3.292   1.915  1.7476 -3.2247  0.1536
  180SLPC  H15B20466   2.871   3.151   1.833  0.0787  0.2276 -0.7958
  180SLPC  H15C20467   2.887   3.292   1.741 -1.6218  1.5301 -0.4988
  180SLPC   C1220468   2.634   3.212   1.761 -0.1698  0.0118  0.3081
  180SLPC  H12A20469   2.666   3.112   1.787  1.3739  0.4581  0.2639
  180SLPC  H12B20470   2.653   3.233   1.657 -2.1049  0.3788 -0.0051
  180SLPC   C1120471   2.479   3.221   1.783 -1.0490 -0.2871  0.1720
  180SLPC  H11A20472   2.447   3.204   1.888 -1.8325 -1.3957 -0.2246
  180SLPC  H11B20473   2.441   3.140   1.717  2.7148 -0.6053 -1.8954
  180SLPC     P20474   2.344   3.449   1.830 -0.2243  0.0811 -0.2876
  180SLPC   O1320475   2.394   3.583   1.805 -0.1405 -0.3647  0.7958
  180SLPC   O1420476   2.203   3.418   1.798  0.3944 -0.5946  0.6875
  180SLPC   O1220477   2.429   3.347   1.736 -0.3927 -0.0340  0.0669
  180SLPC   O1120478   2.377   3.407   1.984  0.2511 -0.0903 -0.0858
  180SLPC    C120479   2.357   3.479   2.104  0.0948 -0.2548 -0.0507
  180SLPC    HA20480   2.438   3.444   2.171  0.5875 -0.5532 -0.7980
  180SLPC    HB20481   2.357   3.587   2.079  2.5507 -0.1864  0.0651
  180SLPC    C220482   2.219   3.441   2.160 -0.1031  0.1055 -0.8463
  180SLPC    HS20483   2.153   3.415   2.075 -2.8895  0.8281  0.9711
  180SLPC   O2120484   2.164   3.561   2.218  0.3653 -0.4231  0.4696
  180SLPC   C2120485   2.031   3.548   2.244 -0.2957  0.5942 -0.3125
  180SLPC   O2220486   1.962   3.455   2.209  0.1526 -0.5600  0.0676
  180SLPC   C2220487   1.981   3.673   2.318  0.2460 -0.5859 -0.6315
  180SLPC   H2R20488   2.064   3.712   2.381  0.4348  0.1828 -1.3356
  180SLPC   H2S20489   1.963   3.749   2.239  1.1419 -0.7558 -1.0166
  180SLPC    C320490   2.229   3.312   2.251  0.0179  0.1138  0.3170
  180SLPC    HX20491   2.284   3.235   2.194  0.6597  0.8536 -0.0755
  180SLPC    HY20492   2.128   3.266   2.264 -0.2148  1.1413  2.5159
  180SLPC   O3120493   2.302   3.334   2.368 -0.3027  0.1735  0.4265
  180SLPC   C3120494   2.216   3.375   2.469 -0.0352  0.8881 -0.2010
  180SLPC   O3220495   2.097   3.356   2.472 -0.0850 -0.2203 -0.4308
  180SLPC   C3220496   2.304   3.434   2.590  0.3139 -0.1829  0.5147
  180SLPC   H2X20497   2.339   3.533   2.554 -1.8498  0.5755  0.3815
  180SLPC   H2Y20498   2.403   3.384   2.601  0.6376  0.3982  0.2757
  180SLPC   C2320499   1.860   3.646   2.407 -0.3336 -0.1239  0.7210
  180SLPC   H3R20500   1.869   3.559   2.476  4.0899  0.0249  0.5776
  180SLPC   H3S20501   1.774   3.633   2.338 -0.2112 -0.0402  0.5509
  180SLPC   C2420502   1.834   3.761   2.508 -0.5161  0.1413  0.6436
  180SLPC   H4R20503   1.745   3.739   2.570 -1.0543  0.5796  0.0451
  180SLPC   H4S20504   1.822   3.856   2.452 -1.7817 -0.1682  0.3440
  180SLPC   C2520505   1.947   3.772   2.615  0.4368  0.1647 -0.1622
  180SLPC   H5R20506   2.043   3.800   2.565 -0.3794  0.8346 -1.4270
  180SLPC   H5S20507   1.969   3.674   2.661  0.9566  0.3499 -0.0058
  180SLPC   C2620508   1.911   3.863   2.732  0.0673 -0.3246 -0.0584
  180SLPC   H6R20509   1.993   3.853   2.807  0.1485 -0.8494 -0.2157
  180SLPC   H6S20510   1.818   3.832   2.785 -1.2373  2.7968 -0.3243
  180SLPC   C2720511   1.896   4.019   2.703 -0.0112  0.1884  0.9084
  180SLPC   H7R20512   1.820   4.036   2.624 -0.0411  0.1832  0.9362
  180SLPC   H7S20513   1.990   4.058   2.658 -1.0263  0.0848 -1.4540
  180SLPC   C2820514   1.878   4.098   2.829  0.0761 -0.8116  0.0746
  180SLPC   H8R20515   1.879   4.199   2.782  0.5228  0.1508  2.0264
  180SLPC   H8S20516   1.971   4.087   2.889 -0.1409  2.1756  1.1303
  180SLPC   C2920517   1.748   4.065   2.895 -0.5144  0.4215  0.5422
  180SLPC   H9R20518   1.669   4.096   2.825  0.1779 -0.2568 -0.5853
  180SLPC  C21020519   1.725   4.001   3.013  0.3265  0.5542 -0.1151
  180SLPC  H10R20520   1.622   3.977   3.046  0.8751  0.6268  1.7806
  180SLPC  C21120521   1.829   3.951   3.105 -0.6610 -0.4553 -0.0750
  180SLPC  H11R20522   1.870   4.039   3.157 -0.5753 -1.5260  1.7802
  180SLPC  H11S20523   1.912   3.902   3.050 -0.7674  0.6322 -1.2508
  180SLPC  C21220524   1.775   3.867   3.224 -0.0776 -0.5379  0.8304
  180SLPC  H12R20525   1.716   3.929   3.294  0.8041  2.5274 -0.9861
  180SLPC  C21320526   1.789   3.731   3.240 -0.2489  0.0524 -0.8425
  180SLPC  H13R20527   1.741   3.677   3.322 -0.9776 -0.4278 -1.5691
  180SLPC  C21420528   1.865   3.638   3.152 -0.3644 -0.2585 -0.3212
  180SLPC  H14R20529   1.921   3.562   3.210 -0.2663 -0.5898 -0.8477
  180SLPC  H14S20530   1.936   3.703   3.095 -0.4256 -0.3212 -0.4694
  180SLPC  C21520531   1.784   3.570   3.046  0.0915 -0.6670 -0.0701
  180SLPC  H15R20532   1.717   3.647   3.002 -3.1226 -2.4136  1.4014
  180SLPC  H15S20533   1.718   3.497   3.098 -1.3982  1.0941  0.6116
  180SLPC  C21620534   1.878   3.507   2.939  0.3276  0.4996  0.5373
  180SLPC  H16R20535   1.966   3.459   2.986  0.9264 -0.9966 -1.9243
  180SLPC  H16S20536   1.917   3.581   2.866 -0.4170 -1.5598 -2.1016
  180SLPC  C21720537   1.799   3.414   2.846  0.1427  0.0499  0.1077
  180SLPC  H17R20538   1.707   3.468   2.815 -0.1597  1.4647  3.1500
  180SLPC  H17S20539   1.760   3.334   2.913  0.4766 -0.6107 -0.4707
  180SLPC  C21820540   1.872   3.358   2.728 -0.5679  0.6013  0.4390
  180SLPC  H18R20541   1.974   3.320   2.747 -0.6636  0.9832  1.8020
  180SLPC  H18S20542   1.892   3.445   2.662 -1.0133 -0.6607 -1.4324
  180SLPC  H18T20543   1.813   3.279   2.676 -0.1534  1.6457 -1.7449
  180SLPC   C3320544   2.238   3.420   2.722  0.2013 -0.0764 -0.7234
  180SLPC   H3X20545   2.208   3.317   2.749  0.2003 -0.1890 -1.1372
  180SLPC   H3Y20546   2.148   3.486   2.721  0.6364  0.6423  1.8611
  180SLPC   C3420547   2.342   3.450   2.837  0.0087  0.5726  0.1880
  180SLPC   H4X20548   2.414   3.529   2.809  3.1981 -2.3095 -0.4001
  180SLPC   H4Y20549   2.403   3.358   2.850  0.6331  1.0628  0.8450
  180SLPC   C3520550   2.268   3.472   2.976 -0.1096  0.3054  0.2252
  180SLPC   H5X20551   2.335   3.442   3.059  0.3130  2.0001  0.5352
  180SLPC   H5Y20552   2.174   3.414   2.988  0.0851  0.1658  1.1480
  180SLPC   C3620553   2.228   3.622   2.989 -0.2609  0.1219  0.2235
  180SLPC   H6X20554   2.126   3.627   2.944 -0.3542  0.1845  0.4423
  180SLPC   H6Y20555   2.300   3.692   2.941 -0.4624  0.6827  0.7398
  180SLPC   C3720556   2.233   3.674   3.134  0.0054 -0.0724  0.6735
  180SLPC   H7X20557   2.189   3.596   3.200  1.7968 -1.2547  0.5297
  180SLPC   H7Y20558   2.165   3.762   3.139  1.0156  0.7974 -0.4629
  180SLPC   C3820559   2.375   3.717   3.162 -0.1425 -0.3723 -0.4250
  180SLPC   H8X20560   2.419   3.787   3.087  1.3820  0.6239  1.3177
  180SLPC   H8Y20561   2.448   3.634   3.155  0.9050  0.4851 -0.0532
  180SLPC   C3920562   2.395   3.785   3.299 -0.4727  0.5000  0.4092
  180SLPC   H9X20563   2.342   3.733   3.381  2.4121 -1.6738  1.0837
  180SLPC   H9Y20564   2.365   3.891   3.285  1.1991  0.7741 -1.6093
  180SLPC  C31020565   2.544   3.791   3.329  0.5728  0.3843 -0.5804
  180SLPC  H10X20566   2.602   3.823   3.240 -1.8602 -0.8276 -2.6992
  180SLPC  H10Y20567   2.581   3.691   3.359 -1.2673 -0.3757 -0.7201
  180SLPC  C31120568   2.560   3.878   3.454 -0.1771 -0.3208 -0.7099
  180SLPC  H11X20569   2.488   3.963   3.456  2.2885  1.8953 -0.3978
  180SLPC  H11Y20570   2.660   3.926   3.454 -1.2592  2.2021 -2.8846
  180SLPC  C31220571   2.530   3.798   3.584  0.1679 -0.1675  0.5252
  180SLPC  H12X20572   2.586   3.703   3.576  1.0002  0.4663 -1.7900
  180SLPC  H12Y20573   2.425   3.768   3.603  0.6879 -1.2671  1.8547
  180SLPC  C31320574   2.581   3.876   3.700 -0.0239  0.0624  0.5716
  180SLPC  H13X20575   2.538   3.978   3.698  0.2844  0.1964 -0.7229
  180SLPC  H13Y20576   2.693   3.877   3.698  0.0442 -2.0267  0.8736
  180SLPC  C31420577   2.538   3.809   3.834 -0.3163  0.9163  0.0719
  180SLPC  H14X20578   2.591   3.712   3.851 -1.5015  0.3183  0.4685
  180SLPC  H14Y20579   2.429   3.794   3.818 -0.5044 -0.2250  1.9887
  180SLPC  C31520580   2.551   3.896   3.956  0.6116 -0.0353  0.0641
  180SLPC  H15X20581   2.637   3.961   3.930  0.3200 -0.5685 -2.4558
  180SLPC  H15Y20582   2.593   3.830   4.035  0.5234 -1.1992 -0.8261
  180SLPC  C31620583   2.424   3.978   3.984  0.0311  0.3987 -0.4949
  180SLPC  H16X20584   2.355   3.908   4.035  2.1811 -0.2557  1.7292
  180SLPC  H16Y20585   2.396   4.031   3.891 -0.7669 -1.4729 -1.3589
  180SLPC  C31720586   2.444   4.080   4.094  0.3808  0.0366 -0.1570
  180SLPC  H17X20587   2.362   4.155   4.087 -0.2642 -0.7777 -2.3091
  180SLPC  H17Y20588   2.540   4.135   4.085  0.8991 -0.8997 -0.4359
  180SLPC  C31820589   2.441   4.029   4.237 -0.0883  0.2217 -0.3454
  180SLPC  H18X20590   2.484   4.103   4.308  0.3109  0.0919 -0.4462
  180SLPC  H18Y20591   2.499   3.934   4.237  0.1043  0.3398 -0.2733
  180SLPC  H18Z20592   2.337   4.008   4.269  0.1992 -0.2893  0.2744
  181SLPC     N20593   1.450   1.707   1.975 -0.4404 -0.2206 -0.0934
  181SLPC   C1320594   1.511   1.586   2.036  0.0625  0.3991  0.1352
  181SLPC  H13A20595   1.575   1.597   2.123 -1.8294  1.0966  1.4936
  181SLPC  H13B20596   1.438   1.513   2.068  1.9447 -2.2719 -1.2987
  181SLPC  H13C20597   1.567   1.534   1.959  0.8740  1.1255  0.2179
  181SLPC   C1420598   1.355   1.674   1.865 -0.2354  0.3878  0.2024
  181SLPC  H14A20599   1.390   1.614   1.783 -0.9450  3.1220 -2.2557
  181SLPC  H14B20600   1.273   1.616   1.904 -1.3254 -0.4605 -3.0949
  181SLPC  H14C20601   1.315   1.764   1.821 -1.6261  0.3406  1.2918
  181SLPC   C1520602   1.561   1.788   1.916  0.5040 -0.2370 -0.3315
  181SLPC  H15A20603   1.616   1.839   1.994 -0.1015 -0.4164  0.2261
  181SLPC  H15B20604   1.620   1.730   1.846  0.3614 -3.4895  2.0024
  181SLPC  H15C20605   1.514   1.866   1.858 -0.9102 -2.2770 -2.0837
  181SLPC   C1220606   1.377   1.794   2.075 -0.3446  0.1691 -0.0089
  181SLPC  H12A20607   1.300   1.736   2.122 -0.1830  0.0723  0.1373
  181SLPC  H12B20608   1.331   1.877   2.023  0.4038 -0.1802 -1.2725
  181SLPC   C1120609   1.467   1.857   2.184  0.9675  0.3453  0.9368
  181SLPC  H11A20610   1.537   1.776   2.214  0.7448  0.7865  2.7781
  181SLPC  H11B20611   1.410   1.872   2.278 -0.5482  0.2348  0.0629
  181SLPC     P20612   1.488   2.116   2.155 -0.3183  0.0190 -0.2700
  181SLPC   O1320613   1.577   2.182   2.254 -0.1264 -0.1406  0.5744
  181SLPC   O1420614   1.468   2.171   2.021  1.0862  0.0864 -0.1012
  181SLPC   O1220615   1.548   1.970   2.134  0.2275  0.0535 -0.6191
  181SLPC   O1120616   1.345   2.091   2.219 -0.7949 -0.4523  0.4950
  181SLPC    C120617   1.270   2.183   2.290 -0.7511  0.1793 -0.8652
  181SLPC    HA20618   1.323   2.278   2.310 -1.0175 -0.0628  1.1374
  181SLPC    HB20619   1.179   2.208   2.231 -0.9414 -0.9507 -1.0761
  181SLPC    C220620   1.220   2.130   2.427  0.4187  0.5178 -0.8003
  181SLPC    HS20621   1.157   2.210   2.471  0.8724 -0.1426  1.1504
  181SLPC   O2120622   1.335   2.101   2.512  0.1672  0.1180 -0.2070
  181SLPC   C2120623   1.400   2.204   2.547 -0.7503 -0.0958 -0.3418
  181SLPC   O2220624   1.361   2.319   2.536 -0.2326 -0.1426  0.7779
  181SLPC   C2220625   1.532   2.161   2.624  1.1203 -0.4859  0.0182
  181SLPC   H2R20626   1.489   2.133   2.723 -0.0919  1.6469  0.1475
  181SLPC   H2S20627   1.582   2.078   2.569  1.6875 -0.5223  0.5668
  181SLPC    C320628   1.138   2.003   2.419  0.3118 -0.0109  0.8295
  181SLPC    HX20629   1.059   2.017   2.342 -0.7476 -0.9806  1.7060
  181SLPC    HY20630   1.075   1.999   2.510 -1.9430 -2.5428 -0.7027
  181SLPC   O3120631   1.216   1.891   2.392 -0.3498 -0.6125 -0.2860
  181SLPC   C3120632   1.179   1.773   2.457  0.0638 -0.6459  0.0694
  181SLPC   O3220633   1.074   1.761   2.513  0.4394 -0.0517  0.1928
  181SLPC   C3220634   1.278   1.652   2.439  0.0683 -0.0034 -0.3881
  181SLPC   H2X20635   1.303   1.646   2.330 -0.7118  1.4888 -0.6840
  181SLPC   H2Y20636   1.246   1.556   2.482 -0.7676  0.7987  0.8444
  181SLPC   C2320637   1.628   2.275   2.647 -0.1579 -0.3785 -0.2195
  181SLPC   H3R20638   1.649   2.334   2.556 -0.3983  1.1231  0.6587
  181SLPC   H3S20639   1.721   2.222   2.679  0.8010  0.3633 -1.6431
  181SLPC   C2420640   1.591   2.375   2.761  0.2141  1.0653  0.7130
  181SLPC   H4R20641   1.483   2.399   2.765 -0.2809 -0.9107  0.3604
  181SLPC   H4S20642   1.644   2.469   2.736 -1.6808  1.9699 -0.0184
  181SLPC   C2520643   1.637   2.325   2.890 -0.3423  0.6407 -0.1875
  181SLPC   H5R20644   1.746   2.311   2.907 -0.7306 -2.3115  0.3773
  181SLPC   H5S20645   1.589   2.227   2.911  0.7626  0.1594  0.2157
  181SLPC   C2620646   1.586   2.410   3.017 -0.9764  0.1033  0.3237
  181SLPC   H6R20647   1.476   2.411   3.028 -1.5109  1.2925 -3.5901
  181SLPC   H6S20648   1.619   2.515   3.002 -1.3263  0.0069 -1.4054
  181SLPC   C2720649   1.663   2.357   3.139  0.8676  0.3724  0.0751
  181SLPC   H7R20650   1.771   2.376   3.121  0.8502 -1.6298 -2.9601
  181SLPC   H7S20651   1.650   2.247   3.149  0.7262  0.4557  0.8856
  181SLPC   C2820652   1.620   2.431   3.266 -0.5262  0.5203  0.1498
  181SLPC   H8R20653   1.518   2.397   3.294 -0.7918 -0.1722 -1.5472
  181SLPC   H8S20654   1.610   2.540   3.249 -2.0118  0.8131  2.5147
  181SLPC   C2920655   1.722   2.414   3.383 -1.3843  0.6967  0.4919
  181SLPC   H9R20656   1.818   2.461   3.359 -2.2689  1.6084 -1.5163
  181SLPC  C21020657   1.701   2.346   3.502  0.1580  0.0167 -0.6418
  181SLPC  H10R20658   1.783   2.341   3.575 -0.2982  2.3021  0.1045
  181SLPC  C21120659   1.575   2.283   3.548  0.1322  0.1329  0.8145
  181SLPC  H11R20660   1.603   2.176   3.557  2.0139  0.6441  1.5958
  181SLPC  H11S20661   1.494   2.281   3.471  0.3864 -0.5157  0.5607
  181SLPC  C21220662   1.523   2.334   3.679 -0.8026  0.0350 -0.5491
  181SLPC  H12R20663   1.435   2.399   3.664 -0.3717  0.6143 -0.6053
  181SLPC  C21320664   1.560   2.316   3.804 -0.1964  0.4046  0.0526
  181SLPC  H13R20665   1.502   2.377   3.876 -2.2729  0.7137 -1.7862
  181SLPC  C21420666   1.674   2.225   3.838 -0.3519 -0.3494 -0.2202
  181SLPC  H14R20667   1.735   2.286   3.907 -0.6368 -0.6957  0.3495
  181SLPC  H14S20668   1.736   2.198   3.750  0.1290  0.9651 -0.2999
  181SLPC  C21520669   1.638   2.094   3.913 -0.2396 -0.0677 -0.0070
  181SLPC  H15R20670   1.552   2.117   3.978 -0.0732  3.2238 -0.8040
  181SLPC  H15S20671   1.733   2.079   3.969 -0.8870  0.7749  1.3377
  181SLPC  C21620672   1.595   1.981   3.819  1.0698 -0.7371 -0.4695
  181SLPC  H16R20673   1.681   1.954   3.755  2.2463 -3.4300  1.9727
  181SLPC  H16S20674   1.509   2.021   3.761  1.0855 -1.4580 -1.0097
  181SLPC  C21720675   1.556   1.850   3.881  0.0006  0.1215 -0.7822
  181SLPC  H17R20676   1.468   1.870   3.946  0.3661  2.2760 -0.8798
  181SLPC  H17S20677   1.645   1.813   3.935 -0.4297 -0.6486 -0.5776
  181SLPC  C21820678   1.518   1.741   3.779 -0.7233 -0.3517 -0.3985
  181SLPC  H18R20679   1.454   1.663   3.824  1.1660 -2.7843 -1.7055
  181SLPC  H18S20680   1.605   1.701   3.723 -0.8518  0.2544 -1.0504
  181SLPC  H18T20681   1.457   1.790   3.699 -1.7413 -0.9756 -0.0214
  181SLPC   C3320682   1.404   1.693   2.515  0.2644  0.2330  0.1678
  181SLPC   H3X20683   1.427   1.802   2.510 -0.8914  0.4581 -0.5882
  181SLPC   H3Y20684   1.487   1.633   2.471 -1.0463 -2.9316  1.7133
  181SLPC   C3420685   1.412   1.651   2.658  0.3501  0.6715 -0.0054
  181SLPC   H4X20686   1.503   1.698   2.701 -1.0425  2.6378  0.9856
  181SLPC   H4Y20687   1.416   1.540   2.663 -1.4234  0.4410 -2.1543
  181SLPC   C3520688   1.299   1.698   2.757 -0.0864  0.2519 -0.4246
  181SLPC   H5X20689   1.204   1.673   2.705 -0.1702 -0.4602  0.0592
  181SLPC   H5Y20690   1.303   1.809   2.767  1.1844  0.0129  3.7499
  181SLPC   C3620691   1.315   1.647   2.904 -0.2445 -0.3959 -0.1035
  181SLPC   H6X20692   1.282   1.541   2.908  1.6931 -1.0057  1.7915
  181SLPC   H6Y20693   1.237   1.705   2.958 -0.5122 -0.4033 -0.4783
  181SLPC   C3720694   1.450   1.676   2.966 -0.0598  0.2266  0.0479
  181SLPC   H7X20695   1.465   1.785   2.975  0.2592  0.0763  1.4978
  181SLPC   H7Y20696   1.540   1.628   2.920 -1.4310 -2.5744  0.0289
  181SLPC   C3820697   1.450   1.622   3.115 -0.1054 -0.4270  1.7229
  181SLPC   H8X20698   1.424   1.515   3.126 -2.4617  0.1881  2.7032
  181SLPC   H8Y20699   1.362   1.666   3.167 -1.0187 -0.6234  0.4158
  181SLPC   C3920700   1.585   1.663   3.174  0.1393 -0.0335 -0.7021
  181SLPC   H9X20701   1.607   1.770   3.153  1.5368 -0.2664 -0.5073
  181SLPC   H9Y20702   1.673   1.614   3.128  0.5132 -0.6199  0.6093
  181SLPC  C31020703   1.586   1.639   3.327  0.6167 -0.5050  0.1320
  181SLPC  H10X20704   1.581   1.534   3.362  0.8284 -0.7715 -0.5997
  181SLPC  H10Y20705   1.501   1.699   3.367  0.1347 -0.6409 -0.6525
  181SLPC  C31120706   1.720   1.683   3.393 -0.5548  0.4631 -0.5743
  181SLPC  H11X20707   1.809   1.636   3.345  0.3314  1.2484  0.2421
  181SLPC  H11Y20708   1.718   1.642   3.496  0.8600 -1.9382 -1.4182
  181SLPC  C31220709   1.730   1.838   3.402 -0.6330 -0.5527 -0.0721
  181SLPC  H12X20710   1.641   1.878   3.455  0.0869  0.9867  0.0118
  181SLPC  H12Y20711   1.721   1.878   3.299  1.6967 -2.1828 -0.9853
  181SLPC  C31320712   1.863   1.877   3.465  0.0327  0.0681 -0.0420
  181SLPC  H13X20713   1.940   1.858   3.386 -0.1900 -1.0975 -0.0021
  181SLPC  H13Y20714   1.875   1.812   3.554 -1.1019 -2.2157 -1.4528
  181SLPC  C31420715   1.867   2.021   3.510  0.0584  1.0878 -0.2105
  181SLPC  H14X20716   1.789   2.035   3.587  1.3072  1.8129  0.9670
  181SLPC  H14Y20717   1.834   2.080   3.421 -1.2996 -3.2684 -2.8823
  181SLPC  C31520718   2.003   2.067   3.574 -0.4754  0.5859  0.5049
  181SLPC  H15X20719   2.004   2.178   3.582  3.2323  0.6858  0.4039
  181SLPC  H15Y20720   2.083   2.038   3.503 -1.8242  2.2912 -1.8764
  181SLPC  C31620721   2.014   2.027   3.731 -0.5344 -0.1706  0.4853
  181SLPC  H16X20722   1.990   1.920   3.747  0.7313 -0.3559  1.2382
  181SLPC  H16Y20723   1.936   2.087   3.782 -1.7993 -0.7145 -0.7551
  181SLPC  C31720724   2.149   2.069   3.796 -0.4166  0.9525  0.6110
  181SLPC  H17X20725   2.153   2.010   3.889 -0.7576  1.9600  1.2806
  181SLPC  H17Y20726   2.134   2.173   3.832 -2.8873  0.7107  0.4650
  181SLPC  C31820727   2.284   2.059   3.716 -0.3217 -0.7169  0.6316
  181SLPC  H18X20728   2.309   1.957   3.682  1.5397  0.2335 -1.0556
  181SLPC  H18Y20729   2.370   2.096   3.776  0.9756 -2.0601 -0.3265
  181SLPC  H18Z20730   2.280   2.120   3.623  1.0825 -1.6707 -0.0917
  182SLPC     N20731   2.409   6.494   1.894  0.3962  0.7211  0.7522
  182SLPC   C1320732   2.336   6.626   1.865 -0.3389  0.4660  0.9924
  182SLPC  H13A20733   2.229   6.614   1.879 -0.1505 -1.0415  1.2242
  182SLPC  H13B20734   2.379   6.700   1.931  2.2380 -1.6494  1.8308
  182SLPC  H13C20735   2.350   6.653   1.761  1.1006 -0.4996  0.9056
  182SLPC   C1420736   2.555   6.493   1.844 -0.0955  0.5837 -0.1891
  182SLPC  H14A20737   2.596   6.400   1.880 -0.7665  0.5761  0.5896
  182SLPC  H14B20738   2.567   6.493   1.737  2.5121 -0.4212  0.0168
  182SLPC  H14C20739   2.609   6.569   1.899 -0.1266  1.0042 -0.7329
  182SLPC   C1520740   2.339   6.383   1.817  0.2636  0.6090 -0.4330
  182SLPC  H15A20741   2.315   6.421   1.719 -0.9545 -1.6794 -1.0901
  182SLPC  H15B20742   2.400   6.295   1.808  1.0133  0.9100  1.2651
  182SLPC  H15C20743   2.242   6.355   1.858 -0.3896  1.2074 -1.5138
  182SLPC   C1220744   2.403   6.447   2.041 -0.5081  0.1021  1.1839
  182SLPC  H12A20745   2.299   6.444   2.069 -0.4751  1.6107  1.5682
  182SLPC  H12B20746   2.452   6.510   2.114 -1.3773 -1.0542  2.8025
  182SLPC   C1120747   2.467   6.313   2.070 -0.1177  0.8118  0.3612
  182SLPC  H11A20748   2.419   6.221   2.029 -1.3107  2.3447 -1.8785
  182SLPC  H11B20749   2.457   6.297   2.180  0.9178  1.2336  0.5258
  182SLPC     P20750   2.717   6.371   2.124  0.2687 -0.0058  0.4883
  182SLPC   O1320751   2.847   6.359   2.048  0.8536  0.1878 -0.3400
  182SLPC   O1420752   2.672   6.507   2.167  0.5858  0.0608 -0.0975
  182SLPC   O1220753   2.605   6.301   2.036  0.3009  0.3558 -0.8086
  182SLPC   O1120754   2.729   6.280   2.258 -0.2111  0.0564  0.2907
  182SLPC    C120755   2.857   6.246   2.320  0.5783  0.2365  0.6751
  182SLPC    HA20756   2.867   6.137   2.335 -0.8779  0.1282  1.0540
  182SLPC    HB20757   2.941   6.267   2.251  1.3427 -0.9567  1.2054
  182SLPC    C220758   2.878   6.307   2.461 -0.4554  0.1265  0.1820
  182SLPC    HS20759   2.985   6.287   2.484 -0.3212 -0.9033 -1.2051
  182SLPC   O2120760   2.794   6.250   2.560  1.1359 -0.3027 -0.3575
  182SLPC   C2120761   2.840   6.137   2.609 -0.5442 -0.1685 -0.0732
  182SLPC   O2220762   2.942   6.082   2.571 -0.0895  0.3787  0.0455
  182SLPC   C2220763   2.748   6.087   2.718 -0.0400 -0.6519  0.5289
  182SLPC   H2R20764   2.708   6.170   2.780 -0.8148 -0.7175  0.1241
  182SLPC   H2S20765   2.660   6.048   2.663  0.0201  0.3864 -0.3509
  182SLPC    C320766   2.864   6.463   2.457  0.0777  0.4844 -0.0508
  182SLPC    HX20767   2.754   6.473   2.452 -0.5164 -2.9236  2.4330
  182SLPC    HY20768   2.913   6.516   2.373 -0.5425  1.7609  0.3565
  182SLPC   O3120769   2.907   6.514   2.578  0.5504 -0.2819  0.3917
  182SLPC   C3120770   2.858   6.636   2.600  0.2980  0.2515  0.2338
  182SLPC   O3220771   2.790   6.700   2.527  1.2328 -0.0087  0.0542
  182SLPC   C3220772   2.901   6.677   2.732  0.1369 -0.1775  0.0869
  182SLPC   H2X20773   2.882   6.782   2.763  1.4210  0.0707  0.0893
  182SLPC   H2Y20774   3.012   6.666   2.739  0.1652  0.5481  1.1129
  182SLPC   C2320775   2.811   5.991   2.819  0.4483 -0.4270  1.0085
  182SLPC   H3R20776   2.861   5.912   2.759 -0.0260 -0.3668  0.5318
  182SLPC   H3S20777   2.728   5.944   2.875  1.1920 -1.9508  0.8849
  182SLPC   C2420778   2.899   6.060   2.929 -0.1049 -0.2359  0.0303
  182SLPC   H4R20779   2.875   6.162   2.965 -0.2022 -0.4524  0.5831
  182SLPC   H4S20780   3.001   6.078   2.889 -0.7305  1.4424 -0.8865
  182SLPC   C2520781   2.912   5.963   3.047 -0.5980 -0.3275  0.4790
  182SLPC   H5R20782   2.975   5.881   3.007 -2.4166 -0.1206 -3.1874
  182SLPC   H5S20783   2.822   5.920   3.098 -0.1117  2.0181  3.6080
  182SLPC   C2620784   2.990   6.035   3.160 -0.0793  0.8264 -0.4317
  182SLPC   H6R20785   2.911   6.093   3.213 -1.3293 -2.1958  1.2588
  182SLPC   H6S20786   3.065   6.101   3.112  0.0625  0.4012 -0.7964
  182SLPC   C2720787   3.057   5.924   3.248 -0.0107  0.4115  0.2650
  182SLPC   H7R20788   3.141   5.881   3.190  1.3783  3.5900 -0.2638
  182SLPC   H7S20789   2.986   5.844   3.277  2.8046 -2.1147  0.6155
  182SLPC   C2820790   3.123   5.973   3.381 -0.0994  0.8590 -0.4149
  182SLPC   H8R20791   3.117   5.895   3.460 -0.3010  1.7612  0.4814
  182SLPC   H8S20792   3.051   6.047   3.422  0.1047  0.8712 -0.0681
  182SLPC   C2920793   3.257   6.041   3.386 -0.1727  0.0148 -0.2526
  182SLPC   H9R20794   3.324   6.011   3.304  1.9634 -0.0954  1.4479
  182SLPC  C21020795   3.289   6.143   3.474  0.4133 -0.3037  0.2628
  182SLPC  H10R20796   3.387   6.190   3.460 -0.1031  0.4468 -1.1347
  182SLPC  C21120797   3.208   6.202   3.589 -0.0783  0.3308 -0.7797
  182SLPC  H11R20798   3.167   6.122   3.653  0.7379  0.1050 -0.5214
  182SLPC  H11S20799   3.125   6.265   3.550 -0.2361 -0.0983 -1.1451
  182SLPC  C21220800   3.304   6.282   3.681  0.2301  0.1904  0.1924
  182SLPC  H12R20801   3.394   6.320   3.630 -0.5486  2.0378  0.1190
  182SLPC  C21320802   3.274   6.311   3.813  0.0797 -0.6833 -1.1269
  182SLPC  H13R20803   3.352   6.358   3.873  0.0563 -2.7582  0.6396
  182SLPC  C21420804   3.133   6.285   3.880 -0.3457  0.0543  0.4788
  182SLPC  H14R20805   3.151   6.219   3.968  0.1630  0.8397  0.9748
  182SLPC  H14S20806   3.066   6.241   3.804 -1.2034  2.9209 -0.5335
  182SLPC  C21520807   3.058   6.407   3.935  0.4553 -0.0651  0.4619
  182SLPC  H15R20808   2.957   6.374   3.967 -0.6372 -0.5240 -3.0154
  182SLPC  H15S20809   3.046   6.466   3.842 -0.0480  0.0230  0.5796
  182SLPC  C21620810   3.136   6.477   4.053  0.4393  0.4565 -0.6934
  182SLPC  H16R20811   3.089   6.576   4.075  0.6255  0.5856 -0.8665
  182SLPC  H16S20812   3.241   6.507   4.032  0.1003  2.3194  0.0798
  182SLPC  C21720813   3.123   6.393   4.178  0.1145  0.9813 -1.2332
  182SLPC  H17R20814   3.181   6.299   4.174 -2.2481 -0.5743 -1.0293
  182SLPC  H17S20815   3.015   6.370   4.191  0.2696  0.7797 -0.1992
  182SLPC  C21820816   3.162   6.468   4.306 -0.0505  0.4462 -0.4309
  182SLPC  H18R20817   3.085   6.545   4.331  1.3092  0.7870  3.3106
  182SLPC  H18S20818   3.252   6.532   4.295 -2.4829  4.3972  0.4772
  182SLPC  H18T20819   3.164   6.407   4.398  0.5609  0.1119 -0.6663
  182SLPC   C3320820   2.855   6.581   2.846  0.6120 -0.0352 -0.4620
  182SLPC   H3X20821   2.887   6.624   2.943  1.3823  2.6043 -1.7964
  182SLPC   H3Y20822   2.903   6.482   2.827  3.0169  1.0270 -0.2549
  182SLPC   C3420823   2.702   6.586   2.852 -0.1315 -0.2358 -0.2641
  182SLPC   H4X20824   2.662   6.531   2.764 -2.1121 -0.6508  0.8336
  182SLPC   H4Y20825   2.682   6.695   2.856 -0.8341 -0.2926 -1.8426
  182SLPC   C3520826   2.643   6.524   2.981  0.2683 -0.1959  0.1137
  182SLPC   H5X20827   2.536   6.552   2.991  0.9182  1.9803  1.8768
  182SLPC   H5Y20828   2.693   6.577   3.065 -2.2070  1.5483  0.5947
  182SLPC   C3620829   2.661   6.373   2.999  0.4121  0.5199  0.4287
  182SLPC   H6X20830   2.767   6.357   2.967  0.0244  1.9445 -1.7367
  182SLPC   H6Y20831   2.592   6.318   2.931  0.5269  1.2276 -0.2690
  182SLPC   C3720832   2.641   6.329   3.141 -0.0441  0.9695  0.0477
  182SLPC   H7X20833   2.556   6.390   3.177  0.7290  2.5249 -0.6627
  182SLPC   H7Y20834   2.725   6.340   3.213  1.4822  2.2294 -1.8119
  182SLPC   C3820835   2.596   6.174   3.151  0.7727 -0.0721 -0.0153
  182SLPC   H8X20836   2.682   6.114   3.111 -1.1698 -2.7898 -0.4326
  182SLPC   H8Y20837   2.515   6.171   3.075 -0.9645  0.6635  1.7224
  182SLPC   C3920838   2.555   6.128   3.291 -0.2179 -0.5001 -0.2406
  182SLPC   H9X20839   2.508   6.029   3.273 -0.3395 -0.4867 -0.0021
  182SLPC   H9Y20840   2.471   6.195   3.316  0.1658 -0.8374  2.2242
  182SLPC  C31020841   2.662   6.147   3.395  0.4473 -0.0265 -0.1670
  182SLPC  H10X20842   2.731   6.227   3.361  0.3084  0.8337  1.4878
  182SLPC  H10Y20843   2.721   6.052   3.398 -0.7508 -0.8863 -1.7485
  182SLPC  C31120844   2.599   6.181   3.530 -0.3701 -0.5869 -0.1304
  182SLPC  H11X20845   2.530   6.102   3.566  0.3075 -0.6490  1.0933
  182SLPC  H11Y20846   2.553   6.281   3.515 -1.1755 -0.9149  0.0954
  182SLPC  C31220847   2.706   6.192   3.635  0.5886  0.4553 -0.0906
  182SLPC  H12X20848   2.671   6.268   3.709  0.5588  2.0859 -1.7160
  182SLPC  H12Y20849   2.787   6.242   3.578  1.2065 -1.7848 -1.2586
  182SLPC  C31320850   2.756   6.061   3.698 -0.2816  0.2727 -0.9122
  182SLPC  H13X20851   2.861   6.078   3.729 -0.6979  2.2548 -0.4312
  182SLPC  H13Y20852   2.756   5.982   3.620  1.2005 -1.8396  1.1076
  182SLPC  C31420853   2.667   6.030   3.823  0.4166 -0.3036 -0.0964
  182SLPC  H14X20854   2.567   6.074   3.807  1.1535  0.2183 -4.6205
  182SLPC  H14Y20855   2.702   6.092   3.908  1.1788  0.1352 -0.7117
  182SLPC  C31520856   2.671   5.883   3.871 -0.1808  0.1789  0.3114
  182SLPC  H15X20857   2.672   5.875   3.982 -3.6205 -2.2689  0.3362
  182SLPC  H15Y20858   2.775   5.856   3.841  0.0475  1.0829  0.2576
  182SLPC  C31620859   2.582   5.779   3.806 -0.2337  0.1907 -0.0913
  182SLPC  H16X20860   2.587   5.795   3.696  0.2987  1.3703  0.0849
  182SLPC  H16Y20861   2.480   5.764   3.847  0.0709 -1.5486  0.1128
  182SLPC  C31720862   2.634   5.642   3.828 -0.4269  0.6289  0.1928
  182SLPC  H17X20863   2.627   5.618   3.937  0.3602  1.0260  0.3391
  182SLPC  H17Y20864   2.740   5.634   3.796 -0.8153  1.1895 -1.2887
  182SLPC  C31820865   2.566   5.542   3.741 -0.1705  0.7092  0.0851
  182SLPC  H18X20866   2.553   5.558   3.632  0.5509 -1.1074 -0.3004
  182SLPC  H18Y20867   2.460   5.517   3.763 -0.6628  2.0558 -0.6498
  182SLPC  H18Z20868   2.630   5.452   3.755  1.3529  1.7583  0.0853
  183SLPC     N20869   0.317   3.926   2.139  0.0786  0.3318 -0.9958
  183SLPC   C1320870   0.336   3.974   2.002 -0.0207 -0.2504  0.2624
  183SLPC  H13A20871   0.288   3.903   1.934 -1.1524  0.3134  0.4437
  183SLPC  H13B20872   0.293   4.071   1.981  1.1253  0.0463 -0.8189
  183SLPC  H13C20873   0.441   3.981   1.979 -0.3420  1.5203 -0.9067
  183SLPC   C1420874   0.381   4.029   2.232  0.7301  0.0916 -0.0224
  183SLPC  H14A20875   0.335   4.125   2.211 -0.4751 -0.4077  0.2166
  183SLPC  H14B20876   0.371   4.002   2.337  2.0945  0.2657  0.1697
  183SLPC  H14C20877   0.489   4.029   2.225  1.0704 -2.3783  2.8569
  183SLPC   C1520878   0.395   3.796   2.141 -0.0908  0.1154 -0.0869
  183SLPC  H15A20879   0.398   3.750   2.239 -0.7970  0.3910  0.0713
  183SLPC  H15B20880   0.352   3.734   2.064  0.3222  0.7221 -0.8228
  183SLPC  H15C20881   0.499   3.815   2.122  0.0281  0.3722  0.7652
  183SLPC   C1220882   0.175   3.905   2.180  0.2855 -0.5459 -0.9967
  183SLPC  H12A20883   0.128   4.003   2.178  0.6745 -0.3403 -0.4787
  183SLPC  H12B20884   0.182   3.859   2.278  0.1720 -0.8271 -1.1193
  183SLPC   C1120885   0.075   3.822   2.088 -0.4429 -0.0975 -0.1238
  183SLPC  H11A20886  -0.022   3.833   2.141 -0.2437  0.8071  0.0735
  183SLPC  H11B20887   0.112   3.717   2.080  0.2347 -0.2095  2.9423
  183SLPC     P20888   0.008   4.029   1.941 -0.0594  0.0824  0.0897
  183SLPC   O1320889   0.110   4.114   1.870 -0.5722  0.5748  0.1772
  183SLPC   O1420890  -0.118   4.013   1.872  0.1033  0.1756  0.7961
  183SLPC   O1220891   0.066   3.883   1.959  0.6415  0.0355 -0.0641
  183SLPC   O1120892  -0.018   4.077   2.085  0.1578 -0.9277 -0.1456
  183SLPC    C120893  -0.108   4.187   2.106 -0.1545 -0.3026  0.5364
  183SLPC    HA20894  -0.072   4.263   2.179 -3.1450  0.1708  1.6876
  183SLPC    HB20895  -0.143   4.231   2.011 -1.3049 -0.5442  0.8292
  183SLPC    C220896  -0.240   4.137   2.176  0.2048 -0.3565 -0.6123
  183SLPC    HS20897  -0.284   4.214   2.243 -0.8062 -2.3241  1.1526
  183SLPC   O2120898  -0.216   4.031   2.266  0.6067  0.1078  0.2270
  183SLPC   C2120899  -0.144   4.058   2.375 -0.2327  0.3502 -0.2084
  183SLPC   O2220900  -0.091   4.162   2.403  0.3539  0.3369 -0.0721
  183SLPC   C2220901  -0.143   3.937   2.462  0.0622  0.5372  0.4906
  183SLPC   H2R20902  -0.204   3.852   2.424 -0.7349  0.3829  2.0500
  183SLPC   H2S20903  -0.038   3.903   2.453 -0.7032 -2.0608  0.4599
  183SLPC    C320904  -0.355   4.102   2.086  0.7175  0.0801 -0.0195
  183SLPC    HX20905  -0.324   4.023   2.014  0.8917  0.6203 -0.5466
  183SLPC    HY20906  -0.363   4.193   2.023  0.1210  0.9649  1.3012
  183SLPC   O3120907  -0.481   4.078   2.156 -0.0272 -0.2814  0.2469
  183SLPC   C3120908  -0.528   3.951   2.151 -0.2649 -0.3019 -0.5599
  183SLPC   O3220909  -0.471   3.866   2.087 -0.0674 -0.3693 -0.2032
  183SLPC   C3220910  -0.664   3.927   2.220  0.4456 -0.5197  0.5877
  183SLPC   H2X20911  -0.735   3.895   2.141  0.6353  0.8975 -0.1843
  183SLPC   H2Y20912  -0.708   4.012   2.277  0.3524 -1.3532  1.8065
  183SLPC   C2320913  -0.150   3.967   2.614 -0.6005 -0.2413 -0.5602
  183SLPC   H3R20914  -0.254   3.999   2.639 -0.4906  0.7996 -1.3221
  183SLPC   H3S20915  -0.080   4.052   2.629 -0.1077 -0.2611 -2.4179
  183SLPC   C2420916  -0.128   3.832   2.701  0.0386 -0.7990  0.1805
  183SLPC   H4R20917  -0.052   3.772   2.646  1.2166 -0.1910  1.1125
  183SLPC   H4S20918  -0.227   3.784   2.683 -0.5867  0.9971 -1.5500
  183SLPC   C2520919  -0.102   3.851   2.847  0.5551 -0.3409  0.5597
  183SLPC   H5R20920  -0.013   3.918   2.841  0.5406 -0.4352 -2.9559
  183SLPC   H5S20921  -0.075   3.754   2.893  0.5104  0.1399  1.6405
  183SLPC   C2620922  -0.210   3.926   2.924  0.0022 -0.5508  0.1983
  183SLPC   H6R20923  -0.310   3.877   2.927 -1.5839  2.4322 -0.5538
  183SLPC   H6S20924  -0.233   4.020   2.869  2.6920  0.1363  0.1448
  183SLPC   C2720925  -0.165   3.940   3.068  0.2105  0.4288  0.2652
  183SLPC   H7R20926  -0.062   3.982   3.071 -0.1282  1.4927 -1.6159
  183SLPC   H7S20927  -0.168   3.836   3.107 -0.2005 -0.7295 -2.5937
  183SLPC   C2820928  -0.253   4.027   3.157  0.0664 -0.2231  0.5517
  183SLPC   H8R20929  -0.353   3.981   3.172  0.9494 -2.1659  0.7892
  183SLPC   H8S20930  -0.265   4.130   3.119 -0.2308 -0.8133 -0.9975
  183SLPC   C2920931  -0.203   4.033   3.297  0.4170 -0.3597  0.3261
  183SLPC   H9R20932  -0.161   3.939   3.334 -1.2333 -1.2405  0.0434
  183SLPC  C21020933  -0.185   4.152   3.362 -0.0797 -0.1326 -0.4169
  183SLPC  H10R20934  -0.136   4.160   3.460  1.2702 -1.6705 -0.9142
  183SLPC  C21120935  -0.232   4.288   3.310  0.4530  0.0495  0.1113
  183SLPC  H11R20936  -0.339   4.274   3.284 -0.7321  2.5119  3.0750
  183SLPC  H11S20937  -0.171   4.317   3.222  0.7466  1.6869  0.8163
  183SLPC  C21220938  -0.235   4.395   3.413 -0.4592  0.0525  0.3208
  183SLPC  H12R20939  -0.331   4.405   3.467 -2.3735 -2.0536 -2.4256
  183SLPC  C21320940  -0.144   4.486   3.450  0.5214  0.4780  0.1880
  183SLPC  H13R20941  -0.177   4.563   3.521 -2.6129 -1.0534  0.5282
  183SLPC  C21420942  -0.013   4.503   3.373 -0.4277  0.2398  0.4486
  183SLPC  H14R20943   0.000   4.428   3.291  0.4612  0.8787 -0.0051
  183SLPC  H14S20944   0.076   4.484   3.436 -0.2379  1.5043  0.5702
  183SLPC  C21520945  -0.006   4.649   3.321 -0.2400 -1.4288  0.0895
  183SLPC  H15R20946   0.090   4.665   3.269  0.3410  1.5333  1.9024
  183SLPC  H15S20947  -0.007   4.719   3.407  0.4114 -0.4329 -0.6935
  183SLPC  C21620948  -0.116   4.698   3.229  0.0706 -0.3140  0.1160
  183SLPC  H16R20949  -0.083   4.802   3.206  0.1676 -0.6811 -1.5388
  183SLPC  H16S20950  -0.214   4.701   3.281 -0.3689  0.2031 -0.7106
  183SLPC  C21720951  -0.139   4.623   3.096  0.2156 -0.0334  0.4150
  183SLPC  H17R20952  -0.164   4.522   3.135 -0.8710  0.1337  0.1566
  183SLPC  H17S20953  -0.040   4.625   3.045  1.9099  2.5220  3.3920
  183SLPC  C21820954  -0.248   4.681   3.005  0.5267 -0.3639  0.0539
  183SLPC  H18R20955  -0.344   4.685   3.062  0.7321 -1.3128  0.4801
  183SLPC  H18S20956  -0.269   4.622   2.913 -2.4642  2.4092 -1.2340
  183SLPC  H18T20957  -0.225   4.780   2.959  0.9464  0.2091  1.4452
  183SLPC   C3320958  -0.662   3.803   2.318  0.4358  0.2146 -0.7334
  183SLPC   H3X20959  -0.590   3.735   2.267  2.1429  1.6323 -0.3200
  183SLPC   H3Y20960  -0.765   3.762   2.322  0.9044 -0.9235  0.5275
  183SLPC   C3420961  -0.607   3.823   2.464  0.4125 -0.1418 -0.0412
  183SLPC   H4X20962  -0.654   3.917   2.501 -0.8970 -1.2211  1.1619
  183SLPC   H4Y20963  -0.499   3.846   2.462  0.3928  0.0350  0.6828
  183SLPC   C3520964  -0.641   3.709   2.559 -0.6207  0.4229 -0.2644
  183SLPC   H5X20965  -0.554   3.639   2.556 -1.1360 -0.1929 -1.2888
  183SLPC   H5Y20966  -0.730   3.651   2.528  0.4498 -1.2146 -0.3920
  183SLPC   C3620967  -0.638   3.757   2.711  0.4194  0.1166  0.0852
  183SLPC   H6X20968  -0.711   3.841   2.717  0.3840 -0.0086  2.1013
  183SLPC   H6Y20969  -0.537   3.798   2.732  0.6376 -0.8065  0.8955
  183SLPC   C3720970  -0.662   3.640   2.808  0.3064 -0.2290  0.5766
  183SLPC   H7X20971  -0.588   3.558   2.794 -1.2356 -1.9155  1.7896
  183SLPC   H7Y20972  -0.764   3.600   2.791 -0.0136 -1.9829  5.1589
  183SLPC   C3820973  -0.665   3.683   2.963  0.2007 -0.3635  0.1472
  183SLPC   H8X20974  -0.739   3.607   2.997  0.5014 -0.3848  0.7680
  183SLPC   H8Y20975  -0.707   3.786   2.958 -0.8055 -0.8307 -1.8954
  183SLPC   C3920976  -0.527   3.687   3.025 -0.6556  0.7325 -0.2950
  183SLPC   H9X20977  -0.463   3.729   2.945 -1.2283  1.9287 -0.1539
  183SLPC   H9Y20978  -0.492   3.583   3.040  0.9272  1.4683  1.4824
  183SLPC  C31020979  -0.507   3.767   3.155 -0.5247  0.1309  0.7215
  183SLPC  H10X20980  -0.538   3.873   3.141  2.3636  1.5740  3.9135
  183SLPC  H10Y20981  -0.401   3.758   3.187 -0.4491  1.5926  0.9816
  183SLPC  C31120982  -0.602   3.720   3.261 -0.0274 -0.5903 -0.5495
  183SLPC  H11X20983  -0.599   3.609   3.264  0.5553 -0.5684  0.0033
  183SLPC  H11Y20984  -0.699   3.763   3.229 -1.0696 -1.4979  1.2775
  183SLPC  C31220985  -0.572   3.766   3.403 -0.5490 -0.5484 -0.7889
  183SLPC  H12X20986  -0.660   3.735   3.462 -0.8029  2.4818  0.6609
  183SLPC  H12Y20987  -0.565   3.877   3.394  2.1573 -0.6974 -1.3602
  183SLPC  C31320988  -0.441   3.712   3.452  0.3775 -0.0171  0.4637
  183SLPC  H13X20989  -0.353   3.749   3.394 -0.2031 -1.6097 -1.5469
  183SLPC  H13Y20990  -0.455   3.603   3.437 -0.5527  0.1234  0.2635
  183SLPC  C31420991  -0.405   3.726   3.601 -0.6504  0.9565 -0.0807
  183SLPC  H14X20992  -0.479   3.664   3.656 -1.6222  1.4152 -0.8429
  183SLPC  H14Y20993  -0.421   3.827   3.646  2.2869  0.9486  1.2254
  183SLPC  C31520994  -0.264   3.680   3.642 -0.0431 -0.4843 -0.1534
  183SLPC  H15X20995  -0.183   3.737   3.592 -0.3573  2.2207  2.1451
  183SLPC  H15Y20996  -0.260   3.576   3.602  1.7560 -0.0817 -1.1273
  183SLPC  C31620997  -0.237   3.685   3.793  0.0375  0.0322 -0.4158
  183SLPC  H16X20998  -0.283   3.772   3.843 -1.1328 -1.0525  0.4671
  183SLPC  H16Y20999  -0.126   3.694   3.796 -0.1012  2.4946 -1.0649
  183SLPC  C31721000  -0.278   3.560   3.878 -0.2222 -0.7076 -0.5198
  183SLPC  H17X21001  -0.244   3.467   3.828 -0.2686 -0.6574 -0.6452
  183SLPC  H17Y21002  -0.389   3.566   3.889 -0.7222 -3.0463 -3.0816
  183SLPC  C31821003  -0.212   3.570   4.022  0.6876  0.3941 -0.1527
  183SLPC  H18X21004  -0.206   3.468   4.065  0.3197  0.4496  0.0352
  183SLPC  H18Y21005  -0.271   3.642   4.084  1.3931  0.6873  0.1905
  183SLPC  H18Z21006  -0.109   3.611   4.022  1.0913 -0.2507  3.3261
  184SLPC     N21007   0.470   5.517   1.979 -0.1859  0.1179  0.9370
  184SLPC   C1321008   0.603   5.555   2.032 -0.7116  0.3515 -0.0149
  184SLPC  H13A21009   0.644   5.468   2.081  2.2782  1.5746 -0.1419
  184SLPC  H13B21010   0.668   5.573   1.947  0.0555 -0.2054  0.4442
  184SLPC  H13C21011   0.606   5.637   2.102  3.0226 -1.0926  1.8147
  184SLPC   C1421012   0.489   5.401   1.883  0.1172 -0.1696 -0.2252
  184SLPC  H14A21013   0.395   5.359   1.850 -1.1975  1.5617  1.1330
  184SLPC  H14B21014   0.535   5.432   1.790  0.8388  0.2517  0.2635
  184SLPC  H14C21015   0.550   5.323   1.927  1.1538  1.2666  0.9584
  184SLPC   C1521016   0.415   5.632   1.893  0.2031 -0.2128  0.6770
  184SLPC  H15A21017   0.396   5.714   1.962  2.3185  0.0787  0.9855
  184SLPC  H15B21018   0.490   5.661   1.821 -0.3138 -0.3159  0.0867
  184SLPC  H15C21019   0.322   5.602   1.846  1.0651 -2.1460  0.1174
  184SLPC   C1221020   0.382   5.473   2.086 -0.3817  0.3513 -0.3894
  184SLPC  H12A21021   0.415   5.379   2.129 -1.6582  0.0635 -0.0056
  184SLPC  H12B21022   0.284   5.454   2.047 -0.2949  0.8436 -0.8446
  184SLPC   C1121023   0.359   5.578   2.204 -0.8522  0.5824  0.0970
  184SLPC  H11A21024   0.452   5.622   2.245 -0.4844  0.4059 -0.5394
  184SLPC  H11B21025   0.311   5.526   2.289  0.5163 -0.7467  0.0945
  184SLPC     P21026   0.136   5.688   2.140 -0.2473 -0.0764  0.1966
  184SLPC   O1321027   0.088   5.814   2.080  0.4614 -0.3535  0.1479
  184SLPC   O1421028   0.096   5.560   2.074  0.7888 -0.4260  0.0101
  184SLPC   O1221029   0.297   5.694   2.153 -0.1428 -0.4355  0.3892
  184SLPC   O1121030   0.082   5.681   2.294 -0.4367 -0.4759  0.2428
  184SLPC    C121031  -0.027   5.605   2.323  0.5436  0.5519  0.5947
  184SLPC    HA21032  -0.086   5.565   2.237 -0.4819  2.7062  0.2292
  184SLPC    HB21033  -0.004   5.519   2.389 -0.8266  1.6233  2.5944
  184SLPC    C221034  -0.130   5.679   2.414  0.1688  0.3807  0.8720
  184SLPC    HS21035  -0.150   5.778   2.367 -1.9884 -0.4004  0.0018
  184SLPC   O2121036  -0.077   5.697   2.549 -0.1596 -0.0104  0.3084
  184SLPC   C2121037  -0.138   5.789   2.626  1.0757 -0.2077  0.0796
  184SLPC   O2221038  -0.239   5.852   2.595  0.7875  0.5256  0.1572
  184SLPC   C2221039  -0.068   5.815   2.756  0.4513 -0.0447 -0.0637
  184SLPC   H2R21040  -0.006   5.728   2.787 -2.0111 -2.0665 -0.4180
  184SLPC   H2S21041  -0.018   5.914   2.752  0.2213  0.1131  0.8173
  184SLPC    C321042  -0.263   5.598   2.414  0.2655  0.0578  0.0021
  184SLPC    HX21043  -0.316   5.604   2.316 -0.0802  4.6366  0.2550
  184SLPC    HY21044  -0.337   5.655   2.474  1.2461  1.1394  0.2249
  184SLPC   O3121045  -0.247   5.461   2.458 -0.0946 -0.3719 -0.2297
  184SLPC   C3121046  -0.269   5.454   2.590  1.0914  0.2182 -0.0673
  184SLPC   O3221047  -0.309   5.540   2.662  0.0042  0.4792  0.2850
  184SLPC   C3221048  -0.230   5.313   2.646  0.1722  0.0132 -1.0841
  184SLPC   H2X21049  -0.175   5.253   2.570  1.3102 -0.6118  0.1948
  184SLPC   H2Y21050  -0.324   5.263   2.678  1.3826 -1.0436  1.0286
  184SLPC   C2321051  -0.161   5.842   2.881  0.7889 -0.3700  0.7628
  184SLPC   H3R21052  -0.224   5.932   2.867  1.4331 -0.0849 -0.4670
  184SLPC   H3S21053  -0.082   5.869   2.954  3.1253 -0.4144 -1.5871
  184SLPC   C2421054  -0.243   5.730   2.939 -0.3419  0.6725 -0.6762
  184SLPC   H4R21055  -0.185   5.636   2.946  1.2840  1.7484  1.4844
  184SLPC   H4S21056  -0.316   5.700   2.861  0.7017 -3.9065 -0.1575
  184SLPC   C2521057  -0.312   5.773   3.071  0.1715 -0.1541 -0.1148
  184SLPC   H5R21058  -0.390   5.848   3.045 -1.5993 -1.8609  0.0481
  184SLPC   H5S21059  -0.233   5.814   3.138 -0.7563 -0.1921  1.0380
  184SLPC   C2621060  -0.370   5.667   3.167  0.0923 -0.7765  0.2932
  184SLPC   H6R21061  -0.285   5.603   3.200  1.9658  0.7855 -1.2798
  184SLPC   H6S21062  -0.438   5.608   3.102  0.5621 -1.3096  0.2685
  184SLPC   C2721063  -0.445   5.740   3.278 -0.5127  0.3109 -0.0990
  184SLPC   H7R21064  -0.535   5.788   3.233 -0.8284 -1.9338 -2.0710
  184SLPC   H7S21065  -0.379   5.820   3.318  2.5280 -2.3082  0.4921
  184SLPC   C2821066  -0.473   5.642   3.382  0.1121  0.1732 -0.4082
  184SLPC   H8R21067  -0.380   5.603   3.427 -1.3399  0.3310  3.0502
  184SLPC   H8S21068  -0.528   5.555   3.338 -2.0460  1.6515 -0.8033
  184SLPC   C2921069  -0.555   5.720   3.485 -0.4213 -0.1849  0.1341
  184SLPC   H9R21070  -0.663   5.704   3.471 -0.4902 -0.4511  0.9121
  184SLPC  C21021071  -0.510   5.790   3.590  0.0430 -0.6284 -0.3622
  184SLPC  H10R21072  -0.587   5.836   3.654  0.9653  1.8540 -0.9457
  184SLPC  C21121073  -0.366   5.811   3.639 -0.2993 -0.4509  0.0965
  184SLPC  H11R21074  -0.376   5.912   3.685 -0.0868 -1.8007  3.3885
  184SLPC  H11S21075  -0.297   5.823   3.553 -0.6100  1.6718  0.0731
  184SLPC  C21221076  -0.299   5.721   3.733  0.4250 -0.6585 -0.5534
  184SLPC  H12R21077  -0.244   5.641   3.681  1.3554  0.0982 -0.7818
  184SLPC  C21321078  -0.319   5.728   3.865 -0.0516 -0.2411 -0.7609
  184SLPC  H13R21079  -0.257   5.667   3.932  0.6574  0.0238 -1.1711
  184SLPC  C21421080  -0.410   5.825   3.939 -0.5475 -0.6912 -0.0552
  184SLPC  H14R21081  -0.444   5.771   4.031 -1.0068 -1.5255 -0.6998
  184SLPC  H14S21082  -0.503   5.846   3.882 -0.1739 -0.7958 -0.7039
  184SLPC  C21521083  -0.350   5.961   3.972 -0.0027  0.0763 -0.4592
  184SLPC  H15R21084  -0.426   6.043   3.976 -2.8643 -2.3592 -0.9807
  184SLPC  H15S21085  -0.272   5.991   3.899  0.0208 -0.2689 -0.5757
  184SLPC  C21621086  -0.280   5.967   4.117 -0.3583  0.8834  0.3272
  184SLPC  H16R21087  -0.255   5.860   4.134 -1.1059  0.6224 -0.2155
  184SLPC  H16S21088  -0.348   5.983   4.203 -1.5814 -1.6944 -0.0682
  184SLPC  C21721089  -0.157   6.054   4.116 -0.1389 -0.2448 -0.1150
  184SLPC  H17R21090  -0.197   6.157   4.122  0.8881  0.1226  0.9284
  184SLPC  H17S21091  -0.085   6.046   4.032  2.2592  0.5728  1.7298
  184SLPC  C21821092  -0.073   6.040   4.243  0.8790  0.3967 -0.0889
  184SLPC  H18R21093   0.003   6.120   4.251 -0.8911  2.1446 -0.0104
  184SLPC  H18S21094  -0.033   5.938   4.265 -0.4134 -0.4207 -1.3414
  184SLPC  H18T21095  -0.145   6.058   4.325 -0.0808 -1.5157 -0.4443
  184SLPC   C3321096  -0.150   5.315   2.775 -0.5226  0.0751 -0.5701
  184SLPC   H3X21097  -0.131   5.210   2.807  3.9195  0.7526 -0.3205
  184SLPC   H3Y21098  -0.211   5.356   2.858 -0.0700 -0.5548  0.0870
  184SLPC   C3421099  -0.015   5.383   2.755  0.6759 -0.2802  0.4558
  184SLPC   H4X21100  -0.039   5.488   2.728 -1.4874 -1.1475 -1.2870
  184SLPC   H4Y21101   0.041   5.336   2.672 -0.0078  2.0482 -1.4607
  184SLPC   C3521102   0.072   5.362   2.878 -0.3385 -0.2451 -0.1749
  184SLPC   H5X21103   0.166   5.418   2.858 -0.3866  0.4416  1.4050
  184SLPC   H5Y21104   0.095   5.254   2.887  0.0598 -0.1542 -0.0800
  184SLPC   C3621105   0.013   5.421   3.015  0.1063 -0.2471  0.6361
  184SLPC   H6X21106  -0.091   5.388   3.039 -0.1320 -2.0586 -2.3436
  184SLPC   H6Y21107   0.019   5.529   2.992 -0.8360 -0.3552 -0.1933
  184SLPC   C3721108   0.107   5.395   3.132  0.3114 -0.4096 -0.1399
  184SLPC   H7X21109   0.208   5.434   3.106  0.0667  0.4567  0.1486
  184SLPC   H7Y21110   0.120   5.290   3.166 -1.0481  0.0297  1.9263
  184SLPC   C3821111   0.054   5.465   3.264 -0.8336 -0.5355 -0.0337
  184SLPC   H8X21112   0.121   5.428   3.344 -4.3250 -0.3576  3.2356
  184SLPC   H8Y21113  -0.047   5.425   3.287 -0.9478  0.4047  1.2057
  184SLPC   C3921114   0.048   5.616   3.248 -0.0428 -0.6634 -0.1147
  184SLPC   H9X21115  -0.027   5.647   3.172 -0.0468 -2.1886 -0.7721
  184SLPC   H9Y21116   0.149   5.649   3.215  0.5204 -0.7717  1.3919
  184SLPC  C31021117   0.016   5.684   3.382  0.3244 -0.2455  0.2269
  184SLPC  H10X21118   0.088   5.638   3.453  1.8933 -0.1148 -1.2022
  184SLPC  H10Y21119  -0.090   5.670   3.411  0.5353 -0.1863  1.0329
  184SLPC  C31121120   0.044   5.836   3.367 -0.6616 -0.1713 -0.8070
  184SLPC  H11X21121   0.006   5.897   3.282  0.7139  1.7670 -0.1125
  184SLPC  H11Y21122   0.152   5.863   3.370 -1.0628  1.4475  0.6504
  184SLPC  C31221123   0.010   5.907   3.499  0.4189 -0.5400 -0.4178
  184SLPC  H12X21124  -0.099   5.899   3.519  0.2101  2.8019  0.3883
  184SLPC  H12Y21125   0.039   6.014   3.487 -1.2669 -0.2629 -2.7011
  184SLPC  C31321126   0.084   5.854   3.620  0.6051 -0.4637 -0.2958
  184SLPC  H13X21127   0.194   5.874   3.622  0.2424  1.8055  1.5411
  184SLPC  H13Y21128   0.060   5.747   3.634 -3.3443  0.2093 -0.8864
  184SLPC  C31421129   0.033   5.903   3.756  0.1637 -0.6357 -0.0819
  184SLPC  H14X21130  -0.078   5.895   3.756 -0.0311  1.5008  0.0979
  184SLPC  H14Y21131   0.050   6.012   3.772 -1.3395  0.2039 -3.3884
  184SLPC  C31521132   0.080   5.817   3.876  0.5727  0.2125 -0.9806
  184SLPC  H15X21133   0.025   5.721   3.890 -0.4273  0.5428 -2.3931
  184SLPC  H15Y21134   0.051   5.872   3.968  0.4989  0.6188 -1.2495
  184SLPC  C31621135   0.224   5.777   3.869  0.2927 -0.8037 -0.0361
  184SLPC  H16X21136   0.272   5.866   3.823  1.7596  0.0402  2.8974
  184SLPC  H16Y21137   0.235   5.685   3.807  0.1719  0.2358 -1.6646
  184SLPC  C31721138   0.303   5.758   4.005 -0.0248 -0.7894  0.1058
  184SLPC  H17X21139   0.250   5.682   4.067 -4.5435 -0.2063 -2.6466
  184SLPC  H17Y21140   0.302   5.852   4.063  0.9653 -0.3853 -0.5016
  184SLPC  C31821141   0.445   5.708   3.985 -0.1509 -0.6823  0.1948
  184SLPC  H18X21142   0.447   5.606   3.941  1.3188 -0.5626 -0.0516
  184SLPC  H18Y21143   0.497   5.707   4.083  1.7050 -0.0638 -0.7374
  184SLPC  H18Z21144   0.498   5.781   3.919 -0.0883 -1.3841 -0.5528
  185POPC     N21145   5.240   5.639   6.067 -0.3646 -0.2635 -0.0247
  185POPC   C1221146   5.145   5.557   5.978 -0.8596 -0.3054  0.0891
  185POPC  H12A21147   5.046   5.598   5.989 -0.2945  0.9875  0.4509
  185POPC  H12B21148   5.132   5.456   6.013 -0.8874 -1.4971 -2.9957
  185POPC   C1321149   5.304   5.755   5.998 -0.6928 -0.5626 -0.1506
  185POPC  H13A21150   5.376   5.803   6.062 -0.5912  0.0891 -0.7402
  185POPC  H13B21151   5.364   5.722   5.914  0.3164 -0.4646  0.5209
  185POPC  H13C21152   5.231   5.828   5.967 -1.8249 -1.4333  0.3752
  185POPC   C1421153   5.166   5.679   6.193 -0.3362  0.3877 -0.0324
  185POPC  H14A21154   5.232   5.737   6.256 -1.5977 -2.0688  3.8808
  185POPC  H14B21155   5.076   5.734   6.171  0.0071  0.7153 -0.6630
  185POPC  H14C21156   5.135   5.587   6.240  1.4590  0.0236  0.5074
  185POPC   C1521157   5.356   5.558   6.108  0.0237  0.4600 -0.2842
  185POPC  H15A21158   5.418   5.526   6.025 -0.0700 -2.9877  0.8164
  185POPC  H15B21159   5.322   5.463   6.147  0.5826  0.0592 -0.7400
  185POPC  H15C21160   5.411   5.605   6.188  1.5173 -0.2022 -0.8828
  185POPC   C1121161   5.180   5.545   5.831  0.3927 -0.6090  0.3366
  185POPC  H11A21162   5.273   5.484   5.819 -0.0282 -1.0502 -0.7450
  185POPC  H11B21163   5.205   5.645   5.791  0.8781 -1.5500 -1.8277
  185POPC     P21164   4.952   5.567   5.698 -0.4443  0.1661  0.4439
  185POPC   O1321165   4.959   5.701   5.746 -0.4622 -0.1048 -0.2852
  185POPC   O1421166   4.821   5.503   5.695 -0.0045  0.9708 -0.4297
  185POPC   O1221167   5.063   5.483   5.777  0.2187 -0.6946 -1.0909
  185POPC   O1121168   5.020   5.565   5.552  0.3186 -0.4736  0.2710
  185POPC    C121169   5.064   5.444   5.499 -0.0763  1.0789 -0.3549
  185POPC    HA21170   5.080   5.361   5.572  0.7571  0.9545 -0.6682
  185POPC    HB21171   5.164   5.466   5.454 -0.2413  1.7907 -0.3843
  185POPC    C221172   4.979   5.402   5.375 -0.9517 -0.2696 -0.0546
  185POPC    HS21173   5.022   5.300   5.360 -0.2171 -0.4198  2.6210
  185POPC   O2121174   5.001   5.491   5.268 -0.4593  0.1362 -0.2214
  185POPC   C2121175   5.009   5.438   5.147  0.0061 -0.0850  0.3123
  185POPC   O2221176   5.014   5.322   5.119  0.0615  0.0991  0.0593
  185POPC   C2221177   5.032   5.548   5.045  0.4188 -0.2459 -0.3510
  185POPC   H2R21178   5.141   5.560   5.025  0.5310  1.4208  0.9885
  185POPC   H2S21179   4.981   5.640   5.082 -0.2855 -0.5326 -0.6026
  185POPC    C321180   4.830   5.383   5.393  0.3370  0.0855  0.0499
  185POPC    HX21181   4.800   5.321   5.480 -2.3866 -0.5772 -1.2618
  185POPC    HY21182   4.788   5.329   5.306  0.0867  0.1212  0.1487
  185POPC   O3121183   4.764   5.512   5.401  0.6739 -1.1165  0.6214
  185POPC   C3121184   4.627   5.496   5.426 -0.0886  0.1807 -0.6072
  185POPC   O3221185   4.575   5.390   5.457 -0.3444 -0.2742 -0.0098
  185POPC   C3221186   4.567   5.636   5.431  0.5527  0.2527  0.4741
  185POPC   H2X21187   4.638   5.712   5.469 -0.9840  2.7452 -1.3307
  185POPC   H2Y21188   4.482   5.618   5.500 -0.1885 -0.4223 -0.5780
  185POPC   C2321189   4.980   5.511   4.903  0.5042 -0.0649 -0.3362
  185POPC   H3R21190   4.870   5.514   4.893  0.3420  1.5774  1.2917
  185POPC   H3S21191   5.019   5.413   4.870  1.5178 -0.5883  2.1960
  185POPC   C2421192   5.035   5.607   4.798  1.0281  0.1837  0.4420
  185POPC   H4R21193   5.145   5.589   4.794  0.9431 -0.1854 -0.7158
  185POPC   H4S21194   5.022   5.716   4.814  0.7830  0.8399 -3.3102
  185POPC   C2521195   4.995   5.571   4.656 -0.2049 -0.0085 -0.1841
  185POPC   H5R21196   4.887   5.597   4.648 -0.3602 -0.5095  0.2409
  185POPC   H5S21197   5.004   5.461   4.643  0.2014 -0.5167  3.4700
  185POPC   C2621198   5.085   5.643   4.557 -0.8362 -0.4130  0.1151
  185POPC   H6R21199   5.190   5.616   4.581 -0.8547  1.9053  3.3603
  185POPC   H6S21200   5.071   5.753   4.563  0.0429 -0.3710  2.0125
  185POPC   C2721201   5.062   5.615   4.412 -0.0018 -0.0856 -0.2882
  185POPC   H7R21202   4.957   5.641   4.388 -0.8776 -2.7074  0.3474
  185POPC   H7S21203   5.065   5.509   4.379 -0.6505 -0.7405  1.6542
  185POPC   C2821204   5.160   5.707   4.326  0.3934  0.1229 -0.8383
  185POPC   H8R21205   5.255   5.682   4.378 -0.2061 -0.0061  0.2160
  185POPC   H8S21206   5.136   5.813   4.351 -0.5099  0.2394 -2.0783
  185POPC   C2921207   5.156   5.665   4.178 -0.6821  0.3443 -0.6292
  185POPC   H9121208   5.222   5.583   4.147 -2.1082 -0.0570 -2.8332
  185POPC  C21021209   5.056   5.701   4.093  0.4699  0.1181  0.2988
  185POPC  H10121210   5.060   5.670   3.987 -2.2871  0.3057  0.0664
  185POPC  C21121211   4.934   5.793   4.124 -0.5180 -0.1978  0.5667
  185POPC  H11R21212   4.921   5.866   4.041  2.0917 -1.5870 -1.2033
  185POPC  H11S21213   4.945   5.845   4.222  1.4087  0.4278  0.0644
  185POPC  C21221214   4.821   5.691   4.134 -0.2142 -0.7418  0.0427
  185POPC  H12R21215   4.844   5.619   4.215 -1.0550  1.0184  1.9450
  185POPC  H12S21216   4.804   5.633   4.040  0.2376  1.5780 -1.5702
  185POPC  C21321217   4.691   5.766   4.178 -0.1145 -0.5805  0.2787
  185POPC  H13R21218   4.656   5.843   4.106  1.0885  0.1829  0.4970
  185POPC  H13S21219   4.706   5.828   4.269 -0.8211 -0.2142  0.1526
  185POPC  C21421220   4.565   5.670   4.184 -0.1369 -0.2701  0.1376
  185POPC  H14R21221   4.590   5.593   4.261 -0.9272 -0.0027  0.6762
  185POPC  H14S21222   4.546   5.618   4.088  0.6996  0.4112 -0.4076
  185POPC  C21521223   4.440   5.740   4.238 -0.1428 -0.5066 -0.6521
  185POPC  H15R21224   4.346   5.688   4.211  0.1480 -1.7973  0.6697
  185POPC  H15S21225   4.425   5.839   4.191 -0.1892 -0.4712 -0.5622
  185POPC  C21621226   4.437   5.764   4.388 -0.2120  0.9995 -0.2012
  185POPC  H16R21227   4.535   5.808   4.417  1.0891 -1.4957 -0.4521
  185POPC  H16S21228   4.433   5.673   4.452  0.1655  1.5244  0.5807
  185POPC  C21721229   4.318   5.853   4.432  0.2101  0.5110 -0.2284
  185POPC  H17R21230   4.223   5.801   4.406 -1.1106  1.7079  1.9297
  185POPC  H17S21231   4.322   5.946   4.373  0.4089  1.0484  0.6095
  185POPC  C21821232   4.315   5.877   4.584 -0.4204 -0.1736 -0.4444
  185POPC  H18R21233   4.309   5.778   4.634 -0.4237 -0.2745 -0.6417
  185POPC  H18S21234   4.223   5.928   4.618 -0.2016 -0.4882  0.6707
  185POPC  H18T21235   4.403   5.936   4.615  0.5780 -0.8827 -1.8013
  185POPC   C3321236   4.517   5.678   5.296 -0.0250 -0.3551  0.1437
  185POPC   H3X21237   4.463   5.775   5.310  0.0916 -0.4684  1.5220
  185POPC   H3Y21238   4.457   5.603   5.241  1.9309 -1.6571 -0.2989
  185POPC   C3421239   4.631   5.717   5.194  0.5733 -0.2740  0.1194
  185POPC   H4X21240   4.678   5.624   5.155 -1.9028 -2.1858  1.3557
  185POPC   H4Y21241   4.701   5.782   5.250 -1.2181  2.3550 -0.5100
  185POPC   C3521242   4.587   5.799   5.064  0.3090  0.2789  0.0882
  185POPC   H5X21243   4.522   5.880   5.102 -1.2810  0.1063 -2.0884
  185POPC   H5Y21244   4.519   5.732   5.009  0.9356  1.0165 -1.6847
  185POPC   C3621245   4.706   5.853   4.980  0.5611 -0.2764  0.5423
  185POPC   H6X21246   4.779   5.778   4.943 -0.1721 -1.2902  1.0954
  185POPC   H6Y21247   4.751   5.925   5.051 -1.7113  1.0494  0.7378
  185POPC   C3721248   4.650   5.937   4.858 -0.3615 -0.7636 -1.0700
  185POPC   H7X21249   4.611   6.031   4.903  3.3144  0.8489 -0.8472
  185POPC   H7Y21250   4.566   5.876   4.819 -2.0064 -1.6663  3.3146
  185POPC   C3821251   4.756   5.980   4.760 -0.6555  0.3460  0.2293
  185POPC   H8X21252   4.807   5.885   4.733  0.1552  0.0254  2.6255
  185POPC   H8Y21253   4.827   6.057   4.795 -0.4821  0.7582 -0.9941
  185POPC   C3921254   4.699   6.030   4.619  0.0027 -0.0747 -0.4900
  185POPC   H9X21255   4.630   6.115   4.643  0.8806  0.3290  0.7307
  185POPC   H9Y21256   4.647   5.951   4.562 -0.0787  1.2407 -2.3149
  185POPC  C31021257   4.810   6.058   4.515  0.0466 -0.0619  0.2373
  185POPC  H10X21258   4.857   5.963   4.483  1.1194 -0.1395  1.9104
  185POPC  H10Y21259   4.883   6.122   4.570 -2.6572  0.5395  3.4706
  185POPC  C31121260   4.768   6.126   4.379 -0.0973  0.7733 -0.9038
  185POPC  H11X21261   4.714   6.221   4.399  1.1595  1.4043 -0.4170
  185POPC  H11Y21262   4.687   6.072   4.325  2.0970 -2.6552 -1.1042
  185POPC  C31221263   4.884   6.153   4.290  0.0486 -0.3597  0.5169
  185POPC  H12X21264   4.937   6.061   4.257 -0.2970 -0.4905  0.3267
  185POPC  H12Y21265   4.952   6.217   4.352  0.2448 -3.0980  3.3792
  185POPC  C31321266   4.846   6.207   4.152 -0.5679  0.3311 -0.1647
  185POPC  H13X21267   4.751   6.265   4.148  1.6257  4.2148 -3.6479
  185POPC  H13Y21268   4.835   6.131   4.072  4.1380  0.7059 -1.4611
  185POPC  C31421269   4.948   6.317   4.104  0.0797 -0.1758  0.0190
  185POPC  H14X21270   5.049   6.272   4.098  0.8712  1.3610  1.2466
  185POPC  H14Y21271   4.946   6.391   4.187  0.3319 -0.0764 -0.0613
  185POPC  C31521272   4.889   6.396   3.987 -0.1097 -0.2229 -0.6498
  185POPC  H15X21273   4.806   6.467   4.006  1.4361  1.1421  1.5458
  185POPC  H15Y21274   4.851   6.318   3.918 -1.9518  0.8516 -0.9031
  185POPC  C31621275   5.001   6.459   3.910  0.1888 -0.3056 -0.3012
  185POPC  H16X21276   4.960   6.472   3.808  0.2096 -3.0304 -0.7225
  185POPC  H16Y21277   5.086   6.389   3.895  0.5092  0.3148 -1.4841
  185POPC  H16Z21278   5.044   6.553   3.953  1.3829 -0.2710 -1.5074
  186POPC     N21279   2.019   0.979   5.795 -0.8665 -0.2904  0.4551
  186POPC   C1221280   1.902   0.958   5.697 -0.1664 -0.6326 -0.0901
  186POPC  H12A21281   1.834   0.885   5.739 -1.9129  0.7179 -0.5019
  186POPC  H12B21282   1.940   0.921   5.603 -0.2035 -1.5156  0.2300
  186POPC   C1321283   2.124   1.059   5.715  0.5604  0.1508  1.0079
  186POPC  H13A21284   2.079   1.099   5.626  1.0764 -1.6947 -0.1458
  186POPC  H13B21285   2.158   1.147   5.767  1.3762  1.4409 -1.5566
  186POPC  H13C21286   2.204   0.991   5.688 -1.0614 -1.0003 -1.2405
  186POPC   C1421287   1.982   1.055   5.917  0.9125 -0.5968 -0.8326
  186POPC  H14A21288   1.913   1.128   5.878 -0.9447 -1.9693 -0.3005
  186POPC  H14B21289   1.932   0.996   5.992  0.8232 -2.4403 -2.2627
  186POPC  H14C21290   2.066   1.110   5.956  0.1961 -0.1290  0.0841
  186POPC   C1521291   2.080   0.846   5.827 -0.4275  0.2107  0.3046
  186POPC  H15A21292   2.112   0.794   5.738 -2.7467 -2.1312  0.6992
  186POPC  H15B21293   2.013   0.783   5.885  0.4318  1.1162  2.3992
  186POPC  H15C21294   2.149   0.867   5.907 -2.0555  3.1983  1.1070
  186POPC   C1121295   1.814   1.085   5.658  0.3786 -0.3704  0.0310
  186POPC  H11A21296   1.761   1.079   5.561  2.2838 -0.3015 -1.0810
  186POPC  H11B21297   1.880   1.172   5.635  1.7354 -1.6765 -1.2520
  186POPC     P21298   1.621   1.012   5.828 -0.0845 -0.1237  0.3268
  186POPC   O1321299   1.506   1.092   5.866 -0.1912 -0.2111 -0.3351
  186POPC   O1421300   1.691   0.935   5.941  0.2097  0.0982 -0.2219
  186POPC   O1221301   1.723   1.120   5.761  0.1048  0.5133 -0.1401
  186POPC   O1121302   1.579   0.920   5.704  0.2030  1.0109  0.1847
  186POPC    C121303   1.488   0.969   5.608  0.1027  0.7818  0.5098
  186POPC    HA21304   1.529   0.970   5.505 -1.7295  0.3682 -0.2642
  186POPC    HB21305   1.427   1.057   5.638  1.0302  1.8052 -0.5555
  186POPC    C221306   1.371   0.862   5.598  0.1542 -0.1645  0.4843
  186POPC    HS21307   1.335   0.835   5.700 -1.5915 -0.2029 -0.1088
  186POPC   O2121308   1.416   0.744   5.528 -0.1841 -0.2134  0.2582
  186POPC   C2121309   1.396   0.630   5.578 -0.6033  0.0995  0.3316
  186POPC   O2221310   1.339   0.599   5.682  0.4747 -0.1672  0.2863
  186POPC   C2221311   1.479   0.528   5.489 -0.4280 -0.5127 -0.3814
  186POPC   H2R21312   1.475   0.425   5.529 -0.7341 -1.5298 -2.8149
  186POPC   H2S21313   1.583   0.564   5.496 -1.3518  3.1290 -2.3858
  186POPC    C321314   1.252   0.919   5.514  0.2253  0.6537  0.2152
  186POPC    HX21315   1.212   1.007   5.570 -1.4805 -0.8426  1.4788
  186POPC    HY21316   1.177   0.837   5.513 -0.2054  0.9919 -2.5871
  186POPC   O3121317   1.275   0.936   5.368  0.3487 -0.0121  0.5479
  186POPC   C3121318   1.309   1.065   5.335 -0.4578 -0.5702  0.0628
  186POPC   O3221319   1.323   1.152   5.422 -0.2814 -0.0538  0.3762
  186POPC   C3221320   1.336   1.087   5.190  0.1484 -0.2529  0.2277
  186POPC   H2X21321   1.234   1.100   5.149  0.0266  2.0203  1.1155
  186POPC   H2Y21322   1.393   1.008   5.137 -2.3014 -0.5022 -2.2408
  186POPC   C2321323   1.432   0.534   5.338 -0.4731 -0.4487 -0.0876
  186POPC   H3R21324   1.446   0.635   5.294 -1.9226 -0.3058 -0.2723
  186POPC   H3S21325   1.327   0.498   5.341 -0.1903 -1.2213  2.4734
  186POPC   C2421326   1.499   0.437   5.244 -0.2740  0.0429  0.4965
  186POPC   H4R21327   1.494   0.336   5.289  0.7651 -0.5491 -0.6716
  186POPC   H4S21328   1.608   0.456   5.232 -0.7279  1.6635 -1.8598
  186POPC   C2521329   1.439   0.433   5.102  0.2904  0.4117 -0.1184
  186POPC   H5R21330   1.331   0.408   5.115  1.0569 -2.0864  2.5334
  186POPC   H5S21331   1.486   0.341   5.060 -0.4641 -0.7585  1.4615
  186POPC   C2621332   1.469   0.547   5.002 -0.0073  0.6604 -1.0633
  186POPC   H6R21333   1.579   0.559   5.011  0.0533  0.5461 -1.6167
  186POPC   H6S21334   1.409   0.639   5.021  1.2717  1.5342 -1.1542
  186POPC   C2721335   1.420   0.517   4.856  1.1148 -0.5214 -0.5801
  186POPC   H7R21336   1.310   0.516   4.871  1.1489 -2.0123 -0.2707
  186POPC   H7S21337   1.457   0.421   4.813 -0.3659 -0.7924 -1.3201
  186POPC   C2821338   1.460   0.642   4.775 -0.1780  0.4176  0.4330
  186POPC   H8R21339   1.570   0.650   4.757  0.1654 -2.7271  0.5202
  186POPC   H8S21340   1.413   0.728   4.826 -0.3598 -0.2442  1.3958
  186POPC   C2921341   1.396   0.638   4.640 -0.3036 -0.4516  0.7908
  186POPC   H9121342   1.402   0.540   4.589 -1.6797 -0.0124 -0.2846
  186POPC  C21021343   1.327   0.739   4.583 -0.2741 -0.0371  0.7561
  186POPC  H10121344   1.293   0.718   4.481  0.2854 -2.3214  0.9831
  186POPC  C21121345   1.304   0.880   4.630  0.1527  0.8481  0.6928
  186POPC  H11R21346   1.376   0.904   4.711  0.1885 -0.6936  1.1600
  186POPC  H11S21347   1.204   0.893   4.676 -0.1926 -2.0432  0.9835
  186POPC  C21221348   1.322   0.985   4.508 -0.4993  0.7178  0.7898
  186POPC  H12R21349   1.290   1.087   4.539 -0.5857  0.9368 -0.0001
  186POPC  H12S21350   1.249   0.966   4.427  1.4981 -1.2988 -0.6782
  186POPC  C21321351   1.468   0.990   4.448 -0.3903 -0.1307  0.0433
  186POPC  H13R21352   1.495   0.897   4.394  3.5621  0.9627 -0.2288
  186POPC  H13S21353   1.538   0.984   4.534  1.3197 -0.5099 -1.3131
  186POPC  C21421354   1.514   1.109   4.357  0.7665 -0.4959 -0.6271
  186POPC  H14R21355   1.593   1.073   4.288  1.6258  0.8968 -0.4073
  186POPC  H14S21356   1.551   1.191   4.421  2.0643 -2.5003  1.3502
  186POPC  C21521357   1.400   1.157   4.258  0.4470  1.0118 -0.1677
  186POPC  H15R21358   1.323   1.219   4.309 -0.7572 -0.7692  0.2836
  186POPC  H15S21359   1.353   1.059   4.233  0.9907 -0.2296  3.1919
  186POPC  C21621360   1.440   1.226   4.133  0.4053 -0.2658  0.2988
  186POPC  H16R21361   1.352   1.231   4.066  0.9318  0.5468 -0.3607
  186POPC  H16S21362   1.510   1.155   4.082 -0.2220 -0.9279  0.3440
  186POPC  C21721363   1.500   1.362   4.151 -0.1186  0.3100  0.2056
  186POPC  H17R21364   1.581   1.344   4.225 -0.0220 -2.3141 -0.4398
  186POPC  H17S21365   1.418   1.429   4.184 -0.2152 -0.8621  2.5618
  186POPC  C21821366   1.556   1.423   4.024 -0.3269 -0.0715 -0.1656
  186POPC  H18R21367   1.625   1.360   3.963 -0.2084  1.0470 -1.2213
  186POPC  H18S21368   1.616   1.507   4.065  0.3033 -0.2404 -0.7232
  186POPC  H18T21369   1.479   1.463   3.955 -1.0626 -0.3411  0.4758
  186POPC   C3321370   1.407   1.224   5.163  0.9989 -0.3580 -0.2407
  186POPC   H3X21371   1.506   1.205   5.209  0.9753 -2.2911 -0.8803
  186POPC   H3Y21372   1.360   1.316   5.205 -1.3180 -0.7215 -1.8177
  186POPC   C3421373   1.429   1.253   5.012  0.1656  0.6196 -0.4839
  186POPC   H4X21374   1.484   1.169   4.964 -0.2241 -0.6357  1.1634
  186POPC   H4Y21375   1.504   1.335   5.008  1.5826 -0.5264  1.2437
  186POPC   C3521376   1.295   1.283   4.944 -0.5833 -0.0072  0.1098
  186POPC   H5X21377   1.250   1.373   4.992  2.1606  1.5837 -0.0539
  186POPC   H5Y21378   1.235   1.190   4.947 -0.4936 -0.0570  0.3451
  186POPC   C3621379   1.323   1.332   4.803  0.2078  0.3236  0.3740
  186POPC   H6X21380   1.399   1.259   4.767  0.0875 -0.4269  1.5559
  186POPC   H6Y21381   1.378   1.428   4.810  2.6474 -0.6210 -3.0601
  186POPC   C3721382   1.195   1.343   4.719 -0.0266 -0.2046  0.0905
  186POPC   H7X21383   1.111   1.385   4.778  0.3345  0.2013  0.3227
  186POPC   H7Y21384   1.171   1.244   4.674 -1.2540 -1.1721  2.6691
  186POPC   C3821385   1.233   1.425   4.596  0.7316 -0.2223  0.4860
  186POPC   H8X21386   1.326   1.395   4.545  2.4857  3.7221  1.0014
  186POPC   H8Y21387   1.253   1.533   4.613  1.7128 -0.3662  0.2984
  186POPC   C3921388   1.130   1.419   4.486 -0.3403  0.0845  0.3850
  186POPC   H9X21389   1.027   1.451   4.513  0.0465  1.4595  0.2745
  186POPC   H9Y21390   1.124   1.318   4.440  2.2353  0.1958 -0.3603
  186POPC  C31021391   1.172   1.521   4.368  0.5750 -0.1290  0.0997
  186POPC  H10X21392   1.282   1.518   4.354  0.3806 -1.5694 -1.4901
  186POPC  H10Y21393   1.141   1.617   4.415 -0.0349  0.3827 -1.2923
  186POPC  C31121394   1.092   1.497   4.234  0.1104  0.7617  0.0615
  186POPC  H11X21395   0.982   1.501   4.250 -0.1878 -3.4114  0.1830
  186POPC  H11Y21396   1.123   1.395   4.201  1.0409  1.3580 -0.9777
  186POPC  C31221397   1.133   1.614   4.139 -0.4524 -0.8237 -0.2475
  186POPC  H12X21398   1.237   1.593   4.105 -0.0507  1.4037 -0.5564
  186POPC  H12Y21399   1.123   1.710   4.193  0.3701  0.0505 -1.5780
  186POPC  C31321400   1.053   1.621   4.010 -0.9106 -0.3701  0.0074
  186POPC  H13X21401   0.956   1.671   4.034 -0.8114 -1.1096  2.2149
  186POPC  H13Y21402   1.020   1.523   3.969 -1.7932  0.4776 -1.3742
  186POPC  C31421403   1.128   1.703   3.909 -1.0672  0.2507  0.4626
  186POPC  H14X21404   1.068   1.726   3.818 -0.6479 -1.1035 -0.1895
  186POPC  H14Y21405   1.218   1.649   3.873  0.4996  3.7082 -1.3274
  186POPC  C31521406   1.167   1.842   3.958  0.3920  0.4766 -0.4329
  186POPC  H15X21407   1.244   1.833   4.037 -0.5541  2.5173  0.8157
  186POPC  H15Y21408   1.079   1.886   4.009  1.4008  0.5398  1.3440
  186POPC  C31621409   1.205   1.930   3.834  0.2959 -0.4838  0.2930
  186POPC  H16X21410   1.113   1.958   3.779 -2.1294  0.1845  4.2699
  186POPC  H16Y21411   1.292   1.894   3.775  1.5555  1.3853  0.9168
  186POPC  H16Z21412   1.247   2.026   3.873 -1.0995  0.7971 -1.2564
  187POPC     N21413   5.801   6.118   1.632 -0.3016  0.4977 -0.0562
  187POPC   C1221414   5.921   6.021   1.651  0.0197 -0.8256  0.6524
  187POPC  H12A21415   5.993   6.057   1.724 -1.0353  2.1836  0.3426
  187POPC  H12B21416   5.974   6.029   1.557  0.5416  0.6666  1.0424
  187POPC   C1321417   5.718   6.072   1.515 -0.3237 -0.7223 -0.7035
  187POPC  H13A21418   5.630   6.135   1.507 -0.8240 -1.4427 -0.9969
  187POPC  H13B21419   5.770   6.097   1.424 -1.4818 -0.7702 -1.3983
  187POPC  H13C21420   5.692   5.968   1.527 -0.3214 -0.8650 -1.8240
  187POPC   C1421421   5.721   6.120   1.758  0.5004  0.1978 -1.0662
  187POPC  H14A21422   5.778   6.164   1.838  0.4811  0.1481 -1.0250
  187POPC  H14B21423   5.631   6.180   1.748  0.1796 -0.3393 -1.4497
  187POPC  H14C21424   5.696   6.020   1.791  0.5797  1.0505  1.8774
  187POPC   C1521425   5.850   6.257   1.599 -0.0620 -0.0215  0.3632
  187POPC  H15A21426   5.914   6.251   1.511 -0.2338  0.2912  0.2162
  187POPC  H15B21427   5.909   6.302   1.677 -1.3043  1.6494  0.3869
  187POPC  H15C21428   5.770   6.322   1.569  1.8485  2.0911 -0.4706
  187POPC   C1121429   5.897   5.870   1.673  0.2940  0.3054 -0.5102
  187POPC  H11A21430   5.995   5.819   1.684 -1.3524 -3.3030 -1.0076
  187POPC  H11B21431   5.835   5.831   1.590 -2.1794  0.7809  1.0239
  187POPC     P21432   5.882   5.824   1.935 -0.1378  0.4367 -0.4660
  187POPC   O1321433   6.021   5.883   1.938  0.1390 -0.1805 -0.4954
  187POPC   O1421434   5.861   5.683   1.973 -0.0128  0.1406 -0.0485
  187POPC   O1221435   5.817   5.854   1.795 -0.2831  0.0241 -0.0671
  187POPC   O1121436   5.792   5.915   2.027  0.0671  0.5194 -0.7299
  187POPC    C121437   5.658   5.870   2.073 -0.3045 -0.5346 -0.6012
  187POPC    HA21438   5.656   5.847   2.181  0.0078  2.5136  0.1455
  187POPC    HB21439   5.629   5.788   2.004  0.3680  0.0865 -1.6635
  187POPC    C221440   5.545   5.973   2.052 -0.7687  0.0876 -0.1338
  187POPC    HS21441   5.553   6.008   1.947 -0.7183 -1.6681 -0.7344
  187POPC   O2121442   5.559   6.088   2.140 -0.0473 -0.2210  0.8002
  187POPC   C2121443   5.485   6.190   2.111 -0.7255  0.0176 -0.4500
  187POPC   O2221444   5.415   6.211   2.018  0.1630  0.4220 -0.4225
  187POPC   C2221445   5.496   6.288   2.234  0.5713  0.2321  0.3633
  187POPC   H2R21446   5.392   6.304   2.268  0.9257 -0.1326  1.6552
  187POPC   H2S21447   5.534   6.383   2.191  2.0017  0.6660  2.4381
  187POPC    C321448   5.412   5.910   2.074  0.4531 -0.4750  0.5921
  187POPC    HX21449   5.387   5.824   2.009  1.0999 -0.2823  0.0752
  187POPC    HY21450   5.321   5.973   2.058  1.0461 -0.0086 -1.1007
  187POPC   O3121451   5.399   5.855   2.201 -0.0927 -0.2018 -0.2934
  187POPC   C3121452   5.321   5.900   2.294 -0.1578 -0.7242  0.2979
  187POPC   O3221453   5.251   6.001   2.280 -0.5906  0.1181  0.3541
  187POPC   C3221454   5.326   5.823   2.418  0.0417  0.1897  0.0711
  187POPC   H2X21455   5.396   5.736   2.413 -2.8282 -2.3667  0.9751
  187POPC   H2Y21456   5.226   5.783   2.447 -0.3080  1.5022  0.7433
  187POPC   C2321457   5.580   6.240   2.359 -0.0622  0.5607  0.8186
  187POPC   H3R21458   5.684   6.242   2.320  0.0397 -1.8706  0.8395
  187POPC   H3S21459   5.546   6.137   2.381  0.4954  0.0813 -0.4468
  187POPC   C2421460   5.600   6.337   2.477 -1.0512 -0.0183 -0.8549
  187POPC   H4R21461   5.619   6.444   2.454  1.0515 -0.1742 -0.0966
  187POPC   H4S21462   5.690   6.293   2.527 -0.6302 -1.5498 -2.8110
  187POPC   C2521463   5.487   6.333   2.572  0.5510 -0.5584  0.2263
  187POPC   H5R21464   5.463   6.226   2.584 -1.1461 -0.0456  1.9349
  187POPC   H5S21465   5.402   6.380   2.518 -1.0372 -1.4703  1.8580
  187POPC   C2621466   5.510   6.379   2.717 -0.0661  0.2751 -0.5351
  187POPC   H6R21467   5.523   6.489   2.721 -1.7910  0.4911 -0.1556
  187POPC   H6S21468   5.607   6.331   2.740 -1.0182 -2.8413 -2.3368
  187POPC   C2721469   5.403   6.337   2.812  0.6563  0.4276 -0.1069
  187POPC   H7R21470   5.395   6.226   2.807  0.4088  0.4419 -0.0223
  187POPC   H7S21471   5.309   6.377   2.770 -1.6178 -1.9540  2.3759
  187POPC   C2821472   5.428   6.379   2.959 -0.4695  0.6035  0.4081
  187POPC   H8R21473   5.330   6.368   3.009 -1.9062  1.3955 -2.0820
  187POPC   H8S21474   5.461   6.485   2.964  1.4443  0.1215 -0.7308
  187POPC   C2921475   5.538   6.290   3.019 -0.3091  0.0937  0.5566
  187POPC   H9121476   5.593   6.220   2.955 -0.0428 -0.7571  1.6797
  187POPC  C21021477   5.565   6.296   3.152  0.0420 -0.0576  0.4812
  187POPC  H10121478   5.632   6.227   3.207  1.4599  0.9887  0.1435
  187POPC  C21121479   5.491   6.389   3.243  0.0417 -0.1507  0.7975
  187POPC  H11R21480   5.383   6.399   3.219 -0.4244 -2.1081  1.8329
  187POPC  H11S21481   5.539   6.489   3.239 -2.4565  1.2926  3.0507
  187POPC  C21221482   5.511   6.335   3.387 -0.5232 -0.2076 -0.9897
  187POPC  H12R21483   5.618   6.322   3.414 -0.7481 -1.1503 -0.5122
  187POPC  H12S21484   5.464   6.235   3.391  1.2073 -1.1442 -2.3708
  187POPC  C21321485   5.453   6.429   3.497  0.0788 -0.2273  0.2749
  187POPC  H13R21486   5.343   6.412   3.491  0.1271 -0.0864 -2.0272
  187POPC  H13S21487   5.471   6.537   3.482  1.1210 -0.5528 -0.9959
  187POPC  C21421488   5.485   6.386   3.642 -0.4121 -0.7187  0.1943
  187POPC  H14R21489   5.591   6.410   3.666 -0.7827  0.5493  0.6321
  187POPC  H14S21490   5.484   6.277   3.661 -0.0454 -1.0470 -1.5456
  187POPC  C21521491   5.408   6.470   3.755 -0.3746 -0.1649  0.2972
  187POPC  H15R21492   5.298   6.461   3.750 -0.3611  0.3045 -1.0992
  187POPC  H15S21493   5.429   6.576   3.729 -1.3427  0.2282  1.0553
  187POPC  C21621494   5.451   6.460   3.906 -0.0974 -0.0259  0.5300
  187POPC  H16R21495   5.420   6.364   3.953 -1.5819  0.1562 -0.0142
  187POPC  H16S21496   5.396   6.548   3.946  0.2704 -0.4283  1.9610
  187POPC  C21721497   5.596   6.474   3.949 -0.4086  0.3232 -0.1515
  187POPC  H17R21498   5.641   6.568   3.910  3.2391 -1.1069  0.2557
  187POPC  H17S21499   5.659   6.395   3.905  0.6855  0.7131  0.6545
  187POPC  C21821500   5.622   6.468   4.100  0.4989  0.1743  0.2975
  187POPC  H18R21501   5.557   6.546   4.145 -1.2046 -0.7785 -0.3904
  187POPC  H18S21502   5.729   6.483   4.124  0.3294 -2.3203  3.2664
  187POPC  H18T21503   5.590   6.366   4.130  1.1655 -0.6828 -1.7120
  187POPC   C3321504   5.375   5.911   2.542  0.3202 -0.0771  0.3112
  187POPC   H3X21505   5.302   5.994   2.555  0.2100 -0.1790  0.3560
  187POPC   H3Y21506   5.472   5.958   2.519 -0.5880  2.9121  2.0609
  187POPC   C3421507   5.422   5.839   2.668 -0.2447  0.8767 -0.1143
  187POPC   H4X21508   5.474   5.916   2.729 -0.6060  2.4417 -1.6950
  187POPC   H4Y21509   5.497   5.763   2.641  0.0846  1.6333 -1.4091
  187POPC   C3521510   5.308   5.788   2.752  0.9079 -0.6755 -0.1873
  187POPC   H5X21511   5.346   5.748   2.848 -1.4974 -1.9474  0.3284
  187POPC   H5Y21512   5.254   5.702   2.707  0.5486 -1.2364  1.2758
  187POPC   C3621513   5.194   5.898   2.773 -0.3347  0.5372  0.2639
  187POPC   H6X21514   5.140   5.889   2.676  0.3799 -0.9034 -0.0375
  187POPC   H6Y21515   5.238   5.999   2.782  1.1983  0.1381 -1.8357
  187POPC   C3721516   5.122   5.870   2.903 -0.5966  0.2544  0.0722
  187POPC   H7X21517   5.099   5.766   2.935 -1.7005  0.3971 -0.2252
  187POPC   H7Y21518   5.021   5.915   2.893 -0.9632 -0.9503 -2.6905
  187POPC   C3821519   5.202   5.923   3.022 -0.2182 -0.2729 -0.3717
  187POPC   H8X21520   5.217   6.030   2.995 -1.9228  0.2481  0.5873
  187POPC   H8Y21521   5.306   5.888   3.040 -0.1854  0.1892  0.4025
  187POPC   C3921522   5.113   5.926   3.147 -0.4685 -0.1020 -0.2354
  187POPC   H9X21523   5.127   5.819   3.175  1.8564 -0.1241 -1.2645
  187POPC   H9Y21524   5.006   5.948   3.128 -0.6485 -0.7908 -0.0730
  187POPC  C31021525   5.158   5.997   3.282 -0.4012  0.1950  0.4757
  187POPC  H10X21526   5.157   6.106   3.261  1.7614  0.3265  0.8138
  187POPC  H10Y21527   5.256   5.953   3.309 -0.8144 -2.5277 -1.9607
  187POPC  C31121528   5.055   5.976   3.397 -0.2106 -0.1459  0.0774
  187POPC  H11X21529   5.082   5.878   3.442  3.0197  0.6093  0.0259
  187POPC  H11Y21530   4.955   5.962   3.352 -0.2424 -2.5785  0.7663
  187POPC  C31221531   5.065   6.093   3.496 -0.2151  0.3342  0.8757
  187POPC  H12X21532   5.037   6.184   3.438 -0.0333  0.0718  0.3681
  187POPC  H12Y21533   5.169   6.093   3.535  0.0642  0.1986  0.1426
  187POPC  C31321534   4.979   6.083   3.622  0.1333  0.3252 -0.3099
  187POPC  H13X21535   5.005   6.175   3.680  0.7338 -0.5756  0.9075
  187POPC  H13Y21536   5.015   6.002   3.689  0.2037  0.0583 -0.6685
  187POPC  C31421537   4.828   6.081   3.600  0.3897 -0.5393  0.2178
  187POPC  H14X21538   4.809   5.994   3.534 -0.8060  0.2908 -0.5733
  187POPC  H14Y21539   4.790   6.172   3.548 -1.0300 -0.5112  1.2366
  187POPC  C31521540   4.748   6.064   3.732 -0.8133  0.3434 -0.1100
  187POPC  H15X21541   4.641   6.061   3.701 -0.4892  0.7288 -1.3216
  187POPC  H15Y21542   4.764   6.152   3.798 -0.3180  0.4973 -0.4329
  187POPC  C31621543   4.767   5.933   3.808  0.5469 -0.1522 -0.3052
  187POPC  H16X21544   4.723   5.856   3.742 -0.0278 -0.9107  0.9230
  187POPC  H16Y21545   4.721   5.930   3.909  0.5183  2.0091 -0.2100
  187POPC  H16Z21546   4.875   5.913   3.823  0.5190  0.0009  0.1266
  188POPC     N21547   7.026   5.776   1.772 -0.6386 -0.5613 -0.0808
  188POPC   C1221548   7.017   5.712   1.909 -0.4655  0.6125  0.4217
  188POPC  H12A21549   7.047   5.789   1.979 -0.4268  2.0743 -1.1135
  188POPC  H12B21550   7.082   5.626   1.914 -0.0611  0.8561 -0.3512
  188POPC   C1321551   6.934   5.894   1.757 -0.3372 -1.2588 -0.7037
  188POPC  H13A21552   6.912   5.916   1.653  0.8742  1.1375 -0.5197
  188POPC  H13B21553   6.840   5.867   1.804 -1.2695 -0.1336 -1.8562
  188POPC  H13C21554   6.973   5.986   1.797 -0.2953 -1.0124 -1.2940
  188POPC   C1421555   7.159   5.836   1.751 -0.0217  0.3044 -0.5849
  188POPC  H14A21556   7.193   5.891   1.837  2.3591 -1.0968 -0.5323
  188POPC  H14B21557   7.225   5.751   1.738 -2.0374 -1.4197 -0.2738
  188POPC  H14C21558   7.160   5.899   1.663 -0.0743  1.9568  0.5633
  188POPC   C1521559   6.979   5.679   1.665 -0.1213  0.3146  0.2647
  188POPC  H15A21560   6.871   5.674   1.672 -0.1837  0.8860 -0.2132
  188POPC  H15B21561   7.030   5.584   1.670  2.6273  1.7537  1.2412
  188POPC  H15C21562   6.993   5.730   1.571 -0.4133  2.1767  1.1752
  188POPC   C1121563   6.882   5.649   1.955  0.1301  0.0740  0.4301
  188POPC  H11A21564   6.897   5.594   2.051 -1.2328 -2.8076 -0.8987
  188POPC  H11B21565   6.847   5.572   1.884  1.3598 -0.4683  0.3996
  188POPC     P21566   6.790   5.859   2.092  0.1191 -0.3706  0.0324
  188POPC   O1321567   6.712   5.982   2.045 -0.2735  0.9884 -0.0042
  188POPC   O1421568   6.930   5.881   2.127 -0.3341  0.2942 -0.2765
  188POPC   O1221569   6.785   5.754   1.978  0.1855 -0.8770  0.3939
  188POPC   O1121570   6.719   5.785   2.210  0.2505  0.0565 -0.3696
  188POPC    C121571   6.590   5.724   2.189 -0.0826  0.3826 -0.1689
  188POPC    HA21572   6.585   5.623   2.234  0.0060  1.1480  1.6556
  188POPC    HB21573   6.559   5.706   2.083 -1.3836  3.5609 -0.4408
  188POPC    C221574   6.479   5.812   2.248 -0.6188 -0.0691 -0.3921
  188POPC    HS21575   6.474   5.913   2.203 -0.8065  0.0355 -0.1369
  188POPC   O2121576   6.499   5.829   2.392  0.3197 -0.0448  0.5431
  188POPC   C2121577   6.577   5.923   2.430  0.6041  0.0642 -1.0695
  188POPC   O2221578   6.628   6.010   2.357  0.3211 -0.5824 -0.3826
  188POPC   C2221579   6.603   5.907   2.578 -0.3042 -0.1053 -0.1839
  188POPC   H2R21580   6.711   5.887   2.597 -0.3307 -0.2020 -0.1328
  188POPC   H2S21581   6.555   5.811   2.607 -0.3869 -0.5769 -1.7656
  188POPC    C321582   6.341   5.751   2.216  0.5833 -0.3549 -0.6879
  188POPC    HX21583   6.336   5.659   2.277  0.1335  0.1933  0.1128
  188POPC    HY21584   6.338   5.721   2.109  1.0366 -0.3774 -0.6975
  188POPC   O3121585   6.234   5.841   2.246 -0.3833 -0.0144 -0.5088
  188POPC   C3121586   6.117   5.778   2.273  0.1748 -0.1848 -0.6472
  188POPC   O3221587   6.095   5.660   2.253  0.1016 -0.7697  0.7046
  188POPC   C3221588   6.018   5.877   2.329  0.9602  0.1079  0.6228
  188POPC   H2X21589   6.007   5.959   2.256  0.2640  0.5833  1.2480
  188POPC   H2Y21590   6.055   5.925   2.422  0.0538 -0.8821  1.5282
  188POPC   C2321591   6.568   6.027   2.659  0.6803  0.3786  0.4796
  188POPC   H3R21592   6.459   6.045   2.648  0.5128  0.2907  1.8526
  188POPC   H3S21593   6.626   6.121   2.649 -1.0374  1.4767  0.4338
  188POPC   C2421594   6.577   6.002   2.809 -0.5456 -0.6829 -0.1816
  188POPC   H4R21595   6.686   5.982   2.823 -0.7919 -1.3976  0.9120
  188POPC   H4S21596   6.519   5.913   2.841  2.5526 -2.6423  0.4103
  188POPC   C2521597   6.533   6.125   2.898  0.2568 -0.3748 -0.0363
  188POPC   H5R21598   6.424   6.126   2.880  0.1398  1.7845  0.5366
  188POPC   H5S21599   6.564   6.220   2.849 -1.8371 -0.0207 -0.7768
  188POPC   C2621600   6.575   6.135   3.045  0.3227 -0.0501 -0.2562
  188POPC   H6R21601   6.685   6.152   3.055  0.0942  0.9029  0.9179
  188POPC   H6S21602   6.555   6.039   3.097  1.3879 -0.3569 -0.3778
  188POPC   C2721603   6.507   6.245   3.122  0.0406  0.7460 -0.3541
  188POPC   H7R21604   6.398   6.226   3.133  0.4049 -0.7190  1.0910
  188POPC   H7S21605   6.524   6.344   3.075  1.1170  0.0706 -1.4776
  188POPC   C2821606   6.567   6.259   3.265  0.4707 -0.2473 -0.2713
  188POPC   H8R21607   6.516   6.329   3.335 -0.6231 -0.6383 -0.6473
  188POPC   H8S21608   6.675   6.284   3.270  0.3767 -0.0453  2.4637
  188POPC   C2921609   6.554   6.136   3.354  0.3957  0.3620 -0.3058
  188POPC   H9121610   6.604   6.044   3.318 -1.9019 -0.8805 -0.5515
  188POPC  C21021611   6.472   6.112   3.461  0.4131  0.1728 -0.5315
  188POPC  H10121612   6.483   6.023   3.525  2.5779 -0.3677 -1.5701
  188POPC  C21121613   6.390   6.219   3.523 -0.0621  0.5407  0.2662
  188POPC  H11R21614   6.294   6.231   3.469 -1.2675  0.1809  2.2000
  188POPC  H11S21615   6.438   6.319   3.532 -0.9473  0.9728  0.3509
  188POPC  C21221616   6.343   6.179   3.668 -0.0995 -0.0010 -0.0755
  188POPC  H12R21617   6.313   6.272   3.720  2.5565  1.0122 -0.2327
  188POPC  H12S21618   6.431   6.141   3.723  0.7816  2.0938  0.0229
  188POPC  C21321619   6.246   6.063   3.668 -0.0195 -0.0294 -0.7723
  188POPC  H13R21620   6.305   5.976   3.633 -0.3782  0.1960 -1.9903
  188POPC  H13S21621   6.162   6.070   3.595 -0.1913 -0.4878 -0.6193
  188POPC  C21421622   6.217   6.002   3.807  0.7014  0.7074  0.0816
  188POPC  H14R21623   6.209   5.892   3.794  1.4117  0.5276  1.0276
  188POPC  H14S21624   6.114   6.036   3.830 -0.0702 -0.2441 -1.7380
  188POPC  C21521625   6.314   6.044   3.922 -0.5346 -0.1965 -0.7388
  188POPC  H15R21626   6.308   6.153   3.943 -2.0490 -0.6186  1.3518
  188POPC  H15S21627   6.417   6.008   3.902 -1.0386 -3.2326  1.4528
  188POPC  C21621628   6.274   5.973   4.055  0.0882 -0.5204 -0.6150
  188POPC  H16R21629   6.275   5.866   4.025  0.9956 -1.0468  1.1625
  188POPC  H16S21630   6.174   6.020   4.067  1.4628  2.9155 -1.3178
  188POPC  C21721631   6.357   6.007   4.174  0.0057  0.6649 -0.2411
  188POPC  H17R21632   6.303   6.073   4.245  0.1471 -0.6663  1.1403
  188POPC  H17S21633   6.452   6.056   4.144 -1.2892  2.1389 -2.1725
  188POPC  C21821634   6.387   5.880   4.258 -0.6012 -0.6605  0.7709
  188POPC  H18R21635   6.294   5.823   4.281 -1.6531  1.6450  2.5871
  188POPC  H18S21636   6.437   5.909   4.352  1.9881 -1.1115 -0.3728
  188POPC  H18T21637   6.472   5.822   4.216  1.8174  2.6774  0.7161
  188POPC   C3321638   5.885   5.810   2.357  0.1602  0.4836 -0.0993
  188POPC   H3X21639   5.893   5.745   2.447 -1.5565 -1.8268 -1.5011
  188POPC   H3Y21640   5.844   5.746   2.276 -0.1634 -0.0255  0.4621
  188POPC   C3421641   5.782   5.917   2.393 -0.3214  0.0729  0.0375
  188POPC   H4X21642   5.678   5.879   2.399 -0.0011 -0.6915  1.1668
  188POPC   H4Y21643   5.791   5.985   2.306  3.8592 -0.7072 -0.3511
  188POPC   C3521644   5.804   5.989   2.525  0.8789 -0.4427 -0.2744
  188POPC   H5X21645   5.719   6.060   2.538  2.0940  1.1753 -0.7667
  188POPC   H5Y21646   5.898   6.046   2.512  0.7828 -0.6641 -2.3702
  188POPC   C3621647   5.804   5.897   2.648  0.2357 -0.1386 -0.2759
  188POPC   H6X21648   5.894   5.831   2.651 -1.7257 -3.0135  2.9673
  188POPC   H6Y21649   5.721   5.828   2.619  1.3701 -0.9383 -1.7693
  188POPC   C3721650   5.757   5.961   2.779 -0.2967  0.0120  1.4586
  188POPC   H7X21651   5.656   6.001   2.759 -0.5476 -2.5545 -4.7523
  188POPC   H7Y21652   5.824   6.048   2.795  0.6252 -0.6108  1.0822
  188POPC   C3821653   5.766   5.861   2.900  0.2145 -0.0947  0.9940
  188POPC   H8X21654   5.871   5.829   2.916  0.6747  1.9114  2.2822
  188POPC   H8Y21655   5.707   5.770   2.877  1.5718 -0.8968  0.5420
  188POPC   C3921656   5.704   5.912   3.028 -0.0888  0.5331 -0.0872
  188POPC   H9X21657   5.602   5.948   3.004 -1.2147 -1.3342  1.6343
  188POPC   H9Y21658   5.767   5.991   3.073 -0.0724 -0.4920  1.7819
  188POPC  C31021659   5.693   5.793   3.120 -0.0767  0.1525  0.4340
  188POPC  H10X21660   5.790   5.770   3.169 -0.3630 -3.1792 -0.3582
  188POPC  H10Y21661   5.661   5.703   3.063 -0.6615  0.6997 -0.1194
  188POPC  C31121662   5.594   5.825   3.235 -0.0578  0.3144  0.5749
  188POPC  H11X21663   5.577   5.728   3.286  2.6051 -0.7351 -0.3329
  188POPC  H11Y21664   5.499   5.869   3.198 -0.3637  1.7345  2.8606
  188POPC  C31221665   5.648   5.930   3.330 -0.2464  0.5480 -0.4822
  188POPC  H12X21666   5.624   6.028   3.284 -3.0527 -0.3641 -1.1780
  188POPC  H12Y21667   5.759   5.928   3.336 -0.2960  0.8438  2.9200
  188POPC  C31321668   5.598   5.911   3.476  0.1568 -0.7386  0.1006
  188POPC  H13X21669   5.609   5.801   3.493 -2.5476 -0.7946  2.3327
  188POPC  H13Y21670   5.490   5.936   3.470  0.4847  0.6878 -0.1426
  188POPC  C31421671   5.672   5.993   3.584  0.1616  0.2238  0.0429
  188POPC  H14X21672   5.670   6.101   3.562 -1.0630  0.2041  0.0048
  188POPC  H14Y21673   5.782   5.973   3.583 -0.3407 -3.4960  1.4999
  188POPC  C31521674   5.625   5.977   3.728  0.5837  0.5077 -0.0543
  188POPC  H15X21675   5.515   5.994   3.727  0.5068  0.1316 -1.6961
  188POPC  H15Y21676   5.666   6.063   3.784 -2.0070  1.9265 -0.1940
  188POPC  C31621677   5.660   5.843   3.783  0.6170 -0.0270 -1.1618
  188POPC  H16X21678   5.594   5.759   3.755  1.4492 -1.4830  0.9683
  188POPC  H16Y21679   5.656   5.848   3.894 -3.3519  1.0709 -1.1994
  188POPC  H16Z21680   5.762   5.810   3.752  1.4793 -0.9453  2.2238
  189SAPI   C1221681   5.747   5.801   6.184  0.1357  1.2253  0.1487
  189SAPI    H221682   5.844   5.768   6.225 -0.2810  0.1730  0.3213
  189SAPI    O221683   5.672   5.684   6.149 -0.0335  0.2325 -0.0161
  189SAPI   HO221684   5.676   5.666   6.055  1.2011  3.0153 -0.5843
  189SAPI   C1321685   5.677   5.880   6.289 -0.3791 -0.0330 -0.0191
  189SAPI    H321686   5.741   5.969   6.305 -0.6239  0.0467  0.5503
  189SAPI    O321687   5.673   5.807   6.412  0.6028  0.1080 -0.2265
  189SAPI   HO321688   5.673   5.867   6.488  1.1110 -0.7270  0.4577
  189SAPI   C1421689   5.543   5.935   6.239 -0.2580  0.5774 -0.6519
  189SAPI    H421690   5.478   5.850   6.211  2.0573 -1.5730  0.1152
  189SAPI    O421691   5.474   6.011   6.340  0.6172 -0.1225 -0.1798
  189SAPI   HO421692   5.387   6.044   6.316  0.5447  1.5801  2.0505
  189SAPI   C1521693   5.572   6.022   6.120 -0.7583 -0.8898 -0.3338
  189SAPI    H521694   5.627   6.113   6.152  0.3863 -1.8462  0.4963
  189SAPI    O521695   5.449   6.080   6.065 -0.1034  0.4380 -0.8721
  189SAPI   HO521696   5.441   6.176   6.066 -4.5322  0.3340 -2.5413
  189SAPI   C1621697   5.650   5.949   6.008  0.0766 -0.1597  0.3246
  189SAPI    H621698   5.598   5.861   5.965  0.6566 -1.1035  1.4838
  189SAPI    O621699   5.689   6.042   5.910 -0.6023 -0.2514  0.1405
  189SAPI   HO621700   5.614   6.050   5.850  0.2193 -0.4438 -0.9387
  189SAPI   C1121701   5.782   5.891   6.066  0.0511 -0.9499  0.0105
  189SAPI    H121702   5.839   5.979   6.101 -0.2644 -0.4892 -0.6130
  189SAPI     P21703   6.007   5.815   5.961 -0.1953  0.8260  0.4815
  189SAPI   O1321704   6.067   5.685   5.992 -0.2482 -0.1368  0.0146
  189SAPI   O1421705   6.068   5.938   6.013  0.0986 -0.3270 -0.3022
  189SAPI   O1221706   5.851   5.801   5.976  0.3045  0.5262 -0.4409
  189SAPI   O1121707   6.016   5.816   5.805  0.0695  0.2128 -0.1890
  189SAPI    C121708   5.964   5.930   5.736 -0.0265 -0.2660 -0.4357
  189SAPI    HA21709   5.952   6.023   5.795  0.3732 -0.1325 -0.5586
  189SAPI    HB21710   6.043   5.949   5.659  1.2236 -0.0434  0.8696
  189SAPI    C221711   5.835   5.892   5.654 -0.2644 -0.4411  0.0970
  189SAPI    HS21712   5.762   5.850   5.727 -1.8793 -0.6570 -1.5677
  189SAPI   O2121713   5.872   5.795   5.550 -0.6483 -0.1069  0.4202
  189SAPI   C2121714   5.821   5.673   5.570 -0.0869 -0.0572 -0.1430
  189SAPI   O2221715   5.765   5.631   5.670 -0.2859  0.1684 -0.8954
  189SAPI   C2221716   5.859   5.583   5.449 -0.3607 -0.6423 -0.8462
  189SAPI   H2R21717   5.824   5.637   5.359  0.5021 -0.6827 -1.2159
  189SAPI   H2S21718   5.970   5.579   5.444 -0.2458 -2.1775  1.4511
  189SAPI    C321719   5.774   6.019   5.580 -0.0642 -0.6156 -0.2327
  189SAPI    HX21720   5.750   6.091   5.662 -0.3550  0.0217 -0.8708
  189SAPI    HY21721   5.675   5.989   5.542 -0.2641 -1.6223  1.0178
  189SAPI   O3121722   5.857   6.078   5.481 -0.0473  0.1968 -0.1023
  189SAPI   C3121723   5.919   6.185   5.514 -1.0927  0.0798 -0.5671
  189SAPI   O3221724   5.913   6.249   5.619 -0.1698  0.5123  0.2129
  189SAPI   C3221725   6.011   6.219   5.398  0.0556  0.4027 -0.2314
  189SAPI   H2X21726   6.095   6.279   5.440 -0.0111  1.0754 -1.0300
  189SAPI   H2Y21727   5.952   6.282   5.328  0.7759 -1.2131 -2.3854
  189SAPI   C2321728   5.789   5.449   5.468 -0.1907  0.1317 -0.8912
  189SAPI   H3R21729   5.769   5.416   5.572  0.5928  0.7019 -0.5565
  189SAPI   H3S21730   5.861   5.370   5.439  0.8753  0.8688 -0.2911
  189SAPI   C2421731   5.663   5.434   5.384  0.1202  0.0548  0.2483
  189SAPI   H4R21732   5.636   5.328   5.366  1.2217  0.0965 -1.9109
  189SAPI   H4S21733   5.700   5.457   5.282 -0.1114  2.8110  0.6923
  189SAPI   C2521734   5.549   5.515   5.431  0.3783 -0.4568  0.4536
  189SAPI   H5R21735   5.520   5.503   5.536 -1.1139  1.3826  0.3093
  189SAPI   C2621736   5.477   5.595   5.354  0.0779  0.1526  0.1332
  189SAPI   H6R21737   5.385   5.629   5.403  1.4339  0.6291  2.4544
  189SAPI   C2721738   5.496   5.628   5.202 -0.4439 -0.2285 -0.4732
  189SAPI   H7R21739   5.405   5.604   5.142  0.5817  2.6370 -3.4490
  189SAPI   H7S21740   5.579   5.574   5.152 -0.8910 -1.0616 -0.3341
  189SAPI   C2821741   5.518   5.776   5.200 -0.1770  0.4183 -0.5121
  189SAPI   H8R21742   5.575   5.804   5.290 -0.4475 -3.0861  0.9350
  189SAPI   C2921743   5.451   5.874   5.132 -0.3170  0.5657  0.0729
  189SAPI   H9R21744   5.492   5.976   5.125 -1.8209  1.1640 -0.6337
  189SAPI  C21021745   5.342   5.839   5.037  0.0354  0.1691 -0.4201
  189SAPI  H10R21746   5.370   5.748   4.980 -0.4550  0.0928 -0.5472
  189SAPI  H10S21747   5.347   5.928   4.971 -0.4858  1.1032  0.7705
  189SAPI  C21121748   5.203   5.827   5.088 -0.4181  0.5778  0.3049
  189SAPI  H11R21749   5.174   5.763   5.173  1.9110 -2.1951 -0.8368
  189SAPI  C21221750   5.103   5.906   5.044  0.1510 -0.0440 -0.0114
  189SAPI  H12R21751   5.006   5.897   5.095  0.2710  0.5459  0.3366
  189SAPI  C21321752   5.102   6.011   4.941 -0.4223  0.3036 -0.1540
  189SAPI  H13R21753   5.172   6.091   4.972  0.6100 -0.3955 -0.6308
  189SAPI  H13S21754   5.003   6.061   4.935 -0.7499 -0.4192 -0.9235
  189SAPI  C21421755   5.129   5.957   4.800  0.0605 -0.3836  0.4872
  189SAPI  H14R21756   5.148   5.849   4.791 -2.7914 -0.9112  0.1364
  189SAPI  C21521757   5.141   6.041   4.691  0.1524  0.5534 -0.2088
  189SAPI  H15R21758   5.156   5.996   4.591  0.2529 -0.9657  0.4583
  189SAPI  C21621759   5.123   6.191   4.695  0.0326 -0.3436  0.5611
  189SAPI  H16R21760   5.114   6.230   4.798 -1.6023 -0.9321  0.6707
  189SAPI  H16S21761   5.033   6.225   4.639 -0.3289 -1.4052  0.4759
  189SAPI  C21721762   5.240   6.267   4.632  0.1186  0.0215 -0.2718
  189SAPI  H17R21763   5.338   6.218   4.652 -0.3958 -1.2001 -0.6210
  189SAPI  H17S21764   5.245   6.366   4.682 -0.4529 -0.6533  1.1781
  189SAPI  C21821765   5.229   6.277   4.480 -0.2748 -0.4627 -1.0167
  189SAPI  H18R21766   5.133   6.326   4.453  0.1539  1.2306  0.4055
  189SAPI  H18S21767   5.231   6.175   4.435 -1.3004 -1.2889  0.7072
  189SAPI  C21921768   5.333   6.370   4.413  1.0688 -0.3022  0.3251
  189SAPI  H19R21769   5.438   6.346   4.437  1.5116  0.5538 -0.7164
  189SAPI  H19S21770   5.318   6.476   4.445 -0.8705 -0.5038  0.2433
  189SAPI  C22021771   5.322   6.375   4.259 -0.2159  0.0271  0.4045
  189SAPI  H20R21772   5.395   6.442   4.209 -1.2838  0.9506  0.0581
  189SAPI  H20S21773   5.221   6.408   4.227 -0.2080  3.3470  3.1999
  189SAPI  H20T21774   5.337   6.271   4.224  1.7320  0.5174 -0.3326
  189SAPI   C3321775   6.071   6.092   5.328 -0.5498 -0.6047  0.0195
  189SAPI   H3X21776   6.098   6.016   5.404 -2.6258 -1.6893 -0.2611
  189SAPI   H3Y21777   6.158   6.125   5.267 -1.5461  1.9143 -0.1729
  189SAPI   C3421778   5.973   6.024   5.231  0.0636  0.5090 -0.1635
  189SAPI   H4X21779   5.898   6.103   5.205  1.9041  2.0850 -0.9627
  189SAPI   H4Y21780   5.930   5.942   5.291 -0.3487 -0.2501 -1.4535
  189SAPI   C3521781   6.038   5.959   5.102 -0.0944 -0.7010 -0.0439
  189SAPI   H5X21782   6.100   5.875   5.139  0.5425  1.3440  4.1120
  189SAPI   H5Y21783   6.099   6.040   5.056  1.0441 -0.6441  1.4886
  189SAPI   C3621784   5.929   5.923   4.993 -0.5642  0.5803 -0.3137
  189SAPI   H6X21785   5.988   5.899   4.901  0.2262  0.9241  0.0910
  189SAPI   H6Y21786   5.871   6.017   4.978 -1.6214 -0.2484 -1.6162
  189SAPI   C3721787   5.851   5.798   5.029 -0.9831  0.6779 -0.6317
  189SAPI   H7X21788   5.785   5.821   5.115  1.5568  0.1347  1.6139
  189SAPI   H7Y21789   5.916   5.715   5.065  2.3017  3.8607  1.4549
  189SAPI   C3821790   5.772   5.736   4.911 -0.1923 -0.4916  0.0986
  189SAPI   H8X21791   5.705   5.821   4.885  2.1456  0.8832 -1.8774
  189SAPI   H8Y21792   5.716   5.644   4.935 -2.0972  0.4637 -0.5073
  189SAPI   C3921793   5.841   5.704   4.776  0.3360  0.5224 -0.5322
  189SAPI   H9X21794   5.911   5.618   4.785 -0.4990 -0.0330  0.9975
  189SAPI   H9Y21795   5.897   5.798   4.755  0.4657  0.8219  0.9937
  189SAPI  C31021796   5.736   5.677   4.669 -0.1283 -0.0853  0.1389
  189SAPI  H10X21797   5.660   5.603   4.704 -0.4718 -0.3224 -1.0583
  189SAPI  H10Y21798   5.793   5.630   4.586  1.4275 -0.4487  1.3858
  189SAPI  C31121799   5.658   5.802   4.622 -0.0323  0.3208  0.6768
  189SAPI  H11X21800   5.728   5.889   4.624 -0.8948  1.0212  0.7203
  189SAPI  H11Y21801   5.575   5.832   4.689 -1.1193  1.4153 -1.0898
  189SAPI  C31221802   5.595   5.793   4.480 -0.4630 -0.0472  0.5104
  189SAPI  H12X21803   5.521   5.710   4.474  1.7661 -2.1727  0.8299
  189SAPI  H12Y21804   5.675   5.752   4.414 -2.3295 -1.9274 -0.7027
  189SAPI  C31321805   5.558   5.931   4.410 -0.8048  0.1199 -0.0307
  189SAPI  H13X21806   5.654   5.986   4.400 -1.5332  2.2667  3.2786
  189SAPI  H13Y21807   5.484   5.991   4.468 -0.4096  0.8597 -0.2800
  189SAPI  C31421808   5.500   5.903   4.268  0.1035 -0.5893  0.1713
  189SAPI  H14X21809   5.403   5.851   4.285 -0.8636  0.4537 -1.8087
  189SAPI  H14Y21810   5.555   5.822   4.214  0.3278 -0.2934 -0.0447
  189SAPI  C31521811   5.495   6.035   4.200 -0.5865 -0.6943 -0.7988
  189SAPI  H15X21812   5.599   6.072   4.208 -0.9182  0.3094 -0.9705
  189SAPI  H15Y21813   5.441   6.105   4.267  0.2344 -0.5391 -0.2883
  189SAPI  C31621814   5.437   6.041   4.066 -0.2716  0.2501  0.6219
  189SAPI  H16X21815   5.479   5.957   4.008 -0.1547  0.4212  0.4571
  189SAPI  H16Y21816   5.467   6.132   4.009  1.2515  0.1110  1.1438
  189SAPI  C31721817   5.282   6.023   4.062  0.2866 -0.2377 -0.0458
  189SAPI  H17X21818   5.234   6.097   4.129 -2.1972 -0.0636 -1.8962
  189SAPI  H17Y21819   5.256   5.924   4.106  1.1169  0.2834  1.7163
  189SAPI  C31821820   5.212   6.046   3.926 -0.0603  0.0969  0.9836
  189SAPI  H18X21821   5.197   6.153   3.901  0.3508 -0.1021 -0.1737
  189SAPI  H18Y21822   5.128   5.976   3.903  0.2153 -0.5468  1.8412
  189SAPI  H18Z21823   5.277   6.006   3.846 -1.3801  1.0680 -0.6284
  190SAPI   C1221824   0.630   1.802   6.178 -0.4236  0.4154  0.2542
  190SAPI    H221825   0.577   1.885   6.126  0.6423 -0.4027 -2.2811
  190SAPI    O221826   0.708   1.735   6.073  0.1200  0.1538 -0.3493
  190SAPI   HO221827   0.638   1.692   6.024  0.0053  1.2568 -1.2010
  190SAPI   C1321828   0.699   1.870   6.293 -0.3799  0.0743 -0.7176
  190SAPI    H321829   0.617   1.915   6.353 -1.7369 -0.6297 -1.9982
  190SAPI    O321830   0.787   1.968   6.245 -0.6630 -0.2154 -0.1497
  190SAPI   HO321831   0.848   1.930   6.181  0.5978 -1.1090  1.5036
  190SAPI   C1421832   0.767   1.762   6.373  0.5395  0.5078  0.5893
  190SAPI    H421833   0.836   1.712   6.302 -0.8250  1.5030 -1.5323
  190SAPI    O421834   0.844   1.817   6.473 -0.2851 -0.0614 -0.3995
  190SAPI   HO421835   0.907   1.753   6.508 -0.7552  0.1217  0.8409
  190SAPI   C1521836   0.676   1.647   6.426  0.0481 -1.1383 -0.4187
  190SAPI    H521837   0.612   1.695   6.503  2.0853  0.6412  0.2877
  190SAPI    O521838   0.757   1.541   6.487  0.1758 -0.3415 -0.0485
  190SAPI   HO521839   0.814   1.585   6.550 -1.1176  1.8556 -0.2947
  190SAPI   C1621840   0.590   1.588   6.314 -0.0698  0.0051 -0.4907
  190SAPI    H621841   0.647   1.524   6.243  0.0014 -0.2805 -0.1787
  190SAPI    O621842   0.484   1.500   6.374  0.2607 -0.1939 -0.0036
  190SAPI   HO621843   0.415   1.551   6.416  1.2749 -0.3660  1.9583
  190SAPI   C1121844   0.528   1.705   6.231 -0.4427 -0.2033 -0.4257
  190SAPI    H121845   0.462   1.759   6.301  0.7210  1.2642 -0.4280
  190SAPI     P21846   0.296   1.675   6.085 -0.1484 -0.3384  0.0414
  190SAPI   O1321847   0.223   1.746   6.192 -0.0837 -0.2717 -0.2715
  190SAPI   O1421848   0.249   1.546   6.039 -0.0916  0.2965  0.0088
  190SAPI   O1221849   0.453   1.671   6.114  0.1171  0.5000  0.6252
  190SAPI   O1121850   0.277   1.769   5.961 -0.0123 -0.6666 -0.4032
  190SAPI    C121851   0.385   1.803   5.877  0.1403  0.2367  1.0363
  190SAPI    HA21852   0.451   1.880   5.922  1.8078  0.0949 -1.0241
  190SAPI    HB21853   0.445   1.714   5.847 -0.4785  0.7503 -2.0699
  190SAPI    C221854   0.335   1.876   5.748  0.1787 -0.4725  0.3866
  190SAPI    HS21855   0.294   1.977   5.768 -2.6018 -1.6370  1.1691
  190SAPI   O2121856   0.239   1.795   5.679  0.2280  0.0645 -0.1829
  190SAPI   C2121857   0.173   1.848   5.575 -0.2282 -0.1572 -0.3891
  190SAPI   O2221858   0.166   1.966   5.551 -0.4339  0.0949 -0.4727
  190SAPI   C2221859   0.104   1.735   5.497  0.7486  0.7661  0.4484
  190SAPI   H2R21860   0.111   1.636   5.548 -2.5570  0.9260  1.4232
  190SAPI   H2S21861  -0.003   1.755   5.521  1.2125  0.8168  2.7469
  190SAPI    C321862   0.465   1.893   5.659 -0.2181 -0.4063 -0.3440
  190SAPI    HX21863   0.535   1.947   5.726 -0.8870 -1.2183  1.0524
  190SAPI    HY21864   0.432   1.953   5.572 -0.0771  1.2462  0.6985
  190SAPI   O3121865   0.521   1.770   5.598 -0.4644 -0.6059  0.4165
  190SAPI   C3121866   0.627   1.712   5.660 -0.5972  0.4253 -0.0236
  190SAPI   O3221867   0.672   1.738   5.771  0.2416 -0.0885  0.9203
  190SAPI   C3221868   0.689   1.610   5.562  0.1851 -0.0342  0.3977
  190SAPI   H2X21869   0.772   1.563   5.617 -0.9725 -0.7746  1.5559
  190SAPI   H2Y21870   0.722   1.674   5.477  0.5370  0.8728  1.1994
  190SAPI   C2321871   0.141   1.750   5.346 -0.0686  0.3965 -0.0923
  190SAPI   H3R21872   0.088   1.837   5.302 -0.7652  1.2486  2.2753
  190SAPI   H3S21873   0.094   1.660   5.302  1.5942 -1.3195  1.4203
  190SAPI   C2421874   0.293   1.760   5.315  0.2606 -0.4344 -0.4159
  190SAPI   H4R21875   0.347   1.666   5.338  2.3643  1.1060  1.2866
  190SAPI   H4S21876   0.336   1.832   5.388 -2.9503 -0.3927  1.6652
  190SAPI   C2521877   0.308   1.807   5.170 -0.4049  0.0958 -1.0043
  190SAPI   H5R21878   0.275   1.911   5.159 -2.0134 -0.0819  1.3024
  190SAPI   C2621879   0.347   1.730   5.066 -0.4028 -0.5852  0.1290
  190SAPI   H6R21880   0.347   1.778   4.967 -1.2247 -1.0643 -0.1112
  190SAPI   C2721881   0.392   1.585   5.070 -0.1119 -0.7164 -0.5306
  190SAPI   H7R21882   0.459   1.570   5.158  0.7138 -0.4103 -1.0892
  190SAPI   H7S21883   0.452   1.563   4.979  1.0991  2.0295 -0.5041
  190SAPI   C2821884   0.280   1.488   5.065  0.6682 -0.0430 -0.8800
  190SAPI   H8R21885   0.277   1.427   5.157 -2.7707  1.4999  0.1810
  190SAPI   C2921886   0.193   1.461   4.962  1.1950  0.4930  0.4302
  190SAPI   H9R21887   0.131   1.371   4.970  2.9990 -0.7221  1.4764
  190SAPI  C21021888   0.189   1.530   4.827  0.0025 -0.8767 -0.4073
  190SAPI  H10R21889   0.180   1.452   4.748  0.7898 -0.9655 -0.4168
  190SAPI  H10S21890   0.288   1.573   4.801  0.0300 -1.1082 -0.6860
  190SAPI  C21121891   0.082   1.638   4.824  0.2767  0.2279  0.1260
  190SAPI  H11R21892   0.005   1.622   4.901  2.1584 -1.2959  1.7946
  190SAPI  C21221893   0.076   1.746   4.748  0.7578  0.5776  0.4052
  190SAPI  H12R21894   0.008   1.830   4.769  0.5836  0.6553 -0.4355
  190SAPI  C21321895   0.178   1.786   4.641 -0.4298 -0.2627 -0.0460
  190SAPI  H13R21896   0.171   1.704   4.566  1.9723 -1.0771  0.5339
  190SAPI  H13S21897   0.282   1.789   4.681 -0.6431 -0.4532  0.5236
  190SAPI  C21421898   0.155   1.928   4.581 -0.4700 -0.1102  0.4840
  190SAPI  H14R21899   0.071   1.988   4.620  0.1472  2.1841 -1.5043
  190SAPI  C21521900   0.222   1.979   4.478  0.5849  0.3117  0.1828
  190SAPI  H15R21901   0.197   2.081   4.446 -2.1851 -0.3421  0.0104
  190SAPI  C21621902   0.332   1.912   4.395  0.1671  0.1962 -0.4152
  190SAPI  H16R21903   0.353   1.807   4.424 -2.4352 -0.5835 -1.1555
  190SAPI  H16S21904   0.427   1.967   4.414 -0.8199  1.8770 -0.1856
  190SAPI  C21721905   0.306   1.918   4.239 -0.2422 -0.5252 -0.3000
  190SAPI  H17R21906   0.410   1.906   4.202 -0.2955  2.3209 -1.6759
  190SAPI  H17S21907   0.281   2.020   4.202 -0.8258 -0.9259 -1.0099
  190SAPI  C21821908   0.215   1.810   4.188 -0.0507 -0.3813  0.3960
  190SAPI  H18R21909   0.127   1.808   4.256  0.7750 -2.5142  1.5321
  190SAPI  H18S21910   0.265   1.711   4.196  1.0250 -0.2138 -2.8835
  190SAPI  C21921911   0.165   1.834   4.049  0.3189  0.3126 -0.0283
  190SAPI  H19R21912   0.100   1.924   4.053  0.3702  0.3737 -0.5176
  190SAPI  H19S21913   0.102   1.746   4.024  0.5695 -0.2262  1.1475
  190SAPI  C22021914   0.272   1.858   3.948  0.2587 -0.3691 -0.5257
  190SAPI  H20R21915   0.343   1.772   3.937  0.7960  0.2746 -2.3427
  190SAPI  H20S21916   0.335   1.949   3.962 -0.5131  0.4242 -2.0113
  190SAPI  H20T21917   0.229   1.882   3.849 -0.9361  0.3973  0.1601
  190SAPI   C3321918   0.597   1.500   5.504  0.1437 -0.5514  0.4016
  190SAPI   H3X21919   0.659   1.449   5.427 -1.3350 -1.0607 -0.4788
  190SAPI   H3Y21920   0.504   1.531   5.452 -0.3170 -0.3714  1.3121
  190SAPI   C3421921   0.555   1.382   5.593  0.3153 -0.5273 -0.0296
  190SAPI   H4X21922   0.516   1.411   5.693 -0.3209  1.0579 -0.6887
  190SAPI   H4Y21923   0.643   1.317   5.611  1.2257  0.4038 -0.9471
  190SAPI   C3521924   0.452   1.285   5.531 -0.6316  0.3565 -0.2241
  190SAPI   H5X21925   0.352   1.330   5.516  0.3825  2.4982 -0.9654
  190SAPI   H5Y21926   0.444   1.203   5.605  0.2157  0.8816  0.4685
  190SAPI   C3621927   0.496   1.231   5.394  0.3991 -0.7973 -0.4503
  190SAPI   H6X21928   0.605   1.212   5.392  0.7876  1.2026 -0.6353
  190SAPI   H6Y21929   0.478   1.317   5.325  1.2880  0.2845  0.6289
  190SAPI   C3721930   0.435   1.096   5.348  0.9284 -0.6387 -0.8693
  190SAPI   H7X21931   0.328   1.091   5.374  0.8930  0.1988 -0.8409
  190SAPI   H7Y21932   0.477   1.028   5.425  0.1071  1.3994  1.4827
  190SAPI   C3821933   0.476   1.052   5.213  0.3122  0.3314  0.4124
  190SAPI   H8X21934   0.426   0.956   5.187  0.7707  0.2554 -0.2140
  190SAPI   H8Y21935   0.587   1.046   5.209  0.2857 -0.0702  0.2031
  190SAPI   C3921936   0.429   1.151   5.105 -0.7695 -0.1392 -0.3321
  190SAPI   H9X21937   0.482   1.247   5.124 -1.1545 -0.2999  1.8586
  190SAPI   H9Y21938   0.319   1.166   5.116 -0.9764 -1.3950 -0.5201
  190SAPI  C31021939   0.462   1.108   4.956 -0.0889  0.0622 -0.6169
  190SAPI  H10X21940   0.417   1.007   4.946  1.6761 -0.5976 -2.3024
  190SAPI  H10Y21941   0.570   1.086   4.969 -0.3817 -1.4162 -0.4784
  190SAPI  C31121942   0.410   1.208   4.861  0.1580  0.0773  0.7132
  190SAPI  H11X21943   0.458   1.307   4.882  1.3045 -0.6158  1.5325
  190SAPI  H11Y21944   0.300   1.210   4.868 -0.1286  1.3835 -2.5572
  190SAPI  C31221945   0.445   1.161   4.721  0.6213  0.0202  0.7504
  190SAPI  H12X21946   0.418   1.053   4.714 -0.3329  0.0609  3.0559
  190SAPI  H12Y21947   0.555   1.164   4.704  0.9730 -0.5352  2.6963
  190SAPI  C31321948   0.365   1.226   4.603  0.2735  0.3398  0.7403
  190SAPI  H13X21949   0.257   1.214   4.627  0.6207  0.0892  2.3010
  190SAPI  H13Y21950   0.384   1.179   4.505  0.5616 -0.9561  1.3977
  190SAPI  C31421951   0.390   1.371   4.582  0.2950  0.5444  0.9603
  190SAPI  H14X21952   0.406   1.428   4.676  0.1011 -0.7795  1.8244
  190SAPI  H14Y21953   0.302   1.418   4.532  0.8123 -1.9966 -2.6648
  190SAPI  C31521954   0.509   1.403   4.500 -0.5200 -0.3208 -0.0890
  190SAPI  H15X21955   0.501   1.347   4.405  0.6689  0.8361 -0.9062
  190SAPI  H15Y21956   0.596   1.361   4.554 -0.2274  0.0049 -0.3035
  190SAPI  C31621957   0.518   1.554   4.463 -0.8224  0.8870 -0.6249
  190SAPI  H16X21958   0.481   1.617   4.546 -2.1731  0.5980 -0.9959
  190SAPI  H16Y21959   0.454   1.586   4.378  1.1847  1.4234 -2.0279
  190SAPI  C31721960   0.666   1.598   4.438  0.0394  0.3899  0.3062
  190SAPI  H17X21961   0.687   1.535   4.349 -0.6596 -1.0946  1.1589
  190SAPI  H17Y21962   0.739   1.556   4.511 -0.4419 -3.0137 -0.9959
  190SAPI  C31821963   0.682   1.744   4.415  0.0825 -0.0022 -0.1090
  190SAPI  H18X21964   0.586   1.794   4.386  0.4304  2.7518  2.9348
  190SAPI  H18Y21965   0.761   1.773   4.342 -0.6576  0.0524 -0.9117
  190SAPI  H18Z21966   0.698   1.792   4.514 -0.9120  0.3224 -0.0899
  191SAPI   C1221967   4.276   3.671   1.565 -0.1851  0.0522  0.7745
  191SAPI    H221968   4.346   3.640   1.484 -0.7696  0.8109 -0.0471
  191SAPI    O221969   4.345   3.783   1.626  0.2775  0.6008  0.2612
  191SAPI   HO221970   4.436   3.755   1.617 -0.3287 -1.7195  0.4755
  191SAPI   C1321971   4.145   3.714   1.497 -0.0938 -0.0351  0.5540
  191SAPI    H321972   4.102   3.633   1.433  1.0938 -0.0928 -0.2038
  191SAPI    O321973   4.163   3.816   1.397  0.2328  0.4384  0.1676
  191SAPI   HO321974   4.213   3.885   1.441  1.9989  0.4840 -1.7345
  191SAPI   C1421975   4.044   3.757   1.602  0.3148  0.7987  0.1636
  191SAPI    H421976   4.095   3.843   1.651  2.5861  0.1169 -0.8706
  191SAPI    O421977   3.915   3.789   1.541 -0.3557  0.0157 -0.1086
  191SAPI   HO421978   3.857   3.825   1.609 -0.7431  1.4451 -1.1380
  191SAPI   C1521979   4.020   3.653   1.710 -0.9758  0.2991  0.2106
  191SAPI    H521980   3.998   3.561   1.652  3.5154 -0.7814 -0.2086
  191SAPI    O521981   3.913   3.678   1.794 -0.1013 -0.2203  0.0157
  191SAPI   HO521982   3.878   3.591   1.812  0.6674 -0.2271  1.6408
  191SAPI   C1621983   4.154   3.608   1.773  0.0926  0.5897 -0.4860
  191SAPI    H621984   4.206   3.682   1.838  2.2959 -1.2149 -0.0652
  191SAPI    O621985   4.139   3.492   1.864  0.0026 -0.0900  0.6408
  191SAPI   HO621986   4.223   3.448   1.879 -0.2359 -0.9011 -0.2736
  191SAPI   C1121987   4.251   3.563   1.663  0.6490  0.7404 -1.3584
  191SAPI    H121988   4.203   3.487   1.597  0.1614  1.4450 -1.8215
  191SAPI     P21989   4.462   3.392   1.711  0.2134  0.1288  0.2599
  191SAPI   O1321990   4.560   3.417   1.609 -0.4019  0.1166 -0.2518
  191SAPI   O1421991   4.374   3.272   1.700  0.1308  0.1210  0.1778
  191SAPI   O1221992   4.377   3.528   1.726  1.0249 -0.4213 -0.0690
  191SAPI   O1121993   4.527   3.378   1.845 -0.2532 -0.5757 -0.4152
  191SAPI    C121994   4.628   3.472   1.887  0.3282 -0.1301 -0.6763
  191SAPI    HA21995   4.723   3.419   1.865 -0.1793 -1.6742  0.6530
  191SAPI    HB21996   4.627   3.573   1.841 -2.8878 -0.0590 -0.6758
  191SAPI    C221997   4.614   3.504   2.040  1.1056 -0.3108  0.8026
  191SAPI    HS21998   4.711   3.548   2.071  1.3492 -0.2269 -0.0705
  191SAPI   O2121999   4.570   3.391   2.115 -0.1291  0.9061  0.5263
  191SAPI   C2122000   4.663   3.294   2.124  0.1132  0.4346  0.5003
  191SAPI   O2222001   4.778   3.295   2.088  0.2112 -0.6232 -0.5272
  191SAPI   C2222002   4.599   3.178   2.197  0.1319  1.2047 -0.2764
  191SAPI   H2R22003   4.489   3.174   2.187  0.1807 -2.2966 -0.7542
  191SAPI   H2S22004   4.634   3.077   2.167 -0.6287  0.6052  0.7992
  191SAPI    C322005   4.519   3.632   2.045  0.6467  0.0960 -0.1063
  191SAPI    HX22006   4.423   3.601   1.999  1.1915 -0.2816 -1.0100
  191SAPI    HY22007   4.563   3.714   1.985 -0.1744  1.8299  1.5429
  191SAPI   O3122008   4.492   3.669   2.174  0.0316  0.5317  0.0004
  191SAPI   C3122009   4.592   3.724   2.252 -0.4570  0.4353 -0.8284
  191SAPI   O3222010   4.702   3.762   2.213 -0.5080 -0.0390  0.3334
  191SAPI   C3222011   4.561   3.690   2.394 -0.4582  0.2655 -0.3936
  191SAPI   H2X22012   4.507   3.593   2.396 -2.2263  1.1664  2.3630
  191SAPI   H2Y22013   4.488   3.766   2.431  1.9392  2.1951  0.6605
  191SAPI   C2322014   4.612   3.195   2.353 -0.5664  0.4644  0.3042
  191SAPI   H3R22015   4.568   3.098   2.386 -0.5841  0.6232  0.7518
  191SAPI   H3S22016   4.547   3.277   2.390  0.2385  2.5766 -2.5628
  191SAPI   C2422017   4.758   3.194   2.403  0.0671 -0.2486  0.8455
  191SAPI   H4R22018   4.825   3.138   2.334 -1.6986 -1.5468  0.1133
  191SAPI   H4S22019   4.748   3.137   2.497  2.0439 -1.3541  0.4320
  191SAPI   C2522020   4.790   3.339   2.423 -0.0110  0.0555 -0.9400
  191SAPI   H5R22021   4.754   3.418   2.355  0.5396 -0.1292 -1.4492
  191SAPI   C2622022   4.881   3.387   2.519  0.3726  0.2916  0.5199
  191SAPI   H6R22023   4.896   3.493   2.544  3.3877  0.0700  0.0047
  191SAPI   C2722024   4.959   3.293   2.615 -0.2040  0.0833  0.7593
  191SAPI   H7R22025   5.007   3.200   2.577  2.1629  0.4900  2.5210
  191SAPI   H7S22026   4.891   3.260   2.697 -0.8658  1.6340  0.8787
  191SAPI   C2822027   5.082   3.368   2.662  0.1512  0.2775  0.5316
  191SAPI   H8R22028   5.143   3.405   2.579 -1.8456  0.1832 -1.0545
  191SAPI   C2922029   5.129   3.382   2.791 -0.0337  1.0007 -0.0497
  191SAPI   H9R22030   5.221   3.440   2.805 -0.0328  0.4751  2.7032
  191SAPI  C21022031   5.061   3.313   2.903  0.4092 -0.6048 -0.2926
  191SAPI  H10R22032   5.038   3.208   2.875  2.7665 -1.4172  0.5250
  191SAPI  H10S22033   4.971   3.376   2.919  0.9815  0.3280 -0.6463
  191SAPI  C21122034   5.140   3.305   3.034  0.0396 -0.0916 -0.4832
  191SAPI  H11R22035   5.231   3.245   3.024 -0.6083 -1.0433 -0.8302
  191SAPI  C21222036   5.111   3.346   3.157  0.0268  0.0390  0.0454
  191SAPI  H12R22037   5.183   3.313   3.233  0.7756 -1.5236 -1.2777
  191SAPI  C21322038   4.994   3.424   3.212 -0.3091 -0.0124 -0.0793
  191SAPI  H13R22039   4.983   3.389   3.317  0.3831 -1.7736 -0.5574
  191SAPI  H13S22040   4.903   3.399   3.154  0.3025 -0.3435 -0.9144
  191SAPI  C21422041   4.996   3.579   3.206  0.4265 -0.0541 -0.1041
  191SAPI  H14R22042   5.067   3.620   3.133 -0.4067  1.7554  0.0714
  191SAPI  C21522043   4.918   3.656   3.279  0.1573  0.0027 -0.6179
  191SAPI  H15R22044   4.942   3.763   3.279 -0.0983  0.0800  0.7273
  191SAPI  C21622045   4.820   3.611   3.387 -0.2006  0.2001 -0.5131
  191SAPI  H16R22046   4.820   3.501   3.404  1.6945  0.2760  0.1312
  191SAPI  H16S22047   4.715   3.632   3.358  0.2559  0.5137 -2.0269
  191SAPI  C21722048   4.848   3.690   3.516  0.2667  0.3036 -0.9456
  191SAPI  H17R22049   4.782   3.645   3.593  0.1749  2.0920  0.0770
  191SAPI  H17S22050   4.799   3.789   3.510 -2.0807 -0.5302  1.7837
  191SAPI  C21822051   4.990   3.693   3.566 -0.3464 -0.1364 -0.3039
  191SAPI  H18R22052   5.051   3.752   3.495 -0.5883 -0.3526 -0.6949
  191SAPI  H18S22053   5.028   3.588   3.560 -0.3537 -0.3596  2.2887
  191SAPI  C21922054   5.006   3.745   3.708  0.4165  0.7777  0.8653
  191SAPI  H19R22055   5.100   3.703   3.750 -0.8427 -0.9790  2.0509
  191SAPI  H19S22056   4.935   3.692   3.775  1.4820 -2.0331 -0.0934
  191SAPI  C22022057   5.005   3.899   3.738  0.1230 -0.3368  0.5203
  191SAPI  H20R22058   4.941   3.951   3.664  0.1647 -0.1218  0.6315
  191SAPI  H20S22059   5.101   3.946   3.708 -1.4964  2.4283 -0.7010
  191SAPI  H20T22060   4.976   3.927   3.842  1.3492  1.0555  0.5284
  191SAPI   C3322061   4.681   3.685   2.494 -0.3779  0.0278 -0.1717
  191SAPI   H3X22062   4.717   3.787   2.516  0.1509  0.2459 -1.9166
  191SAPI   H3Y22063   4.764   3.618   2.462 -2.7897 -3.7861  0.7581
  191SAPI   C3422064   4.631   3.625   2.629  0.8039 -0.0138 -0.0769
  191SAPI   H4X22065   4.594   3.520   2.619 -3.1450  1.0932  1.0605
  191SAPI   H4Y22066   4.546   3.689   2.661  1.7461  1.4914 -0.4601
  191SAPI   C3522067   4.735   3.620   2.747 -0.1605 -0.4257  0.5593
  191SAPI   H5X22068   4.728   3.717   2.800  0.8608 -0.1352  0.1963
  191SAPI   H5Y22069   4.838   3.596   2.714 -0.3741 -1.2438  0.4622
  191SAPI   C3622070   4.705   3.519   2.861  0.5845  0.5791  0.4782
  191SAPI   H6X22071   4.766   3.548   2.949  3.6058  1.4022 -1.7022
  191SAPI   H6Y22072   4.746   3.422   2.825  1.1347 -0.1235  2.8552
  191SAPI   C3722073   4.560   3.500   2.904  0.1151  0.9457 -1.3685
  191SAPI   H7X22074   4.492   3.460   2.825  0.5273 -0.9504 -0.8285
  191SAPI   H7Y22075   4.519   3.598   2.934 -1.5371  0.1821 -1.0167
  191SAPI   C3822076   4.539   3.398   3.025 -0.1635  0.7269 -1.2137
  191SAPI   H8X22077   4.639   3.367   3.062 -0.4080 -1.3091 -2.1047
  191SAPI   H8Y22078   4.497   3.303   2.983 -2.2755  1.1363 -0.1732
  191SAPI   C3922079   4.454   3.443   3.143 -0.3418 -0.2630 -0.1555
  191SAPI   H9X22080   4.353   3.466   3.102 -0.5456  1.6937  1.3100
  191SAPI   H9Y22081   4.495   3.537   3.186 -0.4447 -1.0279  1.7129
  191SAPI  C31022082   4.440   3.335   3.248  0.0929  0.2197  0.1839
  191SAPI  H10X22083   4.544   3.317   3.281  0.8614  1.7730 -1.2306
  191SAPI  H10Y22084   4.410   3.234   3.214  2.5713  0.1797 -2.2337
  191SAPI  C31122085   4.354   3.365   3.367 -0.0967  0.0776 -0.0677
  191SAPI  H11X22086   4.253   3.399   3.337  0.8121  1.6214 -1.5549
  191SAPI  H11Y22087   4.394   3.454   3.421 -0.8651 -0.2925  1.1617
  191SAPI  C31222088   4.334   3.245   3.457 -0.2608  0.8163 -0.2911
  191SAPI  H12X22089   4.422   3.179   3.444 -1.3096 -0.5276 -0.8401
  191SAPI  H12Y22090   4.255   3.180   3.414 -0.5987 -0.4417  2.0455
  191SAPI  C31322091   4.307   3.278   3.606  0.3923 -0.0557 -0.1662
  191SAPI  H13X22092   4.212   3.335   3.612 -1.1585 -2.4811 -0.5098
  191SAPI  H13Y22093   4.394   3.338   3.643  0.1326  1.1012 -1.3581
  191SAPI  C31422094   4.300   3.143   3.686 -0.0833 -0.8079 -0.5423
  191SAPI  H14X22095   4.391   3.081   3.670 -0.3759 -1.2839 -0.3837
  191SAPI  H14Y22096   4.209   3.083   3.662 -1.8549  0.8073  1.7099
  191SAPI  C31522097   4.297   3.172   3.837 -0.1613 -0.2463 -0.2048
  191SAPI  H15X22098   4.389   3.220   3.875 -2.3030  2.6056  1.8396
  191SAPI  H15Y22099   4.286   3.073   3.888 -2.2036 -0.6396 -1.2918
  191SAPI  C31622100   4.179   3.266   3.866 -0.1404  0.3797 -0.0697
  191SAPI  H16X22101   4.084   3.236   3.816  0.9083 -0.3991 -1.6506
  191SAPI  H16Y22102   4.200   3.369   3.831  0.0072 -0.0344 -1.2286
  191SAPI  C31722103   4.153   3.277   4.019 -0.2906  0.7319  0.3703
  191SAPI  H17X22104   4.252   3.281   4.070  0.5049 -2.1943 -0.6995
  191SAPI  H17Y22105   4.105   3.181   4.047  2.0361 -0.9026 -0.8926
  191SAPI  C31822106   4.067   3.399   4.063 -0.3377 -0.0981 -0.0468
  191SAPI  H18X22107   4.100   3.496   4.021 -0.6090  0.7330  1.5953
  191SAPI  H18Y22108   4.060   3.421   4.171  0.7520  2.7162 -0.4810
  191SAPI  H18Z22109   3.964   3.365   4.036 -0.5562  0.2328  0.3789
  192SAPI   C1222110   0.835   2.343   1.461  0.1804  0.3786 -0.3710
  192SAPI    H222111   0.921   2.374   1.524 -1.3731 -0.5473  2.3624
  192SAPI    O222112   0.732   2.442   1.488 -0.1302  0.4380 -0.0122
  192SAPI   HO222113   0.766   2.531   1.474  0.3507  0.1765 -0.5399
  192SAPI   C1322114   0.885   2.334   1.318 -0.3481  0.3414 -0.1337
  192SAPI    H322115   0.977   2.273   1.320  0.4298  1.4518 -1.1949
  192SAPI    O322116   0.915   2.466   1.274 -0.0309  0.0572 -0.0922
  192SAPI   HO322117   0.847   2.531   1.293 -0.6592 -0.1734 -1.4328
  192SAPI   C1422118   0.780   2.267   1.228 -0.1019  0.3518 -0.0330
  192SAPI    H422119   0.687   2.328   1.228 -0.4097 -0.1113 -0.6074
  192SAPI    O422120   0.828   2.268   1.099  0.1293  0.1659 -0.1262
  192SAPI   HO422121   0.762   2.325   1.059  0.0316  0.3292  0.2565
  192SAPI   C1522122   0.747   2.131   1.278 -0.2984 -0.4187 -0.5185
  192SAPI    H522123   0.836   2.065   1.268  0.4865  0.5363 -0.0347
  192SAPI    O522124   0.653   2.065   1.196 -0.4466  0.1230  0.1296
  192SAPI   HO522125   0.699   2.007   1.135  2.4972  1.1611  1.1794
  192SAPI   C1622126   0.711   2.123   1.431  0.0905 -0.4157 -0.4469
  192SAPI    H622127   0.613   2.168   1.459  0.6459  1.0306 -0.7412
  192SAPI    O622128   0.699   1.983   1.477  0.3526 -0.2606 -0.0190
  192SAPI   HO622129   0.625   1.982   1.539  0.9730  2.1125  0.8627
  192SAPI   C1122130   0.817   2.201   1.521  0.5121  0.1156  0.8524
  192SAPI    H122131   0.913   2.146   1.512 -0.4546 -1.5737  0.6127
  192SAPI     P22132   0.875   2.212   1.790  0.5906  0.3710 -0.4987
  192SAPI   O1322133   0.802   2.288   1.895 -0.5572 -0.2201  0.4091
  192SAPI   O1422134   1.014   2.264   1.762 -0.1920  0.0145 -0.0439
  192SAPI   O1222135   0.780   2.208   1.654 -0.0474 -0.1022 -0.7426
  192SAPI   O1122136   0.881   2.058   1.826  0.3535 -0.0842  0.2752
  192SAPI    C122137   0.776   1.962   1.828  0.2551 -0.0625  0.2468
  192SAPI    HA22138   0.722   1.965   1.730  0.4501  0.0065  0.1407
  192SAPI    HB22139   0.809   1.858   1.849 -0.8712  0.0687  3.0105
  192SAPI    C222140   0.673   1.997   1.942 -0.1821  0.3798  0.5018
  192SAPI    HS22141   0.632   2.096   1.913 -0.5921  0.4053  1.1512
  192SAPI   O2122142   0.740   2.010   2.073 -0.4983  0.0252  0.3726
  192SAPI   C2122143   0.679   2.096   2.156 -0.3023  0.5970  0.6187
  192SAPI   O2222144   0.577   2.156   2.130  0.4026  0.0877 -0.1782
  192SAPI   C2222145   0.744   2.092   2.292 -0.6853  0.6355 -0.2198
  192SAPI   H2R22146   0.845   2.138   2.296  0.5746 -2.0289  0.5248
  192SAPI   H2S22147   0.693   2.160   2.363  0.9797 -0.3140  2.0239
  192SAPI    C322148   0.553   1.898   1.958  0.1402  0.8681  0.4717
  192SAPI    HX22149   0.600   1.810   2.007 -2.7753 -1.0831 -0.0195
  192SAPI    HY22150   0.517   1.870   1.857  2.3603 -2.1561  0.3872
  192SAPI   O3122151   0.448   1.943   2.052 -0.7473  0.1675  0.0713
  192SAPI   C3122152   0.358   2.024   1.997  0.2317  1.1281 -0.1899
  192SAPI   O3222153   0.354   2.073   1.888  0.1789  0.4321 -0.3690
  192SAPI   C3222154   0.253   2.042   2.109 -0.1602  0.3740 -0.2396
  192SAPI   H2X22155   0.311   2.091   2.191  0.3381  0.2998 -0.5424
  192SAPI   H2Y22156   0.215   1.950   2.158 -0.7947  0.9330  0.3412
  192SAPI   C2322157   0.751   1.950   2.361 -0.0374  0.1304 -0.3596
  192SAPI   H3R22158   0.797   1.960   2.462 -1.8726  0.4674  0.5016
  192SAPI   H3S22159   0.820   1.882   2.307  0.6734 -1.8328  2.7649
  192SAPI   C2422160   0.609   1.896   2.384 -0.9088  0.5148 -0.2662
  192SAPI   H4R22161   0.548   1.916   2.293 -1.2193 -0.5642 -0.3168
  192SAPI   H4S22162   0.560   1.947   2.470 -2.3302 -1.1178 -0.0374
  192SAPI   C2522163   0.622   1.753   2.413  0.5351  0.3713 -0.8563
  192SAPI   H5R22164   0.601   1.694   2.323  1.6667  0.0501 -0.9207
  192SAPI   C2622165   0.640   1.693   2.531  0.0862 -0.4786  0.7823
  192SAPI   H6R22166   0.646   1.583   2.527  1.6873 -0.3777 -2.2762
  192SAPI   C2722167   0.657   1.763   2.666  0.1625  0.6602 -0.0448
  192SAPI   H7R22168   0.600   1.698   2.735 -0.9826  1.3552 -0.3085
  192SAPI   H7S22169   0.618   1.868   2.668 -0.3174  0.4795  0.7138
  192SAPI   C2822170   0.804   1.772   2.716 -0.3113  0.2965 -0.1836
  192SAPI   H8R22171   0.880   1.818   2.652  1.6124 -0.8756  1.1598
  192SAPI   C2922172   0.848   1.735   2.838 -1.1887 -0.5806 -0.6400
  192SAPI   H9R22173   0.955   1.752   2.855 -0.7856 -3.8296  0.6536
  192SAPI  C21022174   0.774   1.677   2.954 -0.2337  0.3417 -0.0825
  192SAPI  H10R22175   0.821   1.581   2.985 -0.5385  0.7261  1.6637
  192SAPI  H10S22176   0.673   1.643   2.923  0.6533 -0.8972 -1.8152
  192SAPI  C21122177   0.770   1.770   3.070  0.2820 -0.2132 -0.7948
  192SAPI  H11R22178   0.681   1.832   3.087 -1.7539 -3.3065  0.9050
  192SAPI  C21222179   0.861   1.784   3.169 -0.1480 -0.4057 -0.2585
  192SAPI  H12R22180   0.851   1.865   3.242  2.7316  1.1895 -1.4852
  192SAPI  C21322181   0.986   1.701   3.173 -0.0641 -0.8627 -0.1305
  192SAPI  H13R22182   1.014   1.662   3.073  1.3291 -1.6617  0.5347
  192SAPI  H13S22183   0.973   1.606   3.230 -1.7985  0.2389  1.4124
  192SAPI  C21422184   1.101   1.773   3.232 -0.2044  0.2259 -0.6040
  192SAPI  H14R22185   1.170   1.820   3.160  0.2539  0.6024  0.0697
  192SAPI  C21522186   1.137   1.789   3.365  0.1618  0.7851  0.3554
  192SAPI  H15R22187   1.226   1.852   3.382 -0.4482  2.4758 -2.0498
  192SAPI  C21622188   1.067   1.729   3.483 -0.3799  0.0119 -0.4683
  192SAPI  H16R22189   0.958   1.742   3.467 -0.7476 -1.1336  0.8805
  192SAPI  H16S22190   1.088   1.807   3.559 -1.5901  3.2285 -3.1957
  192SAPI  C21722191   1.094   1.587   3.526  0.0437  0.7774 -0.1601
  192SAPI  H17R22192   1.067   1.530   3.434 -2.6425  3.8595 -1.4791
  192SAPI  H17S22193   1.018   1.553   3.599  1.8293 -2.7794  0.3143
  192SAPI  C21822194   1.243   1.564   3.566  0.0446  0.0247  0.6336
  192SAPI  H18R22195   1.258   1.607   3.668 -0.1936  1.3692  0.1289
  192SAPI  H18S22196   1.305   1.625   3.496  2.5485 -1.1898  1.6583
  192SAPI  C21922197   1.281   1.424   3.560 -0.3864  0.0993  0.0061
  192SAPI  H19R22198   1.276   1.374   3.461 -0.8227 -1.4345  0.7712
  192SAPI  H19S22199   1.203   1.370   3.618  2.7632 -3.3896  1.3860
  192SAPI  C22022200   1.412   1.395   3.651 -0.5167 -0.3765  0.2871
  192SAPI  H20R22201   1.451   1.295   3.622  1.2330  0.2658  0.3446
  192SAPI  H20S22202   1.386   1.405   3.758  1.8470  2.6811  0.7165
  192SAPI  H20T22203   1.491   1.472   3.638 -0.9499  0.7883  3.5979
  192SAPI   C3322204   0.132   2.133   2.067  0.4280 -0.2128  0.0100
  192SAPI   H3X22205   0.080   2.097   1.976  1.2238  0.4661 -0.7274
  192SAPI   H3Y22206   0.174   2.235   2.053  2.1832 -1.2243 -2.7300
  192SAPI   C3422207   0.031   2.144   2.187 -0.0349  0.1693  0.3893
  192SAPI   H4X22208   0.007   2.036   2.199  0.3419 -0.3446 -2.5673
  192SAPI   H4Y22209  -0.065   2.191   2.159  0.1577 -0.3762 -1.3045
  192SAPI   C3522210   0.085   2.197   2.315 -1.1425 -0.3125  0.1127
  192SAPI   H5X22211   0.008   2.271   2.348 -1.9350 -1.3921  0.7837
  192SAPI   H5Y22212   0.182   2.248   2.300  1.0719 -3.1683  3.2964
  192SAPI   C3622213   0.097   2.094   2.423  0.7676  0.5095  0.0356
  192SAPI   H6X22214   0.174   2.024   2.385  1.0365  1.4786 -1.3047
  192SAPI   H6Y22215   0.001   2.040   2.434  0.3499  1.3434  0.5633
  192SAPI   C3722216   0.145   2.131   2.560 -0.4690  0.1586 -0.9277
  192SAPI   H7X22217   0.103   2.062   2.637  1.5345  2.2027  2.2759
  192SAPI   H7Y22218   0.104   2.233   2.575  0.6624  0.5107 -0.0813
  192SAPI   C3822219   0.305   2.137   2.559  0.1644 -0.0879  0.2102
  192SAPI   H8X22220   0.335   2.208   2.479  0.3549  1.8233  1.8633
  192SAPI   H8Y22221   0.347   2.038   2.534  0.7942  0.4374 -0.8987
  192SAPI   C3922222   0.363   2.196   2.690  0.1544 -0.3662 -1.0356
  192SAPI   H9X22223   0.365   2.118   2.770 -2.4529 -1.1120 -1.5919
  192SAPI   H9Y22224   0.297   2.279   2.724 -1.2600 -2.0599  0.6238
  192SAPI  C31022225   0.505   2.242   2.674  0.4766 -0.3521 -0.1711
  192SAPI  H10X22226   0.508   2.347   2.637  0.8226 -0.9704 -2.0063
  192SAPI  H10Y22227   0.553   2.181   2.594 -1.3167  2.6936 -3.9020
  192SAPI  C31122228   0.584   2.227   2.814  0.2767 -0.7618  0.7704
  192SAPI  H11X22229   0.578   2.120   2.842  0.2509 -1.3591 -1.3964
  192SAPI  H11Y22230   0.536   2.281   2.899 -0.7054 -0.8901  0.3079
  192SAPI  C31222231   0.735   2.272   2.795  0.4747 -0.7865  0.2033
  192SAPI  H12X22232   0.792   2.275   2.891  2.2969  4.7843 -0.7094
  192SAPI  H12Y22233   0.734   2.380   2.769 -1.8115 -0.4236  1.5660
  192SAPI  C31322234   0.814   2.191   2.693  0.1963  0.7275 -0.4374
  192SAPI  H13X22235   0.795   2.230   2.591  0.3788 -1.6062 -1.4080
  192SAPI  H13Y22236   0.780   2.086   2.688 -0.0107  0.7285  0.6185
  192SAPI  C31422237   0.960   2.199   2.727  0.4161  0.1383  0.2597
  192SAPI  H14X22238   0.988   2.305   2.746 -1.5184  0.3052  2.6341
  192SAPI  H14Y22239   1.001   2.166   2.629 -2.9038 -0.6037 -1.0417
  192SAPI  C31522240   0.998   2.108   2.835  0.4747 -0.0469  0.8625
  192SAPI  H15X22241   0.975   2.000   2.821 -2.8123  0.4479  1.5784
  192SAPI  H15Y22242   0.941   2.146   2.923  0.3732 -1.6837  1.5345
  192SAPI  C31622243   1.145   2.133   2.864 -0.3556  0.1934 -0.3979
  192SAPI  H16X22244   1.158   2.243   2.871  0.1139  0.0269  1.9143
  192SAPI  H16Y22245   1.207   2.099   2.778  1.3719  0.5298  0.6670
  192SAPI  C31722246   1.182   2.060   2.991 -0.9015  0.3034 -0.5704
  192SAPI  H17X22247   1.180   1.952   2.965  0.3183  0.3024 -0.7636
  192SAPI  H17Y22248   1.110   2.085   3.071 -0.6474  0.3431 -0.3526
  192SAPI  C31822249   1.325   2.089   3.041 -0.6416 -0.0608  0.4685
  192SAPI  H18X22250   1.353   2.035   3.134 -1.6658 -0.5950  0.4894
  192SAPI  H18Y22251   1.338   2.197   3.065  0.5977 -0.4003  1.3963
  192SAPI  H18Z22252   1.397   2.058   2.962 -2.7014 -3.1782 -0.4065
  193SOD    SOD22253   0.853   2.019   6.644 -0.4044 -0.3235 -0.1514
  194SOD    SOD22254   1.126   6.994   7.277 -0.3352  0.0437  0.3693
  195SOD    SOD22255   6.087   5.240   6.554  0.6472 -0.2223  0.2418
  196SOD    SOD22256   0.487   0.393   6.264  0.3514 -0.0996 -0.1284
  197SOD    SOD22257   6.970   6.385   6.267  0.0284  0.1332 -0.2146
  198SOD    SOD22258   4.317   4.548   0.259  0.4414 -0.5735  0.4438
  199SOD    SOD22259   3.509   0.576   0.685  0.0509 -0.2216 -0.0467
  200SOD    SOD22260   5.980   0.646   6.852 -0.6955 -0.2124  0.0493
  201SOD    SOD22261   1.127   2.549   1.204 -0.0217  0.0003 -0.2721
  202SOD    SOD22262   6.964   5.688   7.433  0.1892 -0.0199 -0.2234
  203SOD    SOD22263   1.550   5.093   0.629 -0.1240 -0.2665  0.0331
  204SOD    SOD22264   2.928   2.635   6.431 -0.7107  0.3489  0.4588
  205SOD    SOD22265   2.408   0.041   0.018  0.1331 -0.1066 -0.2676
  206SOD    SOD22266   3.705   5.725   5.959 -0.0111 -0.2530  0.1023
  207SOD    SOD22267   6.534   1.567   7.892  0.1753  0.5921 -0.1034
  208SOD    SOD22268   0.412   1.162   6.624  0.5794  0.5856 -0.4591
  209SOD    SOD22269   1.617   1.669   1.516  0.0331  0.5195 -0.4721
  210SOD    SOD22270   5.574   4.414   1.318  0.4840 -0.1837 -0.0267
  211SOD    SOD22271   0.547   6.920   1.022  0.6699 -0.1632  0.0848
  212SOD    SOD22272   2.182   5.115   1.566 -0.1110  0.0040  0.0309
  213SOD    SOD22273   3.571   0.074   6.178 -0.2342 -0.1969  0.5148
  214SOD    SOD22274   5.821   1.935   2.045 -0.0627  0.0582 -0.4182
  215SOD    SOD22275   1.573   2.662   0.830  0.1080 -0.1564  0.0216
  216SOD    SOD22276   5.054   4.594   0.404 -0.0627 -0.5329 -0.5702
  217SOD    SOD22277   2.939   5.260   6.308  0.2907  0.1173 -0.6253
  218SOD    SOD22278   1.132   7.132   7.781  0.1113  0.0277 -0.3321
  219SOD    SOD22279   7.019   6.527   7.104  0.0488  0.6110  0.6342
  220SOD    SOD22280   5.581   1.058   6.999  0.3463  0.3594  0.1812
  221SOD    SOD22281   3.600   3.260   7.142 -0.3274  0.4839  0.0212
  222SOD    SOD22282   2.008   0.611   6.197 -0.6862 -0.5228  0.0794
  223SOD    SOD22283   4.765   0.473   6.137  0.2488 -0.1462 -0.0427
  224SOD    SOD22284   0.893   1.828   5.922 -0.1138  0.0967  0.3984
  225SOD    SOD22285   3.161   5.265   1.237  0.0851  0.3303 -0.3725
  226SOD    SOD22286   6.379   2.169   1.778  0.2444 -0.0686 -0.2908
  227SOD    SOD22287   6.791   3.804   7.559 -0.0376 -0.0364 -0.1705
  228SOD    SOD22288   2.653   6.076   7.360  0.1413 -0.1736 -0.1656
  229SOD    SOD22289   4.005   0.855   1.198  0.8560 -0.6365 -0.1969
  230SOD    SOD22290   2.187   6.365   7.109  0.8119  0.1180  0.2717
  231SOD    SOD22291   1.279   3.926   0.181  0.0682 -0.1635 -0.4490
  232SOD    SOD22292   0.174   2.157   0.282  0.1092 -0.5711  0.5650
  233SOD    SOD22293   2.096   3.277   6.287 -0.0679  0.2429 -0.0323
  234CLA    CLA22294   4.633   6.522   6.516  0.2894 -0.3888  0.1170
  235CLA    CLA22295   6.342   5.712   7.118 -0.3195 -0.0105  0.3614
  236CLA    CLA22296   3.215   2.809   7.417  0.4276 -0.1482 -0.5495
  237CLA    CLA22297   1.478   0.112   7.490 -0.0135 -0.0792  0.1109
  238CLA    CLA22298   0.376   0.092   0.622  0.0153 -0.4011 -0.3427
  239CLA    CLA22299   0.650   2.213   0.239  0.3462 -0.2610  0.1081
  240CLA    CLA22300   5.212   7.150   0.801  0.0423  0.2681  0.1777
  241CLA    CLA22301   6.900   6.501   6.680 -0.5399  0.3231 -0.1653
  242CLA    CLA22302   2.115   5.746   0.124 -0.0440  0.0247 -0.1499
  243CLA    CLA22303   0.067   1.624   7.008 -0.7717  0.3232 -0.1389
  244CLA    CLA22304   0.911   1.075   7.397 -0.5110 -0.0949 -0.3630
  245CLA    CLA22305   1.715   6.633   7.534  1.0067 -0.5028 -0.1840
  246CLA    CLA22306   6.517   0.669   7.093 -0.1258 -0.8456  0.0298
  247CLA    CLA22307   6.512   2.148   7.217  0.3209  0.1257 -0.0672
  248CLA    CLA22308   2.971   6.679   7.607  0.3130 -0.2068 -0.3269
  249CLA    CLA22309   1.369   3.434   7.468 -0.2505  0.0030 -0.1915
  250CLA    CLA22310   2.529   6.147   6.714  0.3231  0.3335  0.0681
  251TIP3   OH222311   6.876   4.953   6.242 -0.3643  0.4234 -0.1891
  251TIP3    H122312   6.858   4.880   6.302 -0.8732 -0.1020 -0.9619
  251TIP3    H222313   6.869   5.031   6.297  1.5384 -0.1463  0.9752
  252TIP3   OH222314   5.175   7.023   1.482 -0.1256 -0.4676 -0.1689
  252TIP3    H122315   5.090   6.995   1.515 -0.6111  0.1812 -0.8440
  252TIP3    H222316   5.169   7.012   1.388 -0.4270  2.0434 -0.5183
  253TIP3   OH222317   2.247   2.104   6.412  0.3372  0.1169 -0.0453
  253TIP3    H122318   2.331   2.064   6.389  0.1876  0.2936 -0.9189
  253TIP3    H222319   2.198   2.106   6.330  0.3532  2.1337 -0.0514
  254TIP3   OH222320   6.623   3.377   0.091 -0.2008 -0.1075  0.2225
  254TIP3    H122321   6.653   3.441   0.156 -0.7280 -0.2066  0.5758
  254TIP3    H222322   6.647   3.415   0.007 -2.6538  1.8108  0.2568
  255TIP3   OH222323   2.895   1.349   7.978  0.2836 -0.4348  0.2904
  255TIP3    H122324   2.901   1.294   8.057  0.4860  0.9246  1.2620
  255TIP3    H222325   2.980   1.340   7.936 -0.3192 -2.3711 -0.6629
  256TIP3   OH222326   0.899   5.255   7.574 -0.5143  0.1130  0.1812
  256TIP3    H122327   0.923   5.183   7.516 -0.1495  1.1836 -1.0455
  256TIP3    H222328   0.957   5.327   7.549 -2.6568  1.7067 -0.5547
  257TIP3   OH222329   6.946   4.878   7.629  0.3910 -0.4549  0.4964
  257TIP3    H122330   7.041   4.882   7.645  0.7856  2.1241 -1.7376
  257TIP3    H222331   6.908   4.868   7.716  2.6688 -0.0316  1.6343
  258TIP3   OH222332   4.981   0.351   7.148 -0.3459 -0.3916  0.1546
  258TIP3    H122333   5.052   0.330   7.087  0.6107 -3.3192  2.0599
  258TIP3    H222334   4.901   0.323   7.103  0.2872 -1.9736 -0.0608
  259TIP3   OH222335   0.576   4.420   0.580 -0.6424  0.2933  0.0433
  259TIP3    H122336   0.516   4.429   0.506 -0.4131  1.2461 -0.0454
  259TIP3    H222337   0.663   4.425   0.541 -0.5156  1.6618  0.4405
  260TIP3   OH222338   7.054   2.922   6.883  0.1413 -0.2229 -0.0774
  260TIP3    H122339   7.032   3.003   6.838 -0.1025 -0.7573 -0.9277
  260TIP3    H222340   7.082   2.862   6.814  0.7197 -0.7440  0.5812
  261TIP3   OH222341   4.237   6.464   6.358  0.2177  0.1119  0.3799
  261TIP3    H122342   4.315   6.514   6.333 -2.1081  4.3237  0.6349
  261TIP3    H222343   4.189   6.452   6.276 -0.7724  1.2731  0.7715
  262TIP3   OH222344   4.194   6.835   0.089 -0.0352  0.6760  0.6868
  262TIP3    H122345   4.222   6.788   0.168  0.6178  0.6003  0.4150
  262TIP3    H222346   4.197   6.927   0.114  0.0361  0.6464  0.7881
  263TIP3   OH222347   0.449   6.102   1.211 -0.8721  0.3739  0.3025
  263TIP3    H122348   0.374   6.095   1.153  0.5291  2.7631 -1.9822
  263TIP3    H222349   0.438   6.185   1.256  0.7243  1.1537 -0.6583
  264TIP3   OH222350   3.555   5.423   0.428  0.4278 -0.0684 -0.3832
  264TIP3    H122351   3.553   5.353   0.363 -1.2059 -0.0764 -0.3739
  264TIP3    H222352   3.492   5.395   0.495  1.9067  0.0420  1.1235
  265TIP3   OH222353   3.278   0.294   0.994 -0.1795 -0.4170 -0.0978
  265TIP3    H122354   3.192   0.334   0.983  1.0181  2.3554 -0.1476
  265TIP3    H222355   3.271   0.243   1.075 -1.7530  0.0970  0.1096
  266TIP3   OH222356   1.136   4.626   0.470 -0.1868 -0.2826 -0.3059
  266TIP3    H122357   1.154   4.582   0.553  0.2264 -0.4298 -0.4673
  266TIP3    H222358   1.206   4.596   0.412 -1.0873 -1.0403 -1.0339
  267TIP3   OH222359   3.199   1.909   6.286 -0.9185 -0.0684  0.0910
  267TIP3    H122360   3.120   1.942   6.329  0.2800  2.0564  0.8485
  267TIP3    H222361   3.199   1.950   6.200 -0.6268 -0.0190  0.1130
  268TIP3   OH222362   5.847   5.546   1.707  0.0522 -0.3625  0.1769
  268TIP3    H122363   5.823   5.601   1.782  0.4415  0.8783 -0.5617
  268TIP3    H222364   5.933   5.511   1.730 -0.6637 -1.5888  1.1214
  269TIP3   OH222365   4.040   2.641   5.588 -0.0473 -0.0499  0.5922
  269TIP3    H122366   4.114   2.701   5.576  0.8304 -0.6471  2.5486
  269TIP3    H222367   3.978   2.664   5.518  2.4307 -0.2485 -1.8659
  270TIP3   OH222368   1.566   1.773   1.301 -0.2662 -0.1166  0.2582
  270TIP3    H122369   1.645   1.793   1.250 -0.7021  0.0633 -0.3513
  270TIP3    H222370   1.494   1.794   1.242 -0.7634 -0.9185  0.5780
  271TIP3   OH222371   2.918   1.862   6.145 -0.0817  0.0403 -0.0761
  271TIP3    H122372   2.948   1.891   6.060  0.8096  0.0477  0.2309
  271TIP3    H222373   2.923   1.940   6.201  1.9201 -0.5303  0.6426
  272TIP3   OH222374   2.985   0.326   1.676  0.4852 -0.6210  0.1448
  272TIP3    H122375   2.941   0.411   1.685 -0.3419 -1.1758  1.7640
  272TIP3    H222376   2.944   0.271   1.743  0.5273 -2.5125 -1.3047
  273TIP3   OH222377   6.933   3.454   7.169  0.0468  0.0888 -0.4151
  273TIP3    H122378   6.919   3.447   7.075  0.3242 -0.4635 -0.4168
  273TIP3    H222379   6.863   3.400   7.207  0.3806 -0.2887 -0.3310
  274TIP3   OH222380   4.928   5.598   0.995  0.4930  0.4416  0.0723
  274TIP3    H122381   4.901   5.551   1.074  0.9647 -2.0789 -1.1674
  274TIP3    H222382   4.901   5.541   0.923 -0.8272  3.1083 -1.6981
  275TIP3   OH222383   6.838   6.865   7.529  0.3798 -0.0680  0.6691
  275TIP3    H122384   6.870   6.926   7.462 -1.1277 -0.1274 -0.1546
  275TIP3    H222385   6.806   6.920   7.599 -0.9277  0.1274 -0.0494
  276TIP3   OH222386   2.732   6.290   1.271  0.1374  0.2881  0.5520
  276TIP3    H122387   2.684   6.255   1.197 -0.8027 -1.0487  1.7371
  276TIP3    H222388   2.816   6.318   1.234 -1.4536  2.7143 -1.5765
  277TIP3   OH222389   5.429   7.069   1.605  0.0404  0.1272 -0.1364
  277TIP3    H122390   5.361   7.003   1.594  1.0546 -0.8320 -0.8721
  277TIP3    H222391   5.505   7.020   1.638  1.2942  0.6087 -2.1179
  278TIP3   OH222392   1.925   1.068   7.535 -0.6643  0.2023 -0.6918
  278TIP3    H122393   1.836   1.099   7.551 -0.9886 -1.0730  0.1977
  278TIP3    H222394   1.978   1.147   7.534 -1.5043  0.8522  1.0504
  279TIP3   OH222395   4.805   1.622   0.880  0.0698  0.4308 -0.7026
  279TIP3    H122396   4.811   1.567   0.958 -1.4836  0.8721 -0.2311
  279TIP3    H222397   4.889   1.666   0.874  0.5639 -0.3779  0.1363
  280TIP3   OH222398   3.642   5.897   6.548  0.4506  0.3291 -0.4309
  280TIP3    H122399   3.610   5.987   6.538 -1.3822 -0.2074  0.1633
  280TIP3    H222400   3.570   5.842   6.515  1.0202 -0.9386  0.3572
  281TIP3   OH222401   2.118   5.931   0.392 -0.7170 -0.8064  0.1079
  281TIP3    H122402   2.038   5.971   0.357  0.3415  0.1754 -1.3206
  281TIP3    H222403   2.131   5.852   0.338  1.0885  0.8758 -2.1385
  282TIP3   OH222404   0.861   1.484   7.267 -0.0045  0.0490  0.5396
  282TIP3    H122405   0.839   1.564   7.316 -2.2820 -1.4082  2.0910
  282TIP3    H222406   0.894   1.423   7.334 -3.7230 -2.1909  0.5984
  283TIP3   OH222407   5.174   5.572   1.869 -0.6857 -0.5099  0.0008
  283TIP3    H122408   5.122   5.569   1.789 -0.9382 -2.2077  0.1948
  283TIP3    H222409   5.261   5.598   1.840 -1.3963  1.5443 -0.4370
  284TIP3   OH222410   2.410   3.110   0.377 -0.7930 -0.5374 -0.2220
  284TIP3    H122411   2.434   3.025   0.416  0.1185 -0.0023  0.4066
  284TIP3    H222412   2.376   3.087   0.291  0.0095 -1.4982 -0.3046
  285TIP3   OH222413   2.524   2.460   6.996  0.4416  0.1757  0.0612
  285TIP3    H122414   2.521   2.498   7.084  0.0161 -3.1256  1.6048
  285TIP3    H222415   2.433   2.461   6.966  0.2740 -0.4968  0.5290
  286TIP3   OH222416   0.900   4.876   7.889 -0.5550  0.5587 -0.2403
  286TIP3    H122417   0.843   4.940   7.846 -2.5752  0.0030  1.4534
  286TIP3    H222418   0.866   4.791   7.861  1.4183  0.1281 -1.5901
  287TIP3   OH222419   1.137   2.130   7.031  0.4716  0.5742  0.4616
  287TIP3    H122420   1.169   2.220   7.029  1.3562  0.2631 -0.9919
  287TIP3    H222421   1.046   2.136   7.001 -0.2000  1.1995  2.4644
  288TIP3   OH222422   5.100   4.621   7.505 -0.5256 -0.7303 -0.5050
  288TIP3    H122423   5.186   4.648   7.472  0.8322  0.0280  3.1839
  288TIP3    H222424   5.109   4.528   7.524 -0.8505 -0.8649 -0.9949
  289TIP3   OH222425   2.446   4.023   6.312 -0.3384 -0.6519  0.9434
  289TIP3    H122426   2.373   3.980   6.267  3.0872 -3.9399 -2.1511
  289TIP3    H222427   2.479   4.087   6.249 -0.4454  0.7657  2.2819
  290TIP3   OH222428   4.546   6.020   6.715 -0.2542  0.0866  0.8302
  290TIP3    H122429   4.620   6.077   6.692  1.8433 -2.7962 -0.2763
  290TIP3    H222430   4.483   6.032   6.644 -0.0086  1.2389  0.7955
  291TIP3   OH222431   5.396   4.631   6.437  0.3447  0.4129 -0.3681
  291TIP3    H122432   5.477   4.660   6.480  0.2413  0.8834 -0.4838
  291TIP3    H222433   5.426   4.588   6.357  0.5729 -0.9974  0.4317
  292TIP3   OH222434   5.480   2.094   7.168  0.1603  0.4036  0.0194
  292TIP3    H122435   5.500   2.133   7.082 -1.4838  0.3446 -0.4220
  292TIP3    H222436   5.384   2.091   7.171  0.1374  1.7010  2.4516
  293TIP3   OH222437   5.516   4.373   6.645 -0.5941  0.4963 -0.2386
  293TIP3    H122438   5.559   4.388   6.561  0.8919  0.3257  0.4535
  293TIP3    H222439   5.527   4.279   6.660 -1.9276  0.3017 -0.4032
  294TIP3   OH222440   4.141   3.121   0.353  0.6766  0.6516 -0.2223
  294TIP3    H122441   4.223   3.137   0.307  0.5078 -0.2067 -0.8401
  294TIP3    H222442   4.149   3.031   0.384 -0.4004  0.2416 -1.0792
  295TIP3   OH222443   1.554   6.029   5.797 -0.3376 -0.1532  0.3631
  295TIP3    H122444   1.497   6.099   5.765  0.6461  0.2229 -0.6007
  295TIP3    H222445   1.527   5.952   5.746 -0.1067 -0.0190  0.0384
  296TIP3   OH222446   2.616   6.665   0.060  0.0808 -0.3661 -0.0713
  296TIP3    H122447   2.681   6.622   0.004 -0.5337 -0.6988 -0.5412
  296TIP3    H222448   2.618   6.614   0.141 -0.4331 -1.1091 -0.5175
  297TIP3   OH222449   6.009   5.920   0.316 -0.8732 -0.0597 -0.3935
  297TIP3    H122450   5.970   5.832   0.319  0.7552 -0.8143 -0.1033
  297TIP3    H222451   5.975   5.958   0.235 -2.9899 -0.2511  0.3488
  298TIP3   OH222452   6.236   1.539   7.871  0.4596  0.0131 -0.5740
  298TIP3    H122453   6.192   1.592   7.938 -0.4602 -2.5056  0.9320
  298TIP3    H222454   6.246   1.599   7.797 -1.8845  1.8822  0.4698
  299TIP3   OH222455   1.482   5.977   1.336  0.0201 -0.8499  0.0204
  299TIP3    H122456   1.525   5.956   1.253  0.1580 -1.4662  0.2413
  299TIP3    H222457   1.535   5.932   1.402  0.6757  0.6826  0.5856
  300TIP3   OH222458   1.420   0.922   7.856 -0.4883 -0.1487  0.2023
  300TIP3    H122459   1.468   0.867   7.795  0.0064 -0.5718  0.9653
  300TIP3    H222460   1.401   0.865   7.931 -0.6654  0.4941  0.6584
  301TIP3   OH222461   3.627   3.163   8.024  0.1432  0.9852  0.0526
  301TIP3    H122462   3.551   3.108   8.002  0.4873  1.4353 -2.4847
  301TIP3    H222463   3.591   3.251   8.035 -0.0231  0.7689  1.4773
  302TIP3   OH222464   4.293   6.564   5.517  0.6119 -0.3382  0.0378
  302TIP3    H122465   4.285   6.653   5.550  0.5789  0.1865 -1.3388
  302TIP3    H222466   4.382   6.538   5.542  0.6846  0.1394  0.2979
  303TIP3   OH222467   1.443   4.724   6.721  0.0272 -0.7414 -0.7865
  303TIP3    H122468   1.427   4.645   6.669 -0.5168 -1.4973  0.4813
  303TIP3    H222469   1.486   4.784   6.661 -1.6169 -1.1393 -2.4427
  304TIP3   OH222470   6.585   4.890   0.690  0.4089 -0.0163  0.2345
  304TIP3    H122471   6.496   4.888   0.725  0.6504  0.0896  0.8819
  304TIP3    H222472   6.614   4.981   0.704  0.5321  0.0080 -0.1826
  305TIP3   OH222473   2.722   0.166   0.689  0.0367  0.5548 -0.2583
  305TIP3    H122474   2.647   0.220   0.664 -0.2799  0.5560  0.6531
  305TIP3    H222475   2.784   0.176   0.617 -0.4056  1.3923 -0.5380
  306TIP3   OH222476   4.374   4.895   1.818  0.1341 -0.1871 -0.6511
  306TIP3    H122477   4.304   4.832   1.833  0.0252  0.1428  0.2639
  306TIP3    H222478   4.438   4.847   1.766  0.0908 -1.0921  0.1067
  307TIP3   OH222479   4.202   2.380   6.937 -0.4258  0.1287  0.4834
  307TIP3    H122480   4.132   2.340   6.885 -0.7693  0.2136  0.8736
  307TIP3    H222481   4.157   2.442   6.994  0.0956  1.0097 -0.0470
  308TIP3   OH222482   3.039   5.301   7.922  0.4179  0.0008 -0.4975
  308TIP3    H122483   3.007   5.305   8.012 -0.6259 -0.6454 -0.8179
  308TIP3    H222484   3.092   5.380   7.912 -0.4061  0.6873  0.3297
  309TIP3   OH222485   4.104   6.690   7.915  0.0244 -0.2082  0.0238
  309TIP3    H122486   4.146   6.732   7.989  0.8672  1.7100 -1.4676
  309TIP3    H222487   4.014   6.673   7.944 -0.3426  2.6112  0.7380
  310TIP3   OH222488   1.329   5.338   1.812  1.0384 -0.0105 -0.1290
  310TIP3    H122489   1.297   5.318   1.900  1.5595  0.0243  0.0726
  310TIP3    H222490   1.380   5.260   1.787  1.7241  0.3908  0.0051
  311TIP3   OH222491   3.595   5.916   2.277 -0.5386  0.1618  0.2849
  311TIP3    H122492   3.614   5.867   2.198 -0.0183  0.3008  0.3236
  311TIP3    H222493   3.510   5.957   2.260  0.0804  1.1134 -0.6553
  312TIP3   OH222494   5.721   4.479   6.793 -0.2064 -0.1143 -0.0821
  312TIP3    H122495   5.651   4.433   6.747  0.3279 -0.1792 -0.8475
  312TIP3    H222496   5.714   4.569   6.762  1.4228 -0.5406 -1.9333
  313TIP3   OH222497   2.475   5.366   6.599 -0.0540  0.5698  0.4662
  313TIP3    H122498   2.540   5.434   6.580  0.1151  0.7132  1.4910
  313TIP3    H222499   2.523   5.284   6.592 -0.4493  0.4702 -1.5921
  314TIP3   OH222500   3.661   6.829   1.296 -0.6949  0.2555  0.7703
  314TIP3    H122501   3.661   6.798   1.386 -0.6862  0.2711  0.7757
  314TIP3    H222502   3.663   6.925   1.304  1.3897  0.2577  0.7562
  315TIP3   OH222503   3.842   5.266   7.130 -0.5231 -0.1291 -0.0732
  315TIP3    H122504   3.785   5.337   7.162  0.6492  0.4752  0.7361
  315TIP3    H222505   3.890   5.305   7.057  0.4697  0.0817  0.6751
  316TIP3   OH222506   3.663   3.045   0.975 -0.1024  0.0400  0.0637
  316TIP3    H122507   3.591   2.993   1.010 -0.1506  0.7979  1.1590
  316TIP3    H222508   3.741   3.007   1.016  0.1149 -0.6187 -0.9252
  317TIP3   OH222509   2.902   5.582   7.018  0.2917 -0.3550  0.1575
  317TIP3    H122510   2.819   5.552   6.981  0.6024  0.7324 -1.5109
  317TIP3    H222511   2.879   5.657   7.073  0.3117  1.2905 -1.9486
  318TIP3   OH222512   5.743   3.018   1.322  0.0129  0.0740 -0.2007
  318TIP3    H122513   5.829   3.027   1.280  0.2156 -2.3946 -0.4248
  318TIP3    H222514   5.717   3.108   1.341  1.1091  1.1800 -3.2171
  319TIP3   OH222515   3.496   5.489   0.884 -0.0304 -0.0333  0.2948
  319TIP3    H122516   3.450   5.565   0.918  2.4297  0.7149  2.2420
  319TIP3    H222517   3.541   5.452   0.960  2.9655 -0.3776 -1.4836
  320TIP3   OH222518   0.783   5.681   1.776 -0.2305 -0.0608 -0.1764
  320TIP3    H122519   0.771   5.768   1.813 -0.1679  0.5674 -1.6032
  320TIP3    H222520   0.742   5.685   1.689 -0.2955 -1.4725 -0.2455
  321TIP3   OH222521   4.830   5.298   1.414 -0.6280 -0.5847  0.4654
  321TIP3    H122522   4.899   5.257   1.466 -1.8302 -0.5169  2.1926
  321TIP3    H222523   4.852   5.391   1.414 -0.5642 -0.5972  0.7919
  322TIP3   OH222524   5.832   4.139   7.229  0.1720 -0.4911 -0.3088
  322TIP3    H122525   5.843   4.064   7.288 -1.7671  0.1487  0.9890
  322TIP3    H222526   5.835   4.215   7.287  1.0630  0.3881 -1.4618
  323TIP3   OH222527   0.674   1.617   1.151 -0.1659 -0.5424  0.4165
  323TIP3    H122528   0.760   1.597   1.114  0.0374  1.1772 -0.1611
  323TIP3    H222529   0.692   1.685   1.216 -0.9629 -1.0121  1.1469
  324TIP3   OH222530   1.822   5.803   0.995  0.1976  0.4916 -0.9768
  324TIP3    H122531   1.826   5.760   0.910  2.3610  1.2323 -1.3141
  324TIP3    H222532   1.818   5.731   1.059  0.0625 -0.1071 -1.6525
  325TIP3   OH222533   1.010   3.239   7.785  0.0200 -0.0878  0.7751
  325TIP3    H122534   1.041   3.157   7.824 -1.6310 -0.9936  0.2664
  325TIP3    H222535   1.080   3.265   7.725 -0.3494 -2.3598 -0.7641
  326TIP3   OH222536   5.134   6.202   1.919 -0.2979 -0.3618  0.4821
  326TIP3    H122537   5.220   6.212   1.961  0.2362 -2.9744  0.1851
  326TIP3    H222538   5.075   6.179   1.991 -0.4473  0.0760  0.4979
  327TIP3   OH222539   5.006   6.081   2.171 -0.4462 -0.1114 -0.4148
  327TIP3    H122540   4.950   6.117   2.240 -0.7749 -0.2048 -0.6268
  327TIP3    H222541   5.094   6.079   2.209 -0.3576  1.2160 -0.5151
  328TIP3   OH222542   5.784   6.747   6.960 -0.4436  0.3035  0.2957
  328TIP3    H122543   5.746   6.676   6.907  0.2527  0.3657 -0.2978
  328TIP3    H222544   5.863   6.772   6.914 -1.1498  2.1331 -0.0159
  329TIP3   OH222545   1.442   6.354   6.349  0.0176  0.1799 -0.3559
  329TIP3    H122546   1.517   6.412   6.343  0.6885 -0.6653 -0.3246
  329TIP3    H222547   1.431   6.338   6.443  0.8791 -1.0548 -0.4490
  330TIP3   OH222548   2.269   0.479   6.727  0.3615  0.5480 -0.0214
  330TIP3    H122549   2.267   0.384   6.735 -1.7993  0.3154 -2.4282
  330TIP3    H222550   2.345   0.497   6.672  1.7732  0.4435  1.7720
  331TIP3   OH222551   2.743   0.323   6.726  0.6934  0.0865 -0.5875
  331TIP3    H122552   2.768   0.285   6.811 -2.2763  0.6027  0.6564
  331TIP3    H222553   2.732   0.417   6.745  4.2219  1.1057 -2.6984
  332TIP3   OH222554   0.218   4.212   6.877  0.2774 -0.1010  0.4124
  332TIP3    H122555   0.137   4.165   6.856  0.2038  0.0341  0.3907
  332TIP3    H222556   0.282   4.180   6.814 -0.4178  1.6723 -1.2890
  333TIP3   OH222557   3.212   4.033   7.967 -0.5302 -0.1525  0.5597
  333TIP3    H122558   3.291   4.088   7.963  0.9522 -2.2368 -0.9037
  333TIP3    H222559   3.150   4.076   7.908  0.4407  0.1841 -0.2491
  334TIP3   OH222560   5.749   2.442   5.971  0.4513 -0.2425 -0.3155
  334TIP3    H122561   5.718   2.426   5.882  1.1717  2.8979 -1.2572
  334TIP3    H222562   5.844   2.431   5.966  0.5960  0.8712 -0.2015
  335TIP3   OH222563   3.853   3.664   7.696  0.1146  0.3083 -0.1332
  335TIP3    H122564   3.809   3.617   7.625 -0.4251 -1.5420  1.3227
  335TIP3    H222565   3.784   3.677   7.762  0.8795  0.7875  0.5922
  336TIP3   OH222566   3.377   6.892   1.389 -0.1606 -0.1675 -0.4632
  336TIP3    H122567   3.379   6.841   1.469 -2.0209  1.5249  0.7591
  336TIP3    H222568   3.349   6.830   1.322  1.1381 -1.5396  0.2045
  337TIP3   OH222569   1.119   4.847   7.507  0.3036 -0.4785 -0.2542
  337TIP3    H122570   1.072   4.925   7.478 -0.1290 -0.7435 -0.2701
  337TIP3    H222571   1.052   4.791   7.546  0.7159 -0.5680  0.3380
  338TIP3   OH222572   5.562   6.247   1.069 -0.2120  0.2122  0.5601
  338TIP3    H122573   5.568   6.341   1.049 -1.3595  0.0355 -0.7115
  338TIP3    H222574   5.542   6.244   1.163 -0.9029  1.2519  0.4616
  339TIP3   OH222575   7.077   0.538   1.398 -0.0280  0.4434  0.4429
  339TIP3    H122576   7.040   0.449   1.398 -1.7716  1.1256 -0.6448
  339TIP3    H222577   7.042   0.578   1.477  0.1101  0.4407  0.5072
  340TIP3   OH222578   3.545   5.278   6.435 -0.2531 -0.0883 -0.6939
  340TIP3    H122579   3.568   5.304   6.524 -0.1211 -0.2720 -0.6737
  340TIP3    H222580   3.630   5.268   6.390 -0.3122  2.6395 -1.6147
  341TIP3   OH222581   0.970   1.693   7.799 -0.2652 -0.2140  0.5727
  341TIP3    H122582   0.893   1.747   7.815 -1.0673 -1.9672  3.2079
  341TIP3    H222583   1.035   1.754   7.764 -2.2216  1.6787  0.0181
  342TIP3   OH222584   2.736   0.545   5.924  0.0545  0.5198 -0.2221
  342TIP3    H122585   2.642   0.536   5.940  0.1764  1.5914  1.2401
  342TIP3    H222586   2.748   0.636   5.898  0.7816  0.5823  0.2974
  343TIP3   OH222587   5.719   2.972   6.111 -0.3958 -0.3358 -0.1462
  343TIP3    H122588   5.732   2.878   6.126 -0.9850 -0.4134 -0.0652
  343TIP3    H222589   5.624   2.983   6.114 -0.3262  0.2778 -0.0910
  344TIP3   OH222590   5.782   6.293   6.443 -0.2766  0.6985  0.4057
  344TIP3    H122591   5.752   6.326   6.358  0.0525 -1.3837 -0.5791
  344TIP3    H222592   5.856   6.350   6.466 -1.0071  1.9330 -0.1673
  345TIP3   OH222593   3.521   7.127   1.722 -0.5427 -0.2883  0.8787
  345TIP3    H122594   3.577   7.050   1.716  0.0638  0.1810  0.3639
  345TIP3    H222595   3.574   7.191   1.771 -0.4163  0.3347 -0.0436
  346TIP3   OH222596   1.914   6.935   7.963 -0.2604 -0.1275 -0.3066
  346TIP3    H122597   1.923   6.921   8.057  2.5667 -1.0715 -0.5995
  346TIP3    H222598   1.930   6.849   7.924  0.8618  0.6517 -1.6805
  347TIP3   OH222599   1.309   0.912   0.974  0.1028  0.3704 -0.8549
  347TIP3    H122600   1.245   0.980   0.951 -0.8439 -0.4842 -0.8002
  347TIP3    H222601   1.256   0.840   1.009  1.1421 -0.1575 -0.3273
  348TIP3   OH222602   5.757   0.579   1.500 -0.7584  0.0325  0.0520
  348TIP3    H122603   5.769   0.668   1.467 -0.1129  0.2015  0.7299
  348TIP3    H222604   5.665   0.575   1.528 -0.9160  0.3311 -0.4163
  349TIP3   OH222605   3.858   6.813   6.980 -0.6064  0.1900  0.0798
  349TIP3    H122606   3.778   6.770   7.011 -0.2955 -0.2261  0.3114
  349TIP3    H222607   3.921   6.801   7.051 -0.0144 -0.4068 -0.5338
  350TIP3   OH222608   4.478   2.777   7.968 -0.1949  0.0643  0.4323
  350TIP3    H122609   4.460   2.695   8.015 -0.7795  0.9996  1.8945
  350TIP3    H222610   4.405   2.786   7.907  0.2316 -0.8302 -0.2448
  351TIP3   OH222611   2.248   0.868   0.881 -0.0440  0.2806 -0.2718
  351TIP3    H122612   2.277   0.788   0.837  1.3864  1.1496 -1.0065
  351TIP3    H222613   2.324   0.927   0.876 -0.0605  0.7213  2.7329
  352TIP3   OH222614   2.867   1.927   1.857 -0.2612 -0.2307 -0.7415
  352TIP3    H122615   2.798   1.929   1.924 -1.8216 -0.6505 -2.2573
  352TIP3    H222616   2.847   2.002   1.801  1.2257  0.3149 -0.5824
  353TIP3   OH222617   1.244   6.826   0.826  0.5736  0.2637 -0.6032
  353TIP3    H122618   1.329   6.862   0.850 -0.1934  2.8425 -1.3032
  353TIP3    H222619   1.239   6.742   0.870  2.7416  0.8509  0.9183
  354TIP3   OH222620   0.473   5.285   6.793 -0.2029 -0.2773  0.3122
  354TIP3    H122621   0.542   5.321   6.849 -1.0433  1.6859  0.1777
  354TIP3    H222622   0.509   5.202   6.761  1.5200  0.0229  1.3247
  355TIP3   OH222623   1.905   5.380   6.651  0.1365 -0.1428  0.1061
  355TIP3    H122624   1.890   5.427   6.569 -0.9426 -3.3334 -1.7148
  355TIP3    H222625   1.847   5.422   6.714  1.6843  3.0164 -0.4028
  356TIP3   OH222626   2.845   4.549   1.381 -0.1418  0.1802  0.0570
  356TIP3    H122627   2.866   4.614   1.448 -1.2953  0.0906  0.5288
  356TIP3    H222628   2.772   4.500   1.418 -0.3175 -0.3488 -0.9722
  357TIP3   OH222629   5.610   5.456   7.517 -0.1783  0.2585  0.4372
  357TIP3    H122630   5.613   5.534   7.573 -1.6409  1.1639 -0.6594
  357TIP3    H222631   5.556   5.394   7.566 -1.8234  1.2048 -0.0599
  358TIP3   OH222632   3.275   1.926   6.017  0.2452  0.0542  0.2529
  358TIP3    H122633   3.317   1.916   5.932 -0.7300 -1.2630 -0.0934
  358TIP3    H222634   3.182   1.912   6.000 -0.1120  0.9569  1.3424
  359TIP3   OH222635   3.563   0.305   7.656 -0.4713  0.0035 -0.4008
  359TIP3    H122636   3.567   0.230   7.597 -0.6709 -1.1089  0.9341
  359TIP3    H222637   3.529   0.269   7.738 -0.2435  1.4920  0.3850
  360TIP3   OH222638   1.607   0.993   0.911 -0.1047 -0.4864 -0.1956
  360TIP3    H122639   1.640   0.978   0.822 -0.3936 -1.4196 -0.1597
  360TIP3    H222640   1.517   0.961   0.909 -0.6186  0.9109  0.0326
  361TIP3   OH222641   4.443   1.369   6.708 -0.3560 -0.1797  0.1860
  361TIP3    H122642   4.475   1.282   6.735  1.3695 -0.2424 -1.8343
  361TIP3    H222643   4.491   1.388   6.627 -2.1573  1.8243 -0.4823
  362TIP3   OH222644   6.822   4.621   7.695  0.3632  0.1806 -0.9068
  362TIP3    H122645   6.902   4.645   7.649 -0.2625  2.1790 -1.0115
  362TIP3    H222646   6.798   4.699   7.745 -1.1620 -0.6038 -0.3485
  363TIP3   OH222647   6.861   5.721   6.655  0.5507  0.6266 -0.4468
  363TIP3    H122648   6.807   5.798   6.636 -2.0715 -1.1551 -0.7077
  363TIP3    H222649   6.904   5.701   6.572 -0.7053  0.4120 -1.0761
  364TIP3   OH222650   1.017   2.084   0.072 -0.1838 -0.3983  0.5192
  364TIP3    H122651   1.080   2.148   0.040 -1.0539  0.2912  0.1583
  364TIP3    H222652   0.956   2.134   0.125  0.0625 -1.2024  1.5880
  365TIP3   OH222653   5.143   2.532   7.323  0.1532  0.1295  0.2895
  365TIP3    H122654   5.166   2.507   7.234 -0.0126  0.2490  0.2115
  365TIP3    H222655   5.082   2.464   7.353  0.0514  0.1975  0.2384
  366TIP3   OH222656   6.467   6.602   6.976 -0.4393 -0.2846 -0.3893
  366TIP3    H122657   6.490   6.692   7.001  0.0582 -0.0552 -1.6246
  366TIP3    H222658   6.498   6.549   7.050 -2.0691  0.6637  1.0515
  367TIP3   OH222659   2.689   3.021   6.776 -0.7432  0.1288  0.0344
  367TIP3    H122660   2.765   3.074   6.754 -1.2290  1.1896  0.8017
  367TIP3    H222661   2.621   3.049   6.714 -0.4419 -1.0150 -0.8315
  368TIP3   OH222662   2.638   2.894   7.186  0.1919  0.8009 -0.1978
  368TIP3    H122663   2.722   2.941   7.182  0.1513  0.8444 -0.5480
  368TIP3    H222664   2.574   2.957   7.152  0.0164  0.7671  0.0707
  369TIP3   OH222665   2.691   1.872   0.544 -0.3589  0.2843 -0.5909
  369TIP3    H122666   2.688   1.965   0.567 -1.1047  0.3421 -0.8924
  369TIP3    H222667   2.748   1.833   0.609 -1.0631  0.7348  0.3247
  370TIP3   OH222668   0.298   5.852   7.453 -0.1960  0.6248 -0.0358
  370TIP3    H122669   0.323   5.841   7.545 -0.5337  0.4251  0.0347
  370TIP3    H222670   0.368   5.906   7.416  0.0750  0.4953  0.2747
  371TIP3   OH222671   1.794   1.239   6.611  0.4647 -0.2910 -0.0980
  371TIP3    H122672   1.805   1.199   6.525  2.1246 -0.6495  0.2531
  371TIP3    H222673   1.755   1.170   6.664 -1.5224  0.2470 -0.7756
  372TIP3   OH222674   3.150   0.356   0.373  0.4517 -0.3471  0.3860
  372TIP3    H122675   3.133   0.262   0.379  0.2367 -0.3040  0.4741
  372TIP3    H222676   3.087   0.387   0.308  1.0315 -0.3875 -0.2078
  373TIP3   OH222677   1.538   1.837   6.933  0.5989 -0.0671  0.0795
  373TIP3    H122678   1.553   1.929   6.953  0.4555  0.0866 -0.5129
  373TIP3    H222679   1.480   1.837   6.857  0.7258 -0.6418 -0.0277
  374TIP3   OH222680   0.692   0.170   5.791 -0.0884  0.1936  0.2382
  374TIP3    H122681   0.743   0.206   5.864  1.7031 -1.7312  0.0253
  374TIP3    H222682   0.702   0.235   5.721  2.6941 -0.3369  0.0106
  375TIP3   OH222683   2.765   2.601   6.268  0.6040 -0.1793  0.3200
  375TIP3    H122684   2.792   2.636   6.183 -0.8179  0.3759  0.0721
  375TIP3    H222685   2.670   2.607   6.268  0.5829  0.2774  2.1287
  376TIP3   OH222686   6.155   3.363   6.480 -0.3742 -0.0771 -0.3315
  376TIP3    H122687   6.106   3.284   6.455  0.9618 -1.1444  0.2586
  376TIP3    H222688   6.093   3.414   6.532 -1.0735 -1.0890 -0.1398
  377TIP3   OH222689   2.480   0.320   6.865 -0.0684  0.3731  0.3608
  377TIP3    H122690   2.517   0.259   6.801  0.2915  1.0258 -0.0663
  377TIP3    H222691   2.545   0.323   6.935 -0.0133  0.3712  0.3109
  378TIP3   OH222692   4.994   6.292   6.993 -0.5480  0.4091  0.0256
  378TIP3    H122693   5.078   6.338   6.990  0.5134 -1.3980  0.4442
  378TIP3    H222694   4.987   6.248   6.909 -0.0912 -1.0393  0.7098
  379TIP3   OH222695   1.091   1.129   0.221 -0.1442 -0.0046  0.0677
  379TIP3    H122696   1.130   1.065   0.281  0.7039  0.3623 -0.0718
  379TIP3    H222697   1.083   1.082   0.138 -2.4312 -0.8950  0.7232
  380TIP3   OH222698   6.076   6.455   1.436  0.6096  0.1844  0.3127
  380TIP3    H122699   6.130   6.389   1.479  0.3264  1.1244  2.1933
  380TIP3    H222700   6.128   6.484   1.361  0.8440 -1.9553 -0.4131
  381TIP3   OH222701   3.040   3.609   7.712 -0.1656  0.3019 -0.7836
  381TIP3    H122702   3.100   3.662   7.659  0.2111  0.7822  0.1058
  381TIP3    H222703   3.095   3.545   7.755 -0.8114 -2.0895 -3.2270
  382TIP3   OH222704   4.763   1.675   7.217  0.3152 -0.0451 -0.2778
  382TIP3    H122705   4.741   1.686   7.124 -2.2076 -0.6039  0.1811
  382TIP3    H222706   4.738   1.585   7.237  0.0247  0.3331  1.1391
  383TIP3   OH222707   1.077   1.052   0.598  0.3984 -0.2614  0.6003
  383TIP3    H122708   1.101   1.125   0.541  0.8347  1.5063  2.9380
  383TIP3    H222709   0.998   1.015   0.557 -0.0508  1.7342 -0.4712
  384TIP3   OH222710   4.669   6.515   0.073  0.0520  0.0076  0.6993
  384TIP3    H122711   4.716   6.572   0.134  0.4697 -0.9557  1.3042
  384TIP3    H222712   4.719   6.434   0.073 -0.1497 -0.1421 -0.6596
  385TIP3   OH222713   0.140   3.639   0.745  0.1865 -0.1805 -0.3051
  385TIP3    H122714   0.123   3.597   0.661  2.2038 -0.9302 -0.3987
  385TIP3    H222715   0.201   3.710   0.723 -1.2421  1.2726  0.2107
  386TIP3   OH222716   6.164   6.023   1.270 -0.5390  0.4454  0.1975
  386TIP3    H122717   6.232   6.087   1.247  2.1433 -2.2050  0.0698
  386TIP3    H222718   6.201   5.974   1.344 -2.9388 -0.2829  1.0020
  387TIP3   OH222719   6.529   1.141   5.942  0.2663 -0.4855 -0.3861
  387TIP3    H122720   6.463   1.209   5.955  1.9590  1.0180  0.8527
  387TIP3    H222721   6.505   1.099   5.859 -0.7552  1.7319 -1.2793
  388TIP3   OH222722   0.476   6.175   1.542  0.4613 -0.8001  1.1913
  388TIP3    H122723   0.427   6.241   1.493  0.7031 -2.0335 -0.8142
  388TIP3    H222724   0.423   6.158   1.620 -1.0097 -0.2921  0.3350
  389TIP3   OH222725   3.442   5.379   7.879  0.7528 -0.4201  0.0856
  389TIP3    H122726   3.470   5.339   7.797  5.0440  1.9626  0.0933
  389TIP3    H222727   3.464   5.313   7.946 -0.3703 -1.3565 -0.4381
  390TIP3   OH222728   2.471   4.233   6.828 -0.5575  0.0970  0.1177
  390TIP3    H122729   2.407   4.167   6.800 -0.8603  0.1872  0.5712
  390TIP3    H222730   2.452   4.310   6.774 -0.7201  0.0665  0.1303
  391TIP3   OH222731   6.347   2.688   1.548  0.0536 -0.5632  0.6106
  391TIP3    H122732   6.307   2.773   1.529  1.2761  0.2548  1.5659
  391TIP3    H222733   6.276   2.625   1.534 -0.7010  0.5181 -0.7963
  392TIP3   OH222734   6.583   3.808   7.434  0.7758  0.5108 -0.3054
  392TIP3    H122735   6.520   3.879   7.422  1.0820  0.8176 -0.1128
  392TIP3    H222736   6.556   3.741   7.372 -0.9251 -0.2016  1.1298
  393TIP3   OH222737   3.654   4.932   1.581  0.2272 -0.3910 -0.0413
  393TIP3    H122738   3.730   4.907   1.634  1.2007 -0.4195 -1.3951
  393TIP3    H222739   3.579   4.919   1.639  1.2393 -0.4707  1.2993
  394TIP3   OH222740   3.350   2.189   5.774 -0.9595  0.3862  0.3252
  394TIP3    H122741   3.413   2.240   5.722 -2.4551  0.6741 -1.3028
  394TIP3    H222742   3.357   2.226   5.862  0.9314  0.5774  0.1518
  395TIP3   OH222743   1.672   4.623   6.035 -0.4282 -0.0531 -1.0447
  395TIP3    H122744   1.611   4.656   5.969 -2.3496  1.0547  1.1409
  395TIP3    H222745   1.617   4.579   6.099  1.2659 -0.4346  0.2207
  396TIP3   OH222746   1.724   4.784   6.322 -0.6006 -0.0021 -0.3467
  396TIP3    H122747   1.809   4.777   6.279  0.1142 -0.0255  1.0191
  396TIP3    H222748   1.675   4.707   6.291  0.0291 -0.2357 -0.7850
  397TIP3   OH222749   0.989   3.580   7.059 -0.1384  0.5358 -0.4220
  397TIP3    H122750   0.897   3.601   7.075 -0.0631  1.2202 -0.8404
  397TIP3    H222751   1.022   3.654   7.008  0.8936  0.7546  0.5256
  398TIP3   OH222752   4.543   2.170   0.948  0.6330  0.0716  0.3962
  398TIP3    H122753   4.548   2.265   0.938  0.0867 -0.0241 -1.0249
  398TIP3    H222754   4.634   2.140   0.941  0.8457  0.4950  1.1798
  399TIP3   OH222755   4.083   3.609   0.086 -0.1477  0.1012 -0.1084
  399TIP3    H122756   4.128   3.534   0.046 -0.6560 -0.4471  0.3324
  399TIP3    H222757   4.079   3.587   0.179  0.2690  0.9821  0.1261
  400TIP3   OH222758   6.235   4.505   7.229  0.0590 -0.3072  0.4122
  400TIP3    H122759   6.219   4.442   7.299 -0.6253  0.5454  1.0516
  400TIP3    H222760   6.284   4.576   7.271  0.1290 -0.0432 -0.1056
  401TIP3   OH222761   5.549   5.348   6.337 -0.6028 -0.0341 -0.1661
  401TIP3    H122762   5.611   5.400   6.388 -0.2972  0.1145 -0.6746
  401TIP3    H222763   5.463   5.367   6.377 -0.1868 -1.2885  1.3882
  402TIP3   OH222764   0.299   0.426   6.400 -0.1568  0.0153  0.2866
  402TIP3    H122765   0.236   0.364   6.363  0.7477 -0.3574 -0.7184
  402TIP3    H222766   0.246   0.492   6.444 -1.2914  0.1551 -1.2008
  403TIP3   OH222767   5.893   3.756   7.726  0.1667 -0.7639 -0.2379
  403TIP3    H122768   5.934   3.804   7.798 -0.5701  0.7903 -0.8106
  403TIP3    H222769   5.866   3.672   7.765 -0.5465  0.1812  1.4037
  404TIP3   OH222770   1.017   4.823   7.195  0.3843 -0.1516 -0.5972
  404TIP3    H122771   0.964   4.750   7.228  1.0858 -0.8956 -1.0740
  404TIP3    H222772   0.957   4.898   7.195 -0.1750 -0.5727  0.5071
  405TIP3   OH222773   0.551   2.649   6.207 -0.1316  0.5351  0.4515
  405TIP3    H122774   0.497   2.602   6.270 -0.8112  0.0473 -0.4761
  405TIP3    H222775   0.597   2.715   6.259 -2.2591  1.5566  1.1522
  406TIP3   OH222776   1.048   1.943   2.017 -0.4446 -0.3516  0.3831
  406TIP3    H122777   0.963   1.987   2.007  0.0273  0.3998 -0.3813
  406TIP3    H222778   1.034   1.881   2.089 -2.1018 -1.3856 -0.7568
  407TIP3   OH222779   2.039   1.332   6.707  0.1383 -0.0706  0.0375
  407TIP3    H122780   1.964   1.297   6.659 -0.9314  1.5105  0.4820
  407TIP3    H222781   2.073   1.258   6.756 -0.9104 -0.9082 -0.4650
  408TIP3   OH222782   5.574   0.303   0.847  0.3594 -0.3531 -0.5897
  408TIP3    H122783   5.646   0.246   0.871 -0.2909 -1.2945 -0.8013
  408TIP3    H222784   5.549   0.347   0.929  2.7346  1.8851 -0.9621
  409TIP3   OH222785   0.471   1.089   0.441  0.1566 -0.3421 -0.1714
  409TIP3    H122786   0.506   1.132   0.363  0.5426 -0.8652 -0.2932
  409TIP3    H222787   0.419   1.017   0.407 -0.2733 -0.1323  0.0388
  410TIP3   OH222788   6.687   6.831   0.899 -0.4985 -0.3502  0.0574
  410TIP3    H122789   6.695   6.784   0.816  0.5601  0.0944 -0.1033
  410TIP3    H222790   6.601   6.873   0.894 -0.3120 -0.0530 -0.9665
  411TIP3   OH222791   3.520   5.560   6.030 -0.7248  0.1695  0.3159
  411TIP3    H122792   3.444   5.602   5.991 -0.9863 -0.2846  0.3360
  411TIP3    H222793   3.486   5.482   6.074 -0.5202  0.9575  1.9416
  412TIP3   OH222794   6.641   3.669   6.264  0.3763  0.0737  0.2310
  412TIP3    H122795   6.636   3.574   6.267 -2.2050  0.0400 -1.7986
  412TIP3    H222796   6.707   3.688   6.197 -0.5902 -0.3749 -0.8829
  413TIP3   OH222797   2.317   2.243   1.330  0.1794  0.5122 -0.0306
  413TIP3    H122798   2.341   2.263   1.420 -1.9482 -0.4715  0.8247
  413TIP3    H222799   2.324   2.148   1.323  1.9679  0.6889 -1.4681
  414TIP3   OH222800   1.535   2.441   0.885  0.0495 -0.0189 -0.0030
  414TIP3    H122801   1.445   2.409   0.893  0.4270 -1.9687 -2.3971
  414TIP3    H222802   1.584   2.365   0.852  2.7457  0.7690  1.8576
  415TIP3   OH222803   3.206   6.460   7.630 -0.2736  0.4291  0.8096
  415TIP3    H122804   3.158   6.539   7.655 -1.6128  0.1502 -0.7657
  415TIP3    H222805   3.147   6.412   7.573  0.6755 -1.5421  1.3839
  416TIP3   OH222806   0.191   2.829   5.415  0.1563  0.4199 -0.1304
  416TIP3    H122807   0.222   2.742   5.440 -0.8678 -0.2194 -1.0172
  416TIP3    H222808   0.262   2.888   5.439  1.0547 -0.7143  0.0454
  417TIP3   OH222809   2.580   0.956   5.573 -0.3003 -0.2597 -0.0987
  417TIP3    H122810   2.666   0.914   5.575 -0.1858 -0.0171  0.7413
  417TIP3    H222811   2.599   1.048   5.589 -0.5124  0.2051 -2.3340
  418TIP3   OH222812   5.530   3.082   7.504  0.3927 -0.1732 -0.3678
  418TIP3    H122813   5.504   3.170   7.530  1.3512 -0.0726  0.2921
  418TIP3    H222814   5.451   3.043   7.468 -0.2186  0.7103 -0.0002
  419TIP3   OH222815   5.697   0.045   0.902  0.0157 -0.0934  0.0462
  419TIP3    H122816   5.612   0.004   0.919 -0.6359  1.8587  1.9796
  419TIP3    H222817   5.758  -0.000   0.960 -0.0865 -0.2494  0.0324
  420TIP3   OH222818   6.574   2.779   6.463 -0.5094 -0.5419 -0.2067
  420TIP3    H122819   6.653   2.791   6.515 -1.4818 -1.0449  1.4545
  420TIP3    H222820   6.520   2.855   6.482 -0.5746 -0.3700 -1.0576
  421TIP3   OH222821   2.296   3.790   6.990 -0.5484 -0.3152  0.3600
  421TIP3    H122822   2.328   3.792   6.900 -1.3822 -0.0071  0.0584
  421TIP3    H222823   2.290   3.882   7.015  1.5060 -0.4308  1.4189
  422TIP3   OH222824   3.983   4.512   7.817  0.2365 -0.0938  0.5742
  422TIP3    H122825   3.917   4.444   7.829 -0.2438 -0.1332 -1.7491
  422TIP3    H222826   3.934   4.594   7.822  0.3206 -0.0435  0.5723
  423TIP3   OH222827   3.677   1.252   5.353 -0.2204  0.7678  0.4359
  423TIP3    H122828   3.682   1.293   5.439 -0.1037  2.9795 -0.5417
  423TIP3    H222829   3.656   1.324   5.293  1.1572 -0.4081 -1.5933
  424TIP3   OH222830   1.560   2.344   7.286 -0.2156 -0.4248 -0.1000
  424TIP3    H122831   1.636   2.321   7.232  0.1159  1.4313 -0.4953
  424TIP3    H222832   1.598   2.376   7.368 -0.4580  1.7557 -0.7827
  425TIP3   OH222833   0.693   2.142   0.790  0.4512  1.0245 -0.1371
  425TIP3    H122834   0.720   2.117   0.879  1.1212 -1.7365 -1.0236
  425TIP3    H222835   0.760   2.203   0.761  3.5500 -2.2546 -0.6295
  426TIP3   OH222836   6.450   1.074   7.561  0.2772 -0.1671  0.1285
  426TIP3    H122837   6.396   1.149   7.536  1.0468  0.6140  0.7490
  426TIP3    H222838   6.528   1.082   7.507  1.4032  0.8364  1.8235
  427TIP3   OH222839   7.016   0.602   7.003 -0.4435 -0.3811  0.8475
  427TIP3    H122840   7.110   0.588   7.009 -0.2744  0.9059  1.6920
  427TIP3    H222841   6.982   0.522   6.964  1.0945 -0.5001 -0.3340
  428TIP3   OH222842   0.716   2.660   1.277 -0.2047 -0.5246  0.3459
  428TIP3    H122843   0.628   2.653   1.240 -0.1128  1.6690 -0.4494
  428TIP3    H222844   0.704   2.705   1.360  0.1589 -0.2609  0.2607
  429TIP3   OH222845   1.904   6.615   7.131  0.0442 -0.5322  0.2651
  429TIP3    H122846   1.848   6.674   7.081 -0.5229 -0.4495  0.9780
  429TIP3    H222847   1.957   6.570   7.065 -0.1398  0.1299 -0.3462
  430TIP3   OH222848   2.463   1.548   7.202  0.0210  0.5670  0.6547
  430TIP3    H122849   2.422   1.467   7.231  0.1532 -0.4343 -1.7592
  430TIP3    H222850   2.556   1.535   7.216  0.2754 -0.6555 -1.6706
  431TIP3   OH222851   4.813   0.484   0.224  0.4231  0.1673 -0.1956
  431TIP3    H122852   4.829   0.456   0.314 -0.0434  1.4659  0.2979
  431TIP3    H222853   4.871   0.559   0.211 -0.3954  0.7520 -0.5712
  432TIP3   OH222854   3.193   3.011   0.042  0.3245 -0.2329  0.4344
  432TIP3    H122855   3.266   2.964   0.001 -0.3234 -0.4445 -0.5215
  432TIP3    H222856   3.116   2.960   0.019 -0.1012 -0.2247  1.7556
  433TIP3   OH222857   5.740   4.604   7.331  0.5573  0.6181  0.2484
  433TIP3    H122858   5.802   4.674   7.350 -0.4384  1.2297  1.3666
  433TIP3    H222859   5.786   4.524   7.353  0.8585  1.0809  1.3552
  434TIP3   OH222860   1.051   2.916   7.794  0.0551  0.5624 -0.3945
  434TIP3    H122861   1.137   2.955   7.776  0.1157  0.5732 -0.0848
  434TIP3    H222862   1.048   2.837   7.741  1.1549 -0.6467  1.2844
  435TIP3   OH222863   5.425   0.446   1.395  0.3578 -0.5242 -0.4064
  435TIP3    H122864   5.429   0.539   1.416 -1.7491 -0.4744 -0.0277
  435TIP3    H222865   5.421   0.401   1.479 -3.2730 -0.6046 -0.4638
  436TIP3   OH222866   0.156   6.376   7.600  0.3735 -0.1573 -0.4346
  436TIP3    H122867   0.103   6.316   7.653 -1.5545  1.6907 -0.1661
  436TIP3    H222868   0.190   6.321   7.529 -1.1565 -1.6256 -0.0953
  437TIP3   OH222869   2.234   7.104   6.728 -0.8875 -0.3085 -0.5622
  437TIP3    H122870   2.319   7.076   6.695  0.5520  0.2526  2.3852
  437TIP3    H222871   2.228   7.196   6.705  0.1847  0.1291  0.8170
  438TIP3   OH222872   2.335   5.122   7.024 -0.4178  0.7563 -0.0889
  438TIP3    H122873   2.410   5.065   7.008 -0.1451  0.6415  1.3926
  438TIP3    H222874   2.277   5.108   6.949  0.1290 -0.6687 -0.2712
  439TIP3   OH222875   5.794   4.039   7.656  0.2086 -0.5267  0.2646
  439TIP3    H122876   5.725   3.991   7.702 -0.1180 -2.2596 -1.8533
  439TIP3    H222877   5.875   4.014   7.701 -0.4370  1.4994  2.7531
  440TIP3   OH222878   2.004   5.064   1.137  0.5800  0.6235  0.5826
  440TIP3    H122879   2.086   5.076   1.090  0.6409  1.3140  0.8631
  440TIP3    H222880   1.998   5.139   1.196 -0.3151  0.6635  0.4634
  441TIP3   OH222881   2.032   6.861   7.476 -0.1881  0.3199 -0.0999
  441TIP3    H122882   1.942   6.831   7.465  0.1766 -1.5216  1.4807
  441TIP3    H222883   2.025   6.935   7.537 -0.5317 -0.9661  1.5010
  442TIP3   OH222884   0.020   2.466   2.150 -0.0063 -0.2676 -0.2587
  442TIP3    H122885   0.063   2.523   2.087  0.4955 -1.5932 -1.1653
  442TIP3    H222886   0.071   2.475   2.230 -0.0183  0.6369 -0.3465
  443TIP3   OH222887   3.144   2.021   1.511  0.2908 -0.1197  0.0453
  443TIP3    H122888   3.067   2.074   1.531  0.1497  0.0537 -0.8812
  443TIP3    H222889   3.218   2.079   1.532  0.1424  0.2664 -0.4590
  444TIP3   OH222890   1.997   4.998   6.735  0.1783 -0.3479  0.8458
  444TIP3    H122891   1.933   4.965   6.798  0.5619  1.0115  2.0228
  444TIP3    H222892   2.082   4.978   6.775  0.4451 -0.0992  0.4111
  445TIP3   OH222893   6.963   4.402   1.759 -0.0162 -0.0099  0.3330
  445TIP3    H122894   7.015   4.463   1.811  0.8358 -0.5328  0.0999
  445TIP3    H222895   6.998   4.409   1.671 -0.0553 -0.6778  0.2631
  446TIP3   OH222896   7.059   2.139   6.848  0.7388  0.0501 -0.3420
  446TIP3    H122897   7.001   2.196   6.797  1.1196  0.9780  0.2399
  446TIP3    H222898   7.061   2.179   6.935  0.6697 -1.1095  0.2069
  447TIP3   OH222899   1.980   2.394   7.937  0.0038  0.2029  0.1271
  447TIP3    H122900   1.912   2.422   7.997 -0.6001  2.4155 -1.4366
  447TIP3    H222901   1.943   2.410   7.850  2.0476  0.3234 -0.7815
  448TIP3   OH222902   0.740   7.048   7.492 -0.4626 -0.7596 -0.1257
  448TIP3    H122903   0.774   6.966   7.527  0.2364 -0.3851  0.0925
  448TIP3    H222904   0.817   7.095   7.460 -0.6309  0.5335  1.2452
  449TIP3   OH222905   0.264   3.029   2.028 -0.2954  0.1830 -0.3336
  449TIP3    H122906   0.174   3.036   2.060 -0.4360  1.3718 -0.9186
  449TIP3    H222907   0.277   2.935   2.012 -0.9071 -0.1791  1.1873
  450TIP3   OH222908   5.838   4.376   0.419  0.0405  0.4272 -0.1513
  450TIP3    H122909   5.858   4.434   0.493 -1.5864  1.9183 -0.8079
  450TIP3    H222910   5.758   4.413   0.380  0.6863 -0.4561 -2.4960
  451TIP3   OH222911   7.014   3.828   7.296  0.2119 -0.3316  0.1798
  451TIP3    H122912   7.109   3.824   7.284  0.1077 -0.5973 -0.5779
  451TIP3    H222913   6.979   3.852   7.211 -0.3459  0.7186  0.6818
  452TIP3   OH222914   4.270   3.075   1.394  0.1732  0.0927  0.4418
  452TIP3    H122915   4.323   3.066   1.474 -0.0401 -0.6040  0.5183
  452TIP3    H222916   4.260   2.985   1.363  1.8215  0.4959 -1.4206
  453TIP3   OH222917   2.886   3.749   7.899 -0.7521 -0.7563  0.6531
  453TIP3    H122918   2.932   3.714   7.823 -0.3628 -1.7789  1.3330
  453TIP3    H222919   2.825   3.813   7.863 -0.3062 -0.9384 -0.4743
  454TIP3   OH222920   3.415   5.661   0.621 -0.1154  0.4348  0.6359
  454TIP3    H122921   3.352   5.601   0.580 -0.3881  0.5449  0.8896
  454TIP3    H222922   3.416   5.635   0.713  0.6988  0.0090  0.5189
  455TIP3   OH222923   2.762   1.835   0.944 -0.8658 -0.3846  0.7398
  455TIP3    H122924   2.792   1.905   0.885 -2.5250  0.1201  0.4386
  455TIP3    H222925   2.828   1.831   1.012  0.3724 -0.0037 -0.3946
  456TIP3   OH222926   3.981   7.124   7.354 -0.1585 -0.8543 -0.5114
  456TIP3    H122927   4.060   7.076   7.329 -0.5976 -2.2485  0.6019
  456TIP3    H222928   3.915   7.095   7.291  0.1187  0.0519 -1.2337
  457TIP3   OH222929   3.610   4.891   8.016  0.1806 -0.0491 -0.0988
  457TIP3    H122930   3.561   4.832   8.073  0.1999 -2.3441 -2.2611
  457TIP3    H222931   3.544   4.925   7.954  0.4552  0.9664  0.1478
  458TIP3   OH222932   0.072   2.434   6.954 -0.1461 -0.3329 -0.2888
  458TIP3    H122933  -0.007   2.453   6.903 -1.6991 -3.5462  0.6753
  458TIP3    H222934   0.045   2.367   7.016  3.1080 -0.7571  0.8638
  459TIP3   OH222935   6.888   2.194   1.603  0.5894 -0.3927  0.0023
  459TIP3    H122936   6.827   2.267   1.617  0.6801 -0.0826 -1.0782
  459TIP3    H222937   6.892   2.185   1.508 -1.1026 -3.2578  0.1008
  460TIP3   OH222938   4.350   6.225   7.917 -0.4709 -0.3052 -0.1712
  460TIP3    H122939   4.345   6.242   7.823  1.8739  1.5321 -0.0447
  460TIP3    H222940   4.358   6.312   7.956  0.1590 -1.1249  1.5993
  461TIP3   OH222941   4.274   6.461   7.189  0.3445  0.0027 -0.5173
  461TIP3    H122942   4.334   6.404   7.238  0.2854 -0.2307 -0.7175
  461TIP3    H222943   4.191   6.415   7.191 -0.1915  0.9484  0.9202
  462TIP3   OH222944   1.821   6.190   6.826 -0.1389 -0.1783  0.4896
  462TIP3    H122945   1.870   6.266   6.795 -0.4803 -0.0192  0.3350
  462TIP3    H222946   1.776   6.220   6.905  0.4201 -0.4717  0.9248
  463TIP3   OH222947   4.988   0.553   6.121 -0.0513  0.4530  0.2190
  463TIP3    H122948   5.028   0.538   6.036  0.3748 -0.0088  0.4945
  463TIP3    H222949   5.062   0.565   6.181 -0.2633 -1.3362  0.9066
  464TIP3   OH222950   5.750   2.023   0.656 -0.1479  0.4138  0.5168
  464TIP3    H122951   5.798   2.046   0.735 -0.1417 -0.4127  0.7685
  464TIP3    H222952   5.791   2.075   0.587 -0.3781  1.3989  1.1025
  465TIP3   OH222953   5.199   0.339   5.909 -0.1723 -0.2056  0.3298
  465TIP3    H122954   5.129   0.281   5.942  0.4246 -1.3871 -0.4112
  465TIP3    H222955   5.279   0.302   5.945  0.2763 -0.2269 -0.6490
  466TIP3   OH222956   1.647   0.370   5.719  0.1762  0.0337 -0.5772
  466TIP3    H122957   1.674   0.305   5.654 -1.3535  0.3981 -1.6221
  466TIP3    H222958   1.729   0.398   5.760  0.8470 -3.4126  0.8123
  467TIP3   OH222959   4.513   3.309   7.285  0.1104 -0.3575  0.7464
  467TIP3    H122960   4.537   3.401   7.291  0.1308 -0.3602  0.7085
  467TIP3    H222961   4.565   3.275   7.212 -2.2948  0.3760 -1.5022
  468TIP3   OH222962   2.206   6.269   7.770  0.0324 -0.5851  0.1670
  468TIP3    H122963   2.137   6.203   7.779  0.4129 -1.1616 -0.9581
  468TIP3    H222964   2.288   6.219   7.774  0.4051  0.0821  1.4106
  469TIP3   OH222965   6.588   5.377   6.763  0.7619  0.2224 -0.3577
  469TIP3    H122966   6.570   5.285   6.742 -0.6021  0.5270 -0.5872
  469TIP3    H222967   6.586   5.421   6.678  4.4576  0.0479 -0.6913
  470TIP3   OH222968   2.852   2.096   7.560  0.3458  0.3614  0.1429
  470TIP3    H122969   2.938   2.135   7.546  0.1541  1.1004  0.9490
  470TIP3    H222970   2.797   2.168   7.591 -0.4395 -0.1990  0.0950
  471TIP3   OH222971   2.473   0.811   0.393  0.4511 -0.3030  0.0890
  471TIP3    H122972   2.519   0.784   0.473 -0.1089  0.4659  0.6813
  471TIP3    H222973   2.529   0.878   0.354  0.0998  0.2575  0.5342
  472TIP3   OH222974   6.358   0.586   7.374 -0.8888 -0.4782  0.7562
  472TIP3    H122975   6.420   0.520   7.406 -1.3509 -2.0948 -1.4422
  472TIP3    H222976   6.394   0.614   7.289 -1.7255  0.6739  0.7513
  473TIP3   OH222977   2.230   3.420   0.846 -0.3597  0.0934 -0.3969
  473TIP3    H122978   2.181   3.478   0.905  0.9394  0.7858  0.0551
  473TIP3    H222979   2.244   3.340   0.898 -0.1080  0.3031 -0.1371
  474TIP3   OH222980   6.760   1.437   7.535 -1.0073 -0.0709 -0.0792
  474TIP3    H122981   6.737   1.450   7.443 -0.7078  2.4316  0.1397
  474TIP3    H222982   6.679   1.453   7.583 -1.0024 -0.6900  0.1418
  475TIP3   OH222983   2.174   2.320   0.320 -0.5996 -0.3707 -0.8329
  475TIP3    H122984   2.141   2.399   0.278  2.2141  0.2761 -2.0917
  475TIP3    H222985   2.213   2.351   0.402 -0.1216 -0.5547 -0.9876
  476TIP3   OH222986   1.631   4.024   7.555  0.0525  0.0094  0.7167
  476TIP3    H122987   1.682   4.055   7.480 -1.2981  0.4287 -0.0653
  476TIP3    H222988   1.689   3.961   7.599  1.4228  0.8261  0.1678
  477TIP3   OH222989   6.186   5.754   1.132  0.2157 -0.1634 -0.3414
  477TIP3    H122990   6.165   5.836   1.177 -1.8083 -0.5952 -0.4329
  477TIP3    H222991   6.177   5.776   1.039  0.2341 -0.3422 -0.3854
  478TIP3   OH222992   2.433   4.409   6.420 -0.4946  0.1864 -0.2760
  478TIP3    H122993   2.412   4.428   6.511 -1.7988  2.8604 -1.0419
  478TIP3    H222994   2.354   4.366   6.386 -1.0998  1.6111 -0.7571
  479TIP3   OH222995   2.719   4.334   7.437 -0.0112  0.0929 -0.2531
  479TIP3    H122996   2.628   4.359   7.424 -0.0193  0.0680 -0.2446
  479TIP3    H222997   2.757   4.334   7.349  0.5795  2.3565 -0.0770
  480TIP3   OH222998   2.926   6.817   1.310  0.0610 -0.2361 -0.1627
  480TIP3    H122999   2.877   6.740   1.284  0.6842 -0.7310  0.0978
  480TIP3    H223000   3.010   6.783   1.342  0.1732  0.5084  0.3829
  481TIP3   OH223001   4.546   5.565   1.145 -0.0950  0.0432 -0.1891
  481TIP3    H123002   4.607   5.495   1.167 -0.4594 -0.0120  0.7145
  481TIP3    H223003   4.550   5.572   1.050 -1.1232 -2.1782 -0.4570
  482TIP3   OH223004   4.901   1.263   5.903 -0.0032  0.0691  0.1776
  482TIP3    H123005   4.968   1.211   5.857 -2.6415 -1.2655 -2.4895
  482TIP3    H223006   4.827   1.204   5.912 -1.2385  1.7831  2.1562
  483TIP3   OH223007   5.648   0.793   6.994  0.0596 -0.5278  0.3397
  483TIP3    H123008   5.731   0.746   7.001 -0.0452 -0.6265  1.0463
  483TIP3    H223009   5.609   0.761   6.913  1.6548  1.0783 -1.1795
  484TIP3   OH223010   4.960   3.508   1.648 -0.0364  0.1340  0.2852
  484TIP3    H123011   5.020   3.442   1.612 -0.5109 -0.8091  1.1846
  484TIP3    H223012   4.933   3.559   1.572 -0.0543 -1.0330 -0.5320
  485TIP3   OH223013   5.243   7.002   6.909 -0.1438  0.1068 -0.0143
  485TIP3    H123014   5.243   6.965   6.998 -0.9657  0.0880 -0.0142
  485TIP3    H223015   5.180   6.948   6.861 -0.4053  0.7113 -0.3541
  486TIP3   OH223016   5.882   3.929   0.573 -0.0171  0.1110 -0.0666
  486TIP3    H123017   5.961   3.918   0.626  0.5292 -0.5583 -0.9872
  486TIP3    H223018   5.899   3.878   0.494 -0.2685  2.0600 -1.4726
  487TIP3   OH223019   5.969   3.309   1.604 -0.2424 -0.3602  0.4507
  487TIP3    H123020   6.049   3.362   1.602 -0.5694  0.1183 -0.9057
  487TIP3    H223021   5.993   3.232   1.656  1.4986 -0.8214 -0.9328
  488TIP3   OH223022   6.058   2.928   0.752 -0.1691 -1.0725 -0.2048
  488TIP3    H123023   6.080   3.013   0.790 -1.4472 -1.1158  0.7147
  488TIP3    H223024   6.024   2.949   0.665 -2.2025 -0.3946  0.6792
  489TIP3   OH223025   6.193   3.634   5.827 -0.2191  0.1031  0.3994
  489TIP3    H123026   6.192   3.541   5.851 -1.2714  0.2402  0.9483
  489TIP3    H223027   6.278   3.666   5.859  1.9491 -1.4802 -3.1861
  490TIP3   OH223028   3.645   4.927   0.967 -0.1052  0.1335 -0.2886
  490TIP3    H123029   3.722   4.881   0.932 -1.3908 -0.3840 -2.6271
  490TIP3    H223030   3.682   4.999   1.018  1.9401 -1.4526  0.6414
  491TIP3   OH223031   2.177   5.396   0.869 -0.0262 -0.5172  0.4771
  491TIP3    H123032   2.230   5.462   0.824 -0.3727  0.2473  1.1715
  491TIP3    H223033   2.219   5.385   0.955 -1.4833  0.7716  1.3969
  492TIP3   OH223034   1.143   1.406   5.878  0.1265 -0.4230  0.0141
  492TIP3    H123035   1.110   1.330   5.831 -0.4692  0.3089 -0.7669
  492TIP3    H223036   1.226   1.376   5.916 -0.2362 -1.5406 -0.0448
  493TIP3   OH223037   1.206   0.677   1.385 -0.1371  0.3402 -0.0015
  493TIP3    H123038   1.283   0.621   1.387 -1.1965 -1.2615 -1.1546
  493TIP3    H223039   1.231   0.750   1.329  0.4824 -0.2771 -0.5495
  494TIP3   OH223040   6.939   1.748   7.069  0.3825  0.1400  0.2201
  494TIP3    H123041   6.942   1.728   7.162 -0.1062 -0.0398  0.1990
  494TIP3    H223042   7.015   1.702   7.032 -0.6739 -1.6772  0.1864
  495TIP3   OH223043   2.859   0.994   7.502  0.5507 -0.2584  0.0501
  495TIP3    H123044   2.929   0.930   7.488 -0.2087 -1.0663 -0.0591
  495TIP3    H223045   2.829   0.978   7.592 -0.1049 -0.5200 -0.2107
  496TIP3   OH223046   2.638   6.212   7.013 -0.0274  0.1119 -0.1670
  496TIP3    H123047   2.630   6.134   7.068  1.2892 -0.0641 -0.1902
  496TIP3    H223048   2.636   6.178   6.924  1.5842 -0.0587 -0.1779
  497TIP3   OH223049   6.140   2.921   1.707 -0.4156  0.0072  0.3205
  497TIP3    H123050   6.106   2.866   1.778 -1.7435  0.6130  0.1846
  497TIP3    H223051   6.152   3.007   1.748 -2.3175  0.6850 -0.4049
  498TIP3   OH223052   6.778   5.802   7.900  0.2361  0.3724 -0.2796
  498TIP3    H123053   6.825   5.879   7.869 -0.2721  0.5562 -0.6106
  498TIP3    H223054   6.720   5.836   7.969  0.3920  0.1947 -0.0612
  499TIP3   OH223055   0.225   0.790   6.338 -0.1442 -0.3505 -0.1858
  499TIP3    H123056   0.277   0.801   6.258 -0.1353 -1.3432 -0.3245
  499TIP3    H223057   0.134   0.787   6.308 -0.2326  0.4308 -0.0332
  500TIP3   OH223058   6.180   5.724   5.587  0.2615 -0.1019 -0.0003
  500TIP3    H123059   6.135   5.757   5.664 -0.9822 -2.7258  0.5100
  500TIP3    H223060   6.268   5.703   5.618 -0.3589 -1.5357  0.8552
  501TIP3   OH223061   1.732   0.739   5.614  0.4548 -0.1388 -0.0811
  501TIP3    H123062   1.708   0.694   5.695 -1.8264  0.5779 -0.2864
  501TIP3    H223063   1.673   0.814   5.610  0.0794 -0.4751 -2.6696
  502TIP3   OH223064   2.375   2.702   0.096  0.2663 -0.1131  0.4452
  502TIP3    H123065   2.369   2.650   0.016 -1.0689  3.5742 -2.1101
  502TIP3    H223066   2.466   2.731   0.099  0.6668 -1.3522  1.1214
  503TIP3   OH223067   3.448   3.066   6.769  0.2629 -0.2077  1.0532
  503TIP3    H123068   3.363   3.022   6.774  0.3473 -0.6845 -0.8921
  503TIP3    H223069   3.506   3.002   6.728  0.7364  1.2130 -0.6007
  504TIP3   OH223070   0.272   6.708   0.443  0.8231  0.4785 -0.9390
  504TIP3    H123071   0.334   6.773   0.477 -0.8078  1.7683 -0.2850
  504TIP3    H223072   0.293   6.628   0.491  0.7956  1.3892  0.6706
  505TIP3   OH223073   0.837   3.330   1.038  0.7281  0.3531 -0.2754
  505TIP3    H123074   0.907   3.370   0.987  0.3008  0.1909 -0.9996
  505TIP3    H223075   0.763   3.325   0.978  0.4639 -0.6030  0.1122
  506TIP3   OH223076   1.329   5.595   6.364 -0.2495  0.1837 -0.0054
  506TIP3    H123077   1.264   5.544   6.316 -0.5902 -0.4100  1.0499
  506TIP3    H223078   1.302   5.588   6.456  0.4627  1.1632  0.2987
  507TIP3   OH223079   3.275   4.234   1.576  0.2168 -0.1087  0.2424
  507TIP3    H123080   3.335   4.290   1.625 -1.3217  0.7266  1.2697
  507TIP3    H223081   3.264   4.157   1.631  2.0398 -1.3315 -0.9964
  508TIP3   OH223082   4.769   1.990   7.519  0.3126  0.0382  0.3387
  508TIP3    H123083   4.683   1.988   7.478  0.9819 -0.6305 -1.1382
  508TIP3    H223084   4.826   1.944   7.457  2.0970  1.9724  0.3981
  509TIP3   OH223085   2.675   3.741   7.271 -0.5180  0.2765 -0.2787
  509TIP3    H123086   2.586   3.716   7.247 -0.3555 -0.5582 -0.0152
  509TIP3    H223087   2.725   3.734   7.189 -0.2214 -1.4261  0.0159
  510TIP3   OH223088   3.737   3.845   0.575 -0.1628  0.3486  0.0442
  510TIP3    H123089   3.758   3.876   0.663  3.2004  0.1310 -0.5181
  510TIP3    H223090   3.718   3.925   0.526 -2.8194  0.4192  1.0186
  511TIP3   OH223091   5.195   6.350   0.032  0.3868  0.3258 -0.1389
  511TIP3    H123092   5.194   6.256   0.011  2.0886  0.7507 -2.4369
  511TIP3    H223093   5.284   6.367   0.062  0.0089  1.1770  0.5330
  512TIP3   OH223094   0.657   0.070   1.022  0.6009  0.1682  0.4476
  512TIP3    H123095   0.742   0.077   0.979  0.1145  1.7856 -0.3380
  512TIP3    H223096   0.599   0.033   0.955  0.4618 -0.0141  0.6645
  513TIP3   OH223097   0.975   5.057   0.691  0.2052  0.4393  0.5103
  513TIP3    H123098   0.882   5.036   0.703  0.0117 -1.4780 -2.9593
  513TIP3    H223099   0.981   5.088   0.601  3.1738 -1.7282 -0.2024
  514TIP3   OH223100   1.478   4.397   0.884 -0.6443  0.0075  0.4252
  514TIP3    H123101   1.555   4.454   0.883 -1.1492  0.7000  0.1179
  514TIP3    H223102   1.427   4.428   0.960 -0.6476 -0.4165  0.5996
  515TIP3   OH223103   0.113   6.585   6.238  0.1320 -0.1598 -0.6335
  515TIP3    H123104   0.198   6.550   6.262 -0.7227 -0.5926  2.1081
  515TIP3    H223105   0.132   6.662   6.185  2.1307 -1.7156 -2.3496
  516TIP3   OH223106   6.662   6.170   7.426 -0.6390 -0.5813 -0.4146
  516TIP3    H123107   6.630   6.252   7.388  0.5033  0.5450  0.9500
  516TIP3    H223108   6.582   6.123   7.450 -1.3647  1.0046  0.5290
  517TIP3   OH223109   2.656   1.098   6.765 -0.4068 -0.7077 -0.0054
  517TIP3    H123110   2.648   1.078   6.858 -0.5406 -0.6131  0.0023
  517TIP3    H223111   2.576   1.063   6.726 -1.6999  1.7466  0.3144
  518TIP3   OH223112   5.144   4.293   7.100 -0.2168 -0.2554  0.1953
  518TIP3    H123113   5.223   4.303   7.046 -0.2341 -1.6325 -0.1158
  518TIP3    H223114   5.177   4.271   7.187 -0.2503 -1.3627 -0.0592
  519TIP3   OH223115   6.566   2.996   6.780  0.4056 -0.2147  0.0668
  519TIP3    H123116   6.609   3.076   6.811 -0.7433 -0.4443  2.4461
  519TIP3    H223117   6.630   2.926   6.795  0.7180 -0.0144 -0.3013
  520TIP3   OH223118   3.647   3.992   1.291 -0.4665 -0.0735  0.3769
  520TIP3    H123119   3.690   3.908   1.305  0.4826  0.4065  0.4177
  520TIP3    H223120   3.719   4.053   1.273 -1.2704  0.0312 -3.3538
  521TIP3   OH223121   6.536   0.926   6.882  0.1706  0.5087  0.2471
  521TIP3    H123122   6.454   0.897   6.842 -1.2266  1.2644  2.3675
  521TIP3    H223123   6.553   0.862   6.951  1.4066  0.3533 -0.1667
  522TIP3   OH223124   5.119   1.725   0.612 -0.0179 -0.2848 -0.0099
  522TIP3    H123125   5.170   1.646   0.590 -0.6959 -0.3984 -1.2518
  522TIP3    H223126   5.181   1.780   0.661  1.3260 -0.4313 -1.4543
  523TIP3   OH223127   1.008   3.963   6.275 -0.3209  0.3023  0.4016
  523TIP3    H123128   0.952   3.937   6.201  2.1927 -2.0218 -0.8792
  523TIP3    H223129   0.971   4.045   6.306 -3.5996 -0.4405 -1.1537
  524TIP3   OH223130   1.528   3.891   6.271  0.2541  0.0018 -0.3181
  524TIP3    H123131   1.444   3.933   6.285 -0.1954 -1.2970  1.1387
  524TIP3    H223132   1.519   3.845   6.188 -0.4764 -0.1415 -0.1625
  525TIP3   OH223133   7.129   1.142   6.983  0.2530 -0.1241 -0.0444
  525TIP3    H123134   7.122   1.047   6.976  1.0559 -0.1483 -0.6569
  525TIP3    H223135   7.217   1.162   6.951  0.5109  0.7212  1.1489
  526TIP3   OH223136   5.453   2.266   6.276  0.0539  0.5939 -0.1149
  526TIP3    H123137   5.517   2.251   6.207  0.0367  0.3730 -0.0809
  526TIP3    H223138   5.378   2.304   6.231  0.5162  1.6489 -0.0425
  527TIP3   OH223139   2.343   1.417   0.056 -0.4613  0.3734  0.5754
  527TIP3    H123140   2.299   1.362   0.122 -0.2063 -1.4377 -0.7034
  527TIP3    H223141   2.419   1.453   0.102 -1.3757  0.7978  1.8327
  528TIP3   OH223142   4.954   3.591   6.069 -0.3847 -0.6118 -0.1695
  528TIP3    H123143   4.975   3.589   6.163 -1.0827  1.3219  0.0835
  528TIP3    H223144   4.962   3.500   6.040 -1.8909 -1.5674  2.1476
  529TIP3   OH223145   4.481   5.827   1.305  0.0375 -0.2644 -0.3309
  529TIP3    H123146   4.526   5.900   1.262  0.5443 -2.0211 -2.9721
  529TIP3    H223147   4.550   5.781   1.352 -0.0751  0.2127  0.3280
  530TIP3   OH223148   5.462   3.386   0.981  0.4692 -0.0170 -0.4151
  530TIP3    H123149   5.550   3.364   1.013  0.4671 -1.3266 -1.2184
  530TIP3    H223150   5.437   3.311   0.927 -1.1731  0.3180 -0.1640
  531TIP3   OH223151   5.374   1.472   1.366  0.3434 -0.6869 -0.1802
  531TIP3    H123152   5.366   1.377   1.365  1.5915 -0.8261  0.9308
  531TIP3    H223153   5.333   1.500   1.284 -1.1857 -2.0684  0.0580
  532TIP3   OH223154   5.035   6.091   1.482  0.2713 -0.1503 -0.3668
  532TIP3    H123155   5.122   6.108   1.444 -0.1154  1.7335 -0.5025
  532TIP3    H223156   4.976   6.092   1.407 -0.1263  0.7242 -0.0580
  533TIP3   OH223157   6.518   3.964   5.972  0.1549 -0.1928  0.2296
  533TIP3    H123158   6.475   4.009   6.044  1.0406 -0.3560  0.8797
  533TIP3    H223159   6.532   4.031   5.906  1.4171  0.5027  1.1653
  534TIP3   OH223160   5.704   3.030   7.875  0.4832 -0.1704 -0.0053
  534TIP3    H123161   5.769   3.061   7.811 -0.7513  1.7753 -0.4271
  534TIP3    H223162   5.630   3.002   7.821 -0.4939  1.3026  0.4988
  535TIP3   OH223163   6.050   5.567   6.244  0.2823  0.4942  0.3212
  535TIP3    H123164   6.043   5.626   6.170 -0.6203  0.1337  0.1035
  535TIP3    H223165   6.061   5.624   6.320 -0.5108  0.9418  0.1091
  536TIP3   OH223166   5.640   6.511   1.086 -0.2895 -0.6631 -0.2122
  536TIP3    H123167   5.608   6.599   1.063 -0.0771 -1.2225 -3.0064
  536TIP3    H223168   5.692   6.525   1.165  0.3367  1.8651 -0.9643
  537TIP3   OH223169   3.517   2.313   0.696 -0.0731 -0.4961 -0.2178
  537TIP3    H123170   3.504   2.342   0.786  1.5240  3.9603 -1.1738
  537TIP3    H223171   3.605   2.273   0.697  0.0957 -0.1223  0.1207
  538TIP3   OH223172   1.860   7.135   1.439 -0.1859 -0.8907  0.5586
  538TIP3    H123173   1.870   7.063   1.377 -1.3749 -0.5522 -0.0514
  538TIP3    H223174   1.901   7.210   1.395 -1.7546 -0.4500 -0.2189
  539TIP3   OH223175   0.417   5.016   7.449  0.4440 -0.0246  0.6694
  539TIP3    H123176   0.475   5.054   7.383  0.2775 -0.0542  0.5037
  539TIP3    H223177   0.372   5.092   7.486  2.9991  0.4087  3.1980
  540TIP3   OH223178   1.643   6.304   0.114 -0.5508  0.1501  0.1030
  540TIP3    H123179   1.654   6.213   0.144  0.0253 -0.0903 -0.7871
  540TIP3    H223180   1.584   6.343   0.179 -1.1846 -0.9875  0.2581
  541TIP3   OH223181   5.509   6.980   7.829  0.0832 -0.0877  0.5460
  541TIP3    H123182   5.429   6.954   7.875 -1.0688  2.0656 -0.1038
  541TIP3    H223183   5.482   6.989   7.737  0.7304  1.8416  0.5030
  542TIP3   OH223184   3.341   0.111   6.473 -0.1981 -0.4071  0.5427
  542TIP3    H123185   3.383   0.077   6.394  0.9419 -0.1888  1.0351
  542TIP3    H223186   3.387   0.192   6.492 -0.0563 -0.7461  1.7534
  543TIP3   OH223187   2.316   1.979   1.264  0.8396  0.1348 -0.4093
  543TIP3    H123188   2.390   1.932   1.225  0.5942 -1.1640  0.6221
  543TIP3    H223189   2.309   1.943   1.352  0.1870  1.6392  0.1834
  544TIP3   OH223190   4.128   1.043   1.156 -0.7465  0.2733 -0.0934
  544TIP3    H123191   4.072   1.118   1.174 -1.2103 -0.0989  0.0479
  544TIP3    H223192   4.195   1.046   1.224 -1.2732  0.0673  0.4419
  545TIP3   OH223193   7.050   5.876   7.313 -0.4045 -0.3466 -0.1432
  545TIP3    H123194   7.003   5.939   7.259 -0.4496 -0.5275 -0.3138
  545TIP3    H223195   7.141   5.906   7.311 -0.4433 -0.2247 -0.1330
  546TIP3   OH223196   6.649   3.641   1.320  0.0819 -0.2288 -0.4791
  546TIP3    H123197   6.593   3.667   1.247 -0.0263 -1.9540 -1.0488
  546TIP3    H223198   6.587   3.621   1.391  0.0964 -0.1197 -0.4355
  547TIP3   OH223199   3.266   4.144   0.719 -0.0796 -0.2938 -0.1052
  547TIP3    H123200   3.317   4.064   0.703 -0.1260 -0.4249  0.3784
  547TIP3    H223201   3.318   4.214   0.679  0.5701 -0.4059  0.5116
  548TIP3   OH223202   6.506   4.317   6.638  0.6140  0.0026 -0.3370
  548TIP3    H123203   6.540   4.241   6.684  1.8957  1.2152  0.8217
  548TIP3    H223204   6.441   4.355   6.697  0.3912  0.1300 -0.6571
  549TIP3   OH223205   4.633   6.839   6.508 -0.2789 -0.1691 -0.1926
  549TIP3    H123206   4.540   6.853   6.489  0.1582  0.0752 -2.4222
  549TIP3    H223207   4.644   6.744   6.502 -0.1235 -0.0893 -1.4824
  550TIP3   OH223208   1.863   3.563   6.851  0.7246  0.5445  0.2527
  550TIP3    H123209   1.948   3.595   6.881 -0.3312  0.9259  3.2296
  550TIP3    H223210   1.850   3.481   6.899 -0.6552  0.5672 -0.0382
  551TIP3   OH223211   6.370   2.581   1.029  0.1145 -0.2046 -0.3263
  551TIP3    H123212   6.319   2.657   1.001  1.9610  0.9160 -0.8346
  551TIP3    H223213   6.407   2.606   1.113 -1.3944 -1.6490  0.8591
  552TIP3   OH223214   5.424   0.562   2.175  0.5285  0.3870 -0.3188
  552TIP3    H123215   5.463   0.539   2.090 -0.8864  1.6400 -1.3500
  552TIP3    H223216   5.419   0.657   2.174  0.4275  0.4213  1.1779
  553TIP3   OH223217   5.950   6.556   6.304  0.3470  0.3947 -0.6033
  553TIP3    H123218   6.003   6.495   6.252  0.2724 -1.9635  1.8814
  553TIP3    H223219   6.014   6.603   6.358  0.2315  1.0241 -1.0043
  554TIP3   OH223220   6.589   5.845   0.545 -0.0458 -0.1378  0.2387
  554TIP3    H123221   6.509   5.899   0.550 -1.1356 -1.6824  0.1798
  554TIP3    H223222   6.577   5.792   0.467  1.4684  0.2051 -0.2573
  555TIP3   OH223223   6.216   3.316   1.478  0.1677  0.2230  0.1909
  555TIP3    H123224   6.296   3.265   1.491 -0.2640 -0.2253  1.1306
  555TIP3    H223225   6.177   3.279   1.399  1.5834  1.3805 -1.1346
  556TIP3   OH223226   1.633   0.372   1.443 -0.2711  0.0534 -0.2315
  556TIP3    H123227   1.609   0.432   1.514  2.4240  0.7814  0.1971
  556TIP3    H223228   1.684   0.303   1.485 -0.2682 -0.5794 -1.2213
  557TIP3   OH223229   1.295   0.643   1.704 -0.1775  0.1779  0.0007
  557TIP3    H123230   1.205   0.621   1.683 -1.3799  4.7693 -0.7003
  557TIP3    H223231   1.289   0.700   1.780  1.5277  3.6784 -2.2303
  558TIP3   OH223232   6.484   5.395   7.673  0.2857  0.4719 -0.9794
  558TIP3    H123233   6.505   5.487   7.693 -0.8118  0.1569  2.0451
  558TIP3    H223234   6.403   5.400   7.623  0.7950  1.1504 -1.7799
  559TIP3   OH223235   1.896   4.072   6.873 -0.0839 -0.1763  0.1376
  559TIP3    H123236   1.827   4.032   6.821 -0.0359  0.2635 -0.2703
  559TIP3    H223237   1.853   4.145   6.917 -0.5429 -1.5248  2.0597
  560TIP3   OH223238   4.104   1.886   1.318  0.3816  0.2418  0.5670
  560TIP3    H123239   4.026   1.867   1.370  1.2844  1.1904  2.3474
  560TIP3    H223240   4.173   1.832   1.357  1.0210  0.7574  0.1790
  561TIP3   OH223241   1.236   3.969   6.993 -0.4101  0.4413 -0.3979
  561TIP3    H123242   1.289   3.917   7.053  0.8004  1.1474 -0.8310
  561TIP3    H223243   1.191   4.032   7.048  0.7407  1.1260 -0.2194
  562TIP3   OH223244   5.668   5.021   7.300  0.4530 -0.6799  0.1629
  562TIP3    H123245   5.658   4.963   7.375  0.1108  0.1114  0.7372
  562TIP3    H223246   5.757   5.056   7.308 -0.4802  1.5677  1.8168
  563TIP3   OH223247   0.030   1.451   7.416 -0.0256  0.1304 -0.0943
  563TIP3    H123248  -0.023   1.446   7.496 -0.3437  0.1794 -0.3004
  563TIP3    H223249   0.040   1.359   7.390 -1.0305  0.1835 -0.7170
  564TIP3   OH223250   2.030   5.874   0.647  0.6320  0.2643  0.0159
  564TIP3    H123251   2.075   5.900   0.566  0.0520  2.4005  0.3088
  564TIP3    H223252   2.026   5.779   0.643  0.3672  0.3193 -2.6042
  565TIP3   OH223253   5.467   3.774   1.373  0.2437 -0.0214 -0.3210
  565TIP3    H123254   5.506   3.861   1.378 -0.2849  0.2245 -0.3904
  565TIP3    H223255   5.487   3.744   1.284  1.1745 -0.3366 -0.0160
  566TIP3   OH223256   2.153   5.777   6.535  0.3023  0.0287 -0.4856
  566TIP3    H123257   2.183   5.700   6.584  0.8486  1.3667  1.3842
  566TIP3    H223258   2.060   5.784   6.557  0.4394  0.3644 -0.0173
  567TIP3   OH223259   2.204   6.536   1.485 -0.4402 -0.4289 -0.6799
  567TIP3    H123260   2.139   6.496   1.544  0.5030  0.9960  1.4378
  567TIP3    H223261   2.286   6.530   1.533  0.0458  2.4147 -1.0236
  568TIP3   OH223262   0.068   4.773   6.864  0.0540  0.2412 -0.0254
  568TIP3    H123263   0.059   4.821   6.946 -1.3522  1.4949 -0.8780
  568TIP3    H223264   0.103   4.837   6.802 -0.5424 -0.2120 -0.8452
  569TIP3   OH223265   2.365   6.623   7.415 -0.1759  0.5636  0.5175
  569TIP3    H123266   2.410   6.548   7.454  2.0085  1.9876  0.9169
  569TIP3    H223267   2.344   6.680   7.489  0.2733  1.3985  0.0141
  570TIP3   OH223268   4.504   0.746   6.525  0.4649 -0.3038 -0.0314
  570TIP3    H123269   4.555   0.823   6.550 -1.5730  1.0359  0.1532
  570TIP3    H223270   4.416   0.762   6.559 -0.2085 -2.3873 -0.6307
  571TIP3   OH223271   2.333   1.593   1.155 -0.8241 -0.3198 -0.1286
  571TIP3    H123272   2.365   1.683   1.159  0.2052 -0.6693 -0.2494
  571TIP3    H223273   2.409   1.539   1.176 -0.5224 -1.3167 -3.2064
  572TIP3   OH223274   3.174   6.220   0.873 -0.0784 -0.2866  0.3907
  572TIP3    H123275   3.179   6.309   0.907 -0.9262 -0.2623  0.4726
  572TIP3    H223276   3.207   6.165   0.944  1.8128  0.0407 -0.1643
  573TIP3   OH223277   5.116   4.036   0.707 -0.0969  0.1445  0.2993
  573TIP3    H123278   5.198   4.015   0.663 -1.7354 -0.5285 -2.6709
  573TIP3    H223279   5.113   4.131   0.709  1.2729  0.1899  1.5918
  574TIP3   OH223280   2.836   1.254   0.213  0.5159 -0.5510  0.3528
  574TIP3    H123281   2.742   1.252   0.195  0.1196 -0.0665  2.1830
  574TIP3    H223282   2.871   1.177   0.168 -0.7370 -0.6989 -0.4117
  575TIP3   OH223283   5.858   2.789   7.046  0.0354 -0.0770  0.0936
  575TIP3    H123284   5.905   2.834   7.116  1.3398  0.2268 -0.9293
  575TIP3    H223285   5.775   2.764   7.085 -0.3083  2.2780  1.0419
  576TIP3   OH223286   1.512   5.509   7.689  0.6982  0.0533  0.5682
  576TIP3    H123287   1.502   5.527   7.596  0.4219  0.6437  0.7078
  576TIP3    H223288   1.423   5.503   7.722  0.7532  2.1543  1.2173
  577TIP3   OH223289   1.685   3.744   7.358  0.4912 -0.0197 -0.2486
  577TIP3    H123290   1.589   3.744   7.352  0.5030  0.6677 -0.5653
  577TIP3    H223291   1.704   3.713   7.447 -0.0666  1.0360  0.2549
  578TIP3   OH223292   4.370   4.131   0.103 -0.0052 -0.9059  0.0300
  578TIP3    H123293   4.395   4.062   0.042 -1.0712 -0.5890 -0.8052
  578TIP3    H223294   4.427   4.205   0.082  0.6752 -1.2976  0.4690
  579TIP3   OH223295   4.639   2.237   6.963  0.0649  0.2607 -0.3143
  579TIP3    H123296   4.621   2.327   6.935  4.2652  2.4884  2.8273
  579TIP3    H223297   4.580   2.223   7.037 -1.8929 -0.4604 -1.9197
  580TIP3   OH223298   2.837   5.953   1.922 -0.0271  0.6218 -0.9136
  580TIP3    H123299   2.779   6.004   1.865 -1.0630 -1.6333 -2.0606
  580TIP3    H223300   2.898   5.911   1.861 -0.5052 -1.0504 -0.2934
  581TIP3   OH223301   2.890   3.194   6.723  0.7110  0.2828 -0.2225
  581TIP3    H123302   2.910   3.219   6.633 -1.9629  1.5033 -0.5818
  581TIP3    H223303   2.864   3.276   6.766 -0.6982 -0.6572  0.8478
  582TIP3   OH223304   2.201   5.367   7.860 -0.4745 -0.4208 -0.5892
  582TIP3    H123305   2.246   5.339   7.940 -1.5905 -0.2760  0.1209
  582TIP3    H223306   2.267   5.359   7.791  0.6837 -0.0207  0.4307
  583TIP3   OH223307   4.822   0.598   1.810 -0.4965 -0.4004 -0.3566
  583TIP3    H123308   4.732   0.631   1.800 -1.4207 -1.8407  2.1656
  583TIP3    H223309   4.820   0.510   1.773 -1.1101 -1.6709  2.4061
  584TIP3   OH223310   3.938   3.033   1.058 -0.2343 -0.3388  1.1190
  584TIP3    H123311   3.933   2.960   1.120 -1.4627  0.2206  1.7294
  584TIP3    H223312   3.975   2.995   0.979 -1.4287 -1.7840  1.2035
  585TIP3   OH223313   4.549   5.732   7.999  0.1028 -0.0133  0.5386
  585TIP3    H123314   4.565   5.800   7.934  1.2479 -0.9363 -0.1715
  585TIP3    H223315   4.634   5.716   8.040 -0.5785  0.5435  2.3047
  586TIP3   OH223316   4.268   5.207   7.913 -0.6148  0.1084  0.3572
  586TIP3    H123317   4.252   5.164   7.829  0.9306 -0.4816  0.3323
  586TIP3    H223318   4.189   5.188   7.964 -0.1881 -2.4765  0.2026
  587TIP3   OH223319   1.956   6.263   0.529  0.1173 -0.8270 -0.0347
  587TIP3    H123320   1.895   6.320   0.574 -0.4458 -0.4591 -1.2413
  587TIP3    H223321   2.042   6.287   0.564 -0.1397  0.5652 -0.3111
  588TIP3   OH223322   2.055   1.631   7.274 -0.7066 -0.0942 -0.2997
  588TIP3    H123323   2.096   1.641   7.360 -2.1729 -1.0549  0.5671
  588TIP3    H223324   2.012   1.546   7.279 -1.3985  0.1474 -1.7577
  589TIP3   OH223325   6.013   6.434   0.471  0.8424  0.0234  0.1297
  589TIP3    H123326   5.924   6.428   0.436  0.9428 -0.4525 -0.0547
  589TIP3    H223327   6.018   6.522   0.508  0.4790  0.2561 -0.3559
  590TIP3   OH223328   4.872   0.155   6.520 -0.3082  0.2422  0.0318
  590TIP3    H123329   4.838   0.082   6.469 -1.2354  0.5093  0.2624
  590TIP3    H223330   4.834   0.144   6.607 -0.4941  1.0258  0.0555
  591TIP3   OH223331   1.265   2.065   1.905  0.3194 -0.1871 -0.0179
  591TIP3    H123332   1.192   2.048   1.964  0.7058 -0.3764  0.4093
  591TIP3    H223333   1.321   2.125   1.952 -0.4250  1.3905 -1.0457
  592TIP3   OH223334   6.267   5.997   7.716 -0.3840  0.5042 -0.0736
  592TIP3    H123335   6.259   5.902   7.705  0.1836  0.2178  1.6260
  592TIP3    H223336   6.335   6.007   7.783  0.8429  2.1820 -1.4878
  593TIP3   OH223337   4.614   2.386   1.206 -0.9780  0.6561 -0.1111
  593TIP3    H123338   4.563   2.396   1.125 -0.2609  1.9454 -0.4166
  593TIP3    H223339   4.567   2.439   1.270 -1.1709  0.1717  0.1512
  594TIP3   OH223340   3.198   1.691   0.926 -0.0512  0.2141 -0.4025
  594TIP3    H123341   3.228   1.608   0.889 -0.1406  0.1738 -0.3861
  594TIP3    H223342   3.264   1.715   0.991  0.0863  0.2658 -0.5618
  595TIP3   OH223343   7.097   0.705   7.694  0.2725 -0.3564 -0.3413
  595TIP3    H123344   7.090   0.731   7.786 -0.4663  0.7040 -0.6808
  595TIP3    H223345   7.048   0.622   7.689 -2.0319  0.9097 -0.2583
  596TIP3   OH223346   2.971   2.131   0.062  0.6803 -0.0079 -0.0465
  596TIP3    H123347   3.010   2.210   0.024  2.0535  0.0752  1.4457
  596TIP3    H223348   3.023   2.059   0.028  0.9833 -0.0563  0.5150
  597TIP3   OH223349   2.090   1.096   1.403 -0.1369 -0.1037 -0.4478
  597TIP3    H123350   2.010   1.049   1.377  0.5297 -1.7463  0.3670
  597TIP3    H223351   2.161   1.036   1.384  0.7133  0.3385  1.1627
  598TIP3   OH223352   3.638   6.743   7.107  0.5007 -0.0115  0.1763
  598TIP3    H123353   3.670   6.789   7.185  1.2495 -1.0366  0.4924
  598TIP3    H223354   3.553   6.784   7.088  1.1715  1.5732  0.3688
  599TIP3   OH223355   1.868   3.548   0.017  0.9406  0.1427  1.0363
  599TIP3    H123356   1.958   3.540   0.046  1.3238  1.3185  0.2724
  599TIP3    H223357   1.855   3.643   0.006  0.3851 -0.1261 -1.1420
  600TIP3   OH223358   4.727   4.922   0.172 -0.4337 -0.4238  0.2805
  600TIP3    H123359   4.702   4.988   0.107  0.1360  0.8822  1.3202
  600TIP3    H223360   4.651   4.913   0.229 -0.3975 -0.3990  0.3335
  601TIP3   OH223361   4.080   4.217   6.357 -0.0581  0.0790 -0.1348
  601TIP3    H123362   4.108   4.128   6.339  0.2744  0.1768 -0.1048
  601TIP3    H223363   4.086   4.262   6.273  2.1047  0.7028  0.3017
  602TIP3   OH223364   3.712   5.403   0.011 -0.5797  0.1554  0.4321
  602TIP3    H123365   3.735   5.387   0.103  1.3379 -0.4694 -0.0955
  602TIP3    H223366   3.624   5.439   0.014 -0.9176 -0.6887  2.4561
  603TIP3   OH223367   5.741   5.630   0.704 -0.2232 -0.3039 -0.0311
  603TIP3    H123368   5.697   5.606   0.622 -0.9289  0.5730  0.0775
  603TIP3    H223369   5.827   5.661   0.678  0.1863 -1.5817 -0.2892
  604TIP3   OH223370   6.343   3.415   0.614  0.0325  0.4328  0.0014
  604TIP3    H123371   6.265   3.445   0.569  0.1389  1.8780  0.7066
  604TIP3    H223372   6.323   3.427   0.707  0.1000 -1.7476  0.3402
  605TIP3   OH223373   4.962   5.425   0.185 -0.1047  0.4706 -0.1178
  605TIP3    H123374   4.973   5.336   0.217 -1.7546 -0.7027 -2.5092
  605TIP3    H223375   4.910   5.469   0.252  0.0402 -0.5989  0.7234
  606TIP3   OH223376   6.584   5.348   6.028 -0.0983  0.5102  0.2277
  606TIP3    H123377   6.522   5.275   6.019 -1.4796  1.6796 -0.1429
  606TIP3    H223378   6.580   5.393   5.944  1.2837  0.6212  0.2022
  607TIP3   OH223379   0.931   2.967   1.598  0.2843  0.0541 -0.9389
  607TIP3    H123380   0.932   2.880   1.556  0.6764 -0.0954 -0.6264
  607TIP3    H223381   0.900   2.950   1.687 -0.2459  0.3263 -1.0747
  608TIP3   OH223382   4.298   1.180   6.589  0.1814 -0.9368  0.2347
  608TIP3    H123383   4.205   1.159   6.595 -0.1912  0.1736 -1.0784
  608TIP3    H223384   4.305   1.269   6.621  0.5022 -0.4138 -1.2036
  609TIP3   OH223385   1.974   6.735   6.485 -0.3319  0.0185 -0.1313
  609TIP3    H123386   2.012   6.815   6.449 -2.2447  0.8577 -0.3881
  609TIP3    H223387   2.045   6.696   6.536  0.4171  2.3524  0.7556
  610TIP3   OH223388   4.400   5.111   0.528 -0.4326 -0.1703  0.1358
  610TIP3    H123389   4.340   5.043   0.559 -0.2560  0.1439  1.1977
  610TIP3    H223390   4.358   5.193   0.552 -0.7540  0.1407 -1.3415
  611TIP3   OH223391   6.835   2.050   7.241  0.4150 -0.1634  0.0085
  611TIP3    H123392   6.869   2.132   7.277  0.0851  0.0604 -0.1812
  611TIP3    H223393   6.741   2.064   7.236  0.4600 -0.1602 -1.0058
  612TIP3   OH223394   3.020   4.569   6.542  0.0305  0.0681 -0.0560
  612TIP3    H123395   3.083   4.513   6.496 -0.5967  0.3412 -1.2814
  612TIP3    H223396   3.066   4.597   6.621  0.8495 -1.0560 -0.1118
  613TIP3   OH223397   5.356   4.752   1.147 -0.2230 -0.0775  0.1100
  613TIP3    H123398   5.330   4.820   1.086 -0.9579 -1.5714 -1.3160
  613TIP3    H223399   5.280   4.742   1.206 -0.6607 -0.5609 -0.5221
  614TIP3   OH223400   3.763   4.418   6.403 -0.7154 -0.1075  0.0783
  614TIP3    H123401   3.782   4.411   6.310  0.0826 -0.5295  0.2714
  614TIP3    H223402   3.721   4.504   6.413  0.8341  0.7314 -0.3989
  615TIP3   OH223403   6.850   1.284   6.833 -0.2935 -0.6325 -0.4567
  615TIP3    H123404   6.923   1.254   6.887 -0.2808  0.4099  0.1418
  615TIP3    H223405   6.772   1.258   6.882 -0.2929  1.8851  1.0841
  616TIP3   OH223406   6.723   3.200   1.674  0.3449 -0.3896  0.4026
  616TIP3    H123407   6.677   3.202   1.590  4.1020  0.9609 -1.8949
  616TIP3    H223408   6.661   3.236   1.736 -2.6726 -1.5371 -1.7255
  617TIP3   OH223409   3.914   5.094   0.067  0.8317  0.5011  0.2489
  617TIP3    H123410   3.883   5.112  -0.022  0.9523  0.1440  0.1335
  617TIP3    H223411   3.836   5.101   0.121  1.0797  2.6599  0.4044
  618TIP3   OH223412   4.537   5.287   1.838  0.2696  0.1967 -0.0516
  618TIP3    H123413   4.525   5.334   1.921 -0.8603 -2.1360  1.2258
  618TIP3    H223414   4.632   5.280   1.828  0.4892  2.7306 -0.3629
  619TIP3   OH223415   4.813   5.947   0.881  0.1485 -0.2978 -0.1304
  619TIP3    H123416   4.725   5.910   0.872  0.1367 -0.5078  0.7417
  619TIP3    H223417   4.802   6.040   0.866  0.0557 -0.5180 -1.6310
  620TIP3   OH223418   0.120   5.200   5.810  0.4988 -0.1959  0.1869
  620TIP3    H123419   0.138   5.106   5.810  0.7268 -0.1541  0.4958
  620TIP3    H223420   0.025   5.205   5.815  0.4130 -0.4127 -0.8731
  621TIP3   OH223421   4.697   4.927   0.997  0.0326 -0.6198 -0.0628
  621TIP3    H123422   4.708   4.984   1.073  0.0818  0.3531 -0.7838
  621TIP3    H223423   4.606   4.941   0.969  0.0833 -0.7877 -0.3165
  622TIP3   OH223424   4.829   3.154   6.765  0.5271  0.0206  0.0215
  622TIP3    H123425   4.921   3.155   6.738  0.4345  0.2229 -0.2941
  622TIP3    H223426   4.798   3.243   6.747  0.2090 -0.1108 -0.0891
  623TIP3   OH223427   1.333   3.540   8.035  0.4333  0.1146 -0.0638
  623TIP3    H123428   1.345   3.635   8.042  0.4971  0.1478 -0.6032
  623TIP3    H223429   1.421   3.504   8.043  0.3886  0.0893  0.3206
  624TIP3   OH223430   0.639   3.444   7.929  0.0829 -0.1006 -0.1434
  624TIP3    H123431   0.554   3.441   7.973  0.6773 -2.0169  1.0043
  624TIP3    H223432   0.698   3.484   7.994  0.3507 -0.0993 -0.3828
  625TIP3   OH223433   3.068   3.461   7.461 -0.1500 -0.0385  0.0067
  625TIP3    H123434   3.039   3.520   7.531 -0.9092 -0.8919  0.4473
  625TIP3    H223435   3.010   3.480   7.388 -0.4805 -0.3118  0.1924
  626TIP3   OH223436   4.399   5.120   6.658 -0.6392  0.6691  0.1094
  626TIP3    H123437   4.337   5.119   6.585 -0.5684 -0.2673  0.0464
  626TIP3    H223438   4.464   5.054   6.635 -0.9113 -0.0366  1.2679
  627TIP3   OH223439   1.538   2.575   1.498  0.5825  0.1120  0.5781
  627TIP3    H123440   1.554   2.536   1.584 -0.1441  0.3153  0.8116
  627TIP3    H223441   1.625   2.597   1.465  1.1208 -2.3427  0.1253
  628TIP3   OH223442   0.019   0.480   6.383  0.5336  0.0642 -0.0183
  628TIP3    H123443   0.005   0.530   6.303 -3.3162  0.2540  0.5727
  628TIP3    H223444   0.045   0.545   6.448 -1.1619  0.8392 -0.0487
  629TIP3   OH223445   4.983   3.578   6.317  0.2619 -0.0116  0.5019
  629TIP3    H123446   4.935   3.496   6.332 -3.4200  2.1025  1.6029
  629TIP3    H223447   5.038   3.588   6.395  0.0854 -1.0018  0.7717
  630TIP3   OH223448   3.128   6.404   6.889 -0.0784 -0.1751  0.0508
  630TIP3    H123449   3.069   6.340   6.848  0.5134  1.0752 -3.0753
  630TIP3    H223450   3.077   6.484   6.895  0.9087  0.6762 -1.8635
  631TIP3   OH223451   5.774   4.868   1.293  0.1973 -0.3554  0.0527
  631TIP3    H123452   5.752   4.775   1.285 -0.1677 -0.2205 -0.5217
  631TIP3    H223453   5.690   4.912   1.307  0.5737 -0.3607  2.9319
  632TIP3   OH223454   0.906   2.418   6.797 -0.3240  0.0209  0.2627
  632TIP3    H123455   0.990   2.420   6.843  0.1828 -1.0371 -0.5492
  632TIP3    H223456   0.927   2.445   6.708 -0.5256 -1.7045 -0.3526
  633TIP3   OH223457   3.472   4.063   7.430  0.0347 -0.2232 -0.5006
  633TIP3    H123458   3.566   4.075   7.419 -0.1128 -0.6049 -2.5450
  633TIP3    H223459   3.433   4.146   7.401 -0.2766 -0.0201  0.4501
  634TIP3   OH223460   1.850   5.241   7.254 -0.8816 -0.2722 -0.0142
  634TIP3    H123461   1.842   5.181   7.328  0.8604  0.4391  0.8102
  634TIP3    H223462   1.885   5.321   7.292 -2.1661  0.9381 -1.2620
  635TIP3   OH223463   5.561   7.138   7.563  0.1210  0.0161  0.1966
  635TIP3    H123464   5.642   7.135   7.511 -0.7383  0.5194 -1.2453
  635TIP3    H223465   5.567   7.219   7.613  0.0070  0.6825 -0.8266
  636TIP3   OH223466   7.155   4.491   1.575  0.2924  0.1566  0.0861
  636TIP3    H123467   7.148   4.579   1.611  2.2506  0.8374 -1.0541
  636TIP3    H223468   7.116   4.497   1.488 -2.6077 -1.0060  1.1439
  637TIP3   OH223469   2.905   0.791   0.168 -0.1934  0.2758  0.2477
  637TIP3    H123470   2.822   0.747   0.153  0.5906 -1.5081  0.8874
  637TIP3    H223471   2.927   0.830   0.083 -0.1454 -1.9702 -0.8300
  638TIP3   OH223472   4.891   0.612   7.494  0.1123 -0.0548 -0.8418
  638TIP3    H123473   4.962   0.560   7.531  0.4599  1.4507  0.7297
  638TIP3    H223474   4.899   0.697   7.536 -3.3873 -0.1718  0.4176
  639TIP3   OH223475   1.302   7.029   1.162  0.0553  0.1919  1.0098
  639TIP3    H123476   1.359   6.955   1.140  1.4344  1.5533 -0.1257
  639TIP3    H223477   1.215   6.989   1.174  0.6063 -1.5088 -0.3478
  640TIP3   OH223478   2.902   0.588   7.082 -0.6291 -0.4767 -0.0943
  640TIP3    H123479   2.963   0.524   7.118 -2.0141 -2.4809 -1.0969
  640TIP3    H223480   2.838   0.602   7.151  0.5196  1.1195  0.7116
  641TIP3   OH223481   0.898   4.577   7.267 -0.4893 -0.3758  0.3248
  641TIP3    H123482   0.808   4.583   7.299 -0.6742 -2.1637  0.2376
  641TIP3    H223483   0.925   4.487   7.287  1.3791  0.2047  0.5939
  642TIP3   OH223484   0.213   5.434   5.911  0.4656  0.4313  0.2995
  642TIP3    H123485   0.166   5.499   5.859  0.2384 -0.1632 -0.2431
  642TIP3    H223486   0.178   5.350   5.883  1.7493 -0.0196 -0.0229
  643TIP3   OH223487   1.877   6.474   0.689 -0.0065 -0.3508 -0.0800
  643TIP3    H123488   1.970   6.455   0.696 -0.3597 -1.9364  0.6735
  643TIP3    H223489   1.873   6.569   0.674  1.6620  0.1500  2.0990
  644TIP3   OH223490   2.046   4.464   7.328  0.4670  0.2015  0.5280
  644TIP3    H123491   2.019   4.374   7.309  0.4004  0.5359 -1.0968
  644TIP3    H223492   2.127   4.476   7.279  2.2016  0.0980  3.1757
  645TIP3   OH223493   1.108   5.295   6.517 -0.4825  0.7387 -0.2445
  645TIP3    H123494   1.110   5.221   6.578  2.1723  0.7229 -0.2023
  645TIP3    H223495   1.037   5.274   6.456 -2.4808  0.2045  2.1229
  646TIP3   OH223496   2.837   0.115   7.413  0.0521 -0.3094 -0.3556
  646TIP3    H123497   2.849   0.179   7.343  0.9886 -0.9274 -0.7706
  646TIP3    H223498   2.838   0.030   7.369 -3.8208 -0.6355 -0.2176
  647TIP3   OH223499   1.593   6.597   0.809 -0.4158 -0.6003 -0.2408
  647TIP3    H123500   1.605   6.691   0.803 -1.6470 -0.1530  2.7268
  647TIP3    H223501   1.659   6.567   0.871 -0.9428 -1.4649 -0.0700
  648TIP3   OH223502   4.448   0.080   6.028 -0.0065 -0.2149  0.1423
  648TIP3    H123503   4.452   0.138   5.952 -0.7169 -0.0789  0.1978
  648TIP3    H223504   4.537   0.077   6.061  0.5260 -1.0598 -1.2716
  649TIP3   OH223505   1.750   2.537   2.092  0.1029 -0.1443  0.2651
  649TIP3    H123506   1.780   2.627   2.108 -0.7095  0.4111 -1.1619
  649TIP3    H223507   1.735   2.502   2.180  1.0250  0.8995  0.8692
  650TIP3   OH223508   4.708   6.669   6.266  0.5449 -0.5311 -0.2717
  650TIP3    H123509   4.798   6.669   6.299 -0.0079 -0.5185  1.3482
  650TIP3    H223510   4.662   6.606   6.323 -1.4505  2.6009  1.9006
  651TIP3   OH223511   6.173   5.098   7.120  0.5153 -0.0258  0.0554
  651TIP3    H123512   6.213   5.012   7.135  1.3125  0.0601 -1.3860
  651TIP3    H223513   6.208   5.126   7.035  1.1287  2.2181  0.9894
  652TIP3   OH223514   5.168   2.523   7.036 -0.1226 -0.0129  0.0323
  652TIP3    H123515   5.077   2.510   7.010 -0.0927  2.2872 -1.4331
  652TIP3    H223516   5.219   2.482   6.967  0.0262 -1.5467  0.9904
  653TIP3   OH223517   2.490   5.457   8.006 -0.2149 -0.4455  0.0958
  653TIP3    H123518   2.491   5.381   8.064  0.2419  0.1285  0.8590
  653TIP3    H223519   2.520   5.423   7.922 -0.7547 -1.2608  0.2192
  654TIP3   OH223520   1.693   1.585   1.715  0.3042  0.0025  0.0214
  654TIP3    H123521   1.690   1.498   1.755  1.4501  0.2849  0.7711
  654TIP3    H223522   1.783   1.615   1.729  0.1934  0.9198 -1.0759
  655TIP3   OH223523   6.559   6.184   2.166  0.1195 -0.7586 -1.0652
  655TIP3    H123524   6.477   6.142   2.139 -0.9541  0.2405  0.4523
  655TIP3    H223525   6.615   6.111   2.192 -0.3821 -1.4457 -1.8532
  656TIP3   OH223526   5.094   6.709   7.473  0.0559  0.1563 -0.7323
  656TIP3    H123527   5.028   6.703   7.404 -1.6178 -0.5986  0.8655
  656TIP3    H223528   5.073   6.791   7.518 -1.8804 -1.5346  1.7117
  657TIP3   OH223529   0.665   4.207   7.360  0.2297  0.1007  0.1804
  657TIP3    H123530   0.571   4.187   7.354 -0.1121  1.7136 -0.1055
  657TIP3    H223531   0.674   4.254   7.443  0.8724 -0.3917  0.3991
  658TIP3   OH223532   2.308   3.148   7.661 -0.6537  0.5842  0.4723
  658TIP3    H123533   2.278   3.087   7.593  1.7283 -0.3551  0.1619
  658TIP3    H223534   2.310   3.233   7.617  0.1732  0.1115 -0.4331
  659TIP3   OH223535   5.254   1.304   0.990  0.8654 -0.3418 -0.0819
  659TIP3    H123536   5.313   1.257   1.049  1.2555  0.3078  0.0530
  659TIP3    H223537   5.208   1.235   0.942  0.4398 -0.8916  1.0705
  660TIP3   OH223538   3.642   6.228   6.540  0.3231 -0.4490 -0.7992
  660TIP3    H123539   3.612   6.293   6.604 -1.9636 -2.2525  0.0971
  660TIP3    H223540   3.737   6.226   6.551  0.3485  1.8055  0.0020
  661TIP3   OH223541   0.350   6.009   6.550 -0.0822 -0.2284  0.3224
  661TIP3    H123542   0.299   6.076   6.595  0.4253  0.5891 -0.2914
  661TIP3    H223543   0.412   5.978   6.616  0.6558  0.9610  0.2278
  662TIP3   OH223544   3.752   0.441   5.438  0.0862 -0.3742 -0.2990
  662TIP3    H123545   3.822   0.375   5.431 -1.1263 -1.7564  0.0666
  662TIP3    H223546   3.795   0.524   5.418  1.6141 -1.3086 -1.1011
  663TIP3   OH223547   3.763   4.879   5.848  0.3214  0.1981  0.2551
  663TIP3    H123548   3.855   4.900   5.831  0.5335 -0.3002  0.7608
  663TIP3    H223549   3.759   4.784   5.848 -0.0846  0.2075  0.8047
  664TIP3   OH223550   1.913   1.465   5.617 -0.1146 -0.2359 -0.1739
  664TIP3    H123551   1.944   1.541   5.666 -0.4594 -0.0187 -0.2927
  664TIP3    H223552   1.993   1.423   5.585  0.1448 -0.6504  0.9700
  665TIP3   OH223553   1.285   2.024   5.555  0.4705 -0.0408  0.2202
  665TIP3    H123554   1.294   2.119   5.563 -0.5781  0.0844  0.0914
  665TIP3    H223555   1.339   1.989   5.626  1.8367  0.5939 -0.4628
  666TIP3   OH223556   5.563   3.080   5.911 -0.0153  0.5557  0.3898
  666TIP3    H123557   5.598   3.032   5.835 -0.5547  0.1504  0.3920
  666TIP3    H223558   5.485   3.123   5.878 -0.2616  0.3652  0.7171
  667TIP3   OH223559   7.105   3.442   6.739 -0.2894 -0.6644  0.4302
  667TIP3    H123560   7.029   3.474   6.788 -0.1991  1.7583 -0.8540
  667TIP3    H223561   7.084   3.462   6.647 -0.2445 -4.5896 -0.6476
  668TIP3   OH223562   6.682   2.377   5.976  0.4236  0.2054 -0.0627
  668TIP3    H123563   6.774   2.398   5.989  0.3844  0.2161  0.1930
  668TIP3    H223564   6.659   2.322   6.051 -0.2689  1.7134  0.8725
  669TIP3   OH223565   2.693   3.254   7.952  0.1861 -0.4664  0.1993
  669TIP3    H123566   2.779   3.220   7.979  1.1959  1.2336 -0.7419
  669TIP3    H223567   2.678   3.330   8.008  0.1487  0.3096 -0.8280
  670TIP3   OH223568   2.697   5.947   0.563 -0.0677  0.1437  0.5094
  670TIP3    H123569   2.707   6.041   0.549  2.6194 -0.1681 -0.3099
  670TIP3    H223570   2.643   5.917   0.490  1.2547  0.7061 -0.7426
  671TIP3   OH223571   0.188   3.180   1.787  0.1263  0.0385 -0.3901
  671TIP3    H123572   0.198   3.231   1.867  0.8005 -0.8634  0.1122
  671TIP3    H223573   0.154   3.096   1.816 -3.9161  1.0614 -1.4823
  672TIP3   OH223574   4.419   2.608   6.782 -0.0836 -0.7543 -0.4886
  672TIP3    H123575   4.354   2.644   6.722 -0.4084 -0.6895 -0.1058
  672TIP3    H223576   4.469   2.545   6.730 -0.5272 -0.8897 -0.7532
  673TIP3   OH223577   3.316   2.452   0.415 -0.9870  0.2188 -0.4422
  673TIP3    H123578   3.247   2.467   0.479 -0.3685  0.7983  0.0986
  673TIP3    H223579   3.381   2.519   0.434 -0.3487 -0.2210 -1.0541
  674TIP3   OH223580   0.061   2.284   0.798 -0.2438 -0.4654  0.3377
  674TIP3    H123581   0.076   2.255   0.888 -0.4613 -0.1321  0.4828
  674TIP3    H223582   0.046   2.203   0.749 -0.1559 -0.6448  0.6059
  675TIP3   OH223583   1.125   5.277   1.276  0.2614  0.3783  0.2265
  675TIP3    H123584   1.059   5.347   1.271  0.2041  0.2443 -1.2666
  675TIP3    H223585   1.209   5.323   1.272  0.2257  0.3785 -0.5568
  676TIP3   OH223586   2.036   4.526   6.226 -0.5978  0.4577 -0.2235
  676TIP3    H123587   1.995   4.581   6.293 -1.4148  1.3204 -1.4021
  676TIP3    H223588   2.109   4.579   6.193 -1.6162  1.0507 -1.6268
  677TIP3   OH223589   3.241   0.083   1.154 -0.0449 -0.3730 -0.2546
  677TIP3    H123590   3.158   0.106   1.195  0.5446  2.3119 -0.3354
  677TIP3    H223591   3.296   0.055   1.227 -0.6477 -0.9568 -0.0200
  678TIP3   OH223592   2.633   2.955   0.193  0.5949 -0.0814  0.3938
  678TIP3    H123593   2.673   2.869   0.181  2.1864  0.8970 -2.2282
  678TIP3    H223594   2.551   2.951   0.144  0.1010 -0.4164  1.2261
  679TIP3   OH223595   1.729   3.116   7.588  0.3796 -0.3925  0.7245
  679TIP3    H123596   1.764   3.147   7.672 -2.2855  1.0093  1.4297
  679TIP3    H223597   1.659   3.056   7.613  0.2065 -0.7462 -0.5627
  680TIP3   OH223598   5.164   4.338   1.373 -0.4147 -0.0824  0.3576
  680TIP3    H123599   5.102   4.265   1.383 -0.4316 -0.0846  0.2418
  680TIP3    H223600   5.175   4.372   1.461 -0.6068 -0.0633  0.3755
  681TIP3   OH223601   6.001   3.036   1.020 -0.0028 -0.0463 -0.0381
  681TIP3    H123602   5.912   3.056   1.047 -1.0320 -0.1711 -3.0377
  681TIP3    H223603   6.027   3.109   0.963  1.1146 -0.8945 -0.6647
  682TIP3   OH223604   4.720   0.922   6.366 -0.5570 -0.3295  0.2267
  682TIP3    H123605   4.624   0.919   6.368 -0.6458  0.2525 -1.5278
  682TIP3    H223606   4.741   0.958   6.280  1.2256  1.1263  1.2011
  683TIP3   OH223607   2.588   0.490   7.837 -0.3661  0.1613 -0.3888
  683TIP3    H123608   2.621   0.575   7.810  2.2376 -0.8432 -0.6017
  683TIP3    H223609   2.663   0.431   7.831 -2.3139 -2.4373 -1.4071
  684TIP3   OH223610   4.778   6.899   1.926  0.4706  0.6267  0.3088
  684TIP3    H123611   4.772   6.804   1.930  0.8783  0.6364  1.4466
  684TIP3    H223612   4.871   6.918   1.933  0.3188  1.1415  1.0794
  685TIP3   OH223613   3.480   3.940   0.703  0.2266  0.5681  0.4878
  685TIP3    H123614   3.517   3.969   0.786  1.9371  0.3219 -0.1644
  685TIP3    H223615   3.456   3.849   0.718  1.2671  0.2861  0.4966
  686TIP3   OH223616   6.617   4.464   0.081  0.5555 -0.9169  0.5782
  686TIP3    H123617   6.622   4.466   0.177 -1.1047 -1.2196  0.7022
  686TIP3    H223618   6.554   4.394   0.062 -1.9253  1.4221 -0.5378
  687TIP3   OH223619   3.818   0.215   7.213 -0.3322  0.1283 -0.0148
  687TIP3    H123620   3.834   0.120   7.216  0.8666  0.3304  1.3700
  687TIP3    H223621   3.899   0.254   7.245 -0.7876  1.6434 -0.6219
  688TIP3   OH223622   1.347   7.084   6.299  0.6205  0.1784 -0.5462
  688TIP3    H123623   1.319   7.102   6.210 -2.4364  0.1105  0.3170
  688TIP3    H223624   1.341   7.169   6.344  0.6602 -0.0835 -0.0303
  689TIP3   OH223625   2.066   2.717   7.211 -0.0313  0.1351  0.1676
  689TIP3    H123626   2.073   2.622   7.221 -0.4402  0.0549 -0.2712
  689TIP3    H223627   2.148   2.743   7.168  0.1950  0.0179  0.5264
  690TIP3   OH223628   0.998   3.832   0.654 -0.3570 -0.2221  0.7936
  690TIP3    H123629   1.065   3.890   0.620 -1.4827 -0.1332 -1.4729
  690TIP3    H223630   0.992   3.853   0.747  2.6576 -0.2085  1.0726
  691TIP3   OH223631   0.291   0.095   7.555 -0.1165  0.1576  0.3175
  691TIP3    H123632   0.240   0.015   7.541  1.5440 -0.9609  0.4097
  691TIP3    H223633   0.225   0.164   7.565 -1.5840 -1.1290 -0.0961
  692TIP3   OH223634   1.831   5.738   0.002 -0.5549  0.4508  0.2588
  692TIP3    H123635   1.915   5.725   0.046 -0.1713  1.1535 -0.2286
  692TIP3    H223636   1.850   5.717  -0.090 -0.2838  2.7900 -0.2837
  693TIP3   OH223637   4.390   5.065   7.369  0.0176 -0.2245  0.3988
  693TIP3    H123638   4.332   5.008   7.319  2.3978 -0.2984 -2.5399
  693TIP3    H223639   4.452   5.006   7.411 -0.5835 -0.0106  1.6454
  694TIP3   OH223640   6.603   4.007   1.192 -0.1851  0.1384  0.1589
  694TIP3    H123641   6.681   3.965   1.227  0.4923  0.0774 -1.3487
  694TIP3    H223642   6.530   3.969   1.242  0.7668  0.7672  2.1265
  695TIP3   OH223643   3.513   0.925   7.564 -0.2886  0.7308  0.0907
  695TIP3    H123644   3.573   0.866   7.609 -0.0318 -1.4494 -2.7922
  695TIP3    H223645   3.568   0.971   7.500 -1.4112 -0.5571 -1.9015
  696TIP3   OH223646   4.712   0.934   7.223  0.4198  0.0153 -0.2392
  696TIP3    H123647   4.793   0.942   7.173  0.4521  0.2414 -0.1526
  696TIP3    H223648   4.663   0.865   7.178  0.7318 -0.2402 -0.1888
  697TIP3   OH223649   2.912   4.454   0.916 -0.2336  0.7336 -0.0081
  697TIP3    H123650   2.888   4.363   0.933  1.8811  0.1728  0.2651
  697TIP3    H223651   2.899   4.498   1.000 -1.1403  0.6845 -0.1073
  698TIP3   OH223652   3.510   5.852   5.956 -0.1103  0.1404 -0.5244
  698TIP3    H123653   3.501   5.946   5.942  0.6519  0.3123  0.0957
  698TIP3    H223654   3.420   5.821   5.969 -0.3868  0.7381 -0.9531
  699TIP3   OH223655   3.747   2.651   1.231  0.1374 -0.2111  0.6277
  699TIP3    H123656   3.697   2.572   1.210 -1.5222  0.5150  1.6097
  699TIP3    H223657   3.776   2.638   1.321  0.9139 -0.2075  0.3872
  700TIP3   OH223658   5.467   0.955   0.476 -0.6499 -0.3949 -0.5241
  700TIP3    H123659   5.558   0.932   0.461 -0.2451  0.6645  0.2512
  700TIP3    H223660   5.468   1.014   0.551 -1.8276  0.6513 -1.2839
  701TIP3   OH223661   4.775   3.700   0.319  0.2400  0.0565  0.1050
  701TIP3    H123662   4.744   3.715   0.409  1.1147 -0.3433  0.4832
  701TIP3    H223663   4.867   3.729   0.321  1.1488 -2.5838  0.1108
  702TIP3   OH223664   6.791   4.846   7.865  0.6058  0.0018  0.2882
  702TIP3    H123665   6.722   4.910   7.851  1.5191  0.6004 -2.0103
  702TIP3    H223666   6.807   4.847   7.959 -2.8735 -0.6402  1.0222
  703TIP3   OH223667   1.549   1.425   6.754 -0.2749 -0.0011 -0.1217
  703TIP3    H123668   1.605   1.496   6.720 -0.1971  0.1238  0.2653
  703TIP3    H223669   1.523   1.455   6.841 -0.5452 -0.2839 -0.1059
  704TIP3   OH223670   2.133   6.655   0.881 -0.0568 -0.1522 -0.9589
  704TIP3    H123671   2.180   6.574   0.903  0.0610 -0.4641 -2.2664
  704TIP3    H223672   2.187   6.725   0.917 -0.4892 -0.6658  0.7577
  705TIP3   OH223673   0.626   1.948   6.692 -0.5754 -0.0411 -0.2041
  705TIP3    H123674   0.618   1.853   6.692 -0.2934 -0.1713 -3.1469
  705TIP3    H223675   0.536   1.980   6.686 -0.6266 -0.1404  0.0178
  706TIP3   OH223676   6.098   1.294   6.404 -0.3523  0.2882 -0.0855
  706TIP3    H123677   6.042   1.236   6.456  0.4387  1.0810  1.7343
  706TIP3    H223678   6.186   1.259   6.417  0.2022  2.0886  1.4239
  707TIP3   OH223679   0.425   0.998   7.031 -0.3232 -0.1482  0.0781
  707TIP3    H123680   0.427   0.914   7.076  1.1815  0.2428  0.8214
  707TIP3    H223681   0.391   1.060   7.095  1.0968  0.2690  0.4687
  708TIP3   OH223682   2.919   0.082   6.825 -0.5305  0.1353  0.5886
  708TIP3    H123683   2.842   0.045   6.868  0.7611 -1.3210  1.7730
  708TIP3    H223684   2.961   0.007   6.783 -1.1331  1.3181 -2.3915
  709TIP3   OH223685   7.044   3.591   0.808 -0.3667 -0.5427 -0.1929
  709TIP3    H123686   7.130   3.631   0.798 -1.6048  2.2678 -0.8340
  709TIP3    H223687   6.987   3.643   0.750 -2.7889 -1.1995  1.4312
  710TIP3   OH223688   0.709   4.436   7.071 -0.4445 -0.0575  0.0452
  710TIP3    H123689   0.717   4.520   7.115 -0.8503 -0.5659  1.1115
  710TIP3    H223690   0.634   4.394   7.111  1.0323 -1.8467  1.1158
  711TIP3   OH223691   1.208   2.491   6.436 -0.3864  0.3643  0.0247
  711TIP3    H123692   1.169   2.560   6.383 -3.6453 -0.9329  0.5039
  711TIP3    H223693   1.246   2.431   6.372 -1.7069  0.2846 -0.7314
  712TIP3   OH223694   0.725   6.721   0.394 -0.5017 -0.8152 -0.4160
  712TIP3    H123695   0.818   6.698   0.392 -0.4287 -0.4820 -1.1620
  712TIP3    H223696   0.722   6.802   0.444 -0.6066 -1.7118  1.0877
  713TIP3   OH223697   5.896   3.835   7.041 -0.1799 -0.5776  0.0606
  713TIP3    H123698   5.808   3.872   7.053 -0.8198 -1.9483 -0.2581
  713TIP3    H223699   5.936   3.892   6.975 -1.0821 -0.3520 -0.3150
  714TIP3   OH223700   4.952   1.760   7.721  0.0317 -0.6346 -0.4875
  714TIP3    H123701   4.993   1.812   7.791 -1.3914  0.5178 -0.4669
  714TIP3    H223702   5.001   1.782   7.642 -0.0988  0.1797 -0.3428
  715TIP3   OH223703   0.753   3.278   0.582 -0.1918 -0.2144  0.0289
  715TIP3    H123704   0.738   3.369   0.608  0.4961 -0.2300  0.5085
  715TIP3    H223705   0.831   3.281   0.527 -0.5269 -0.4398 -0.4672
  716TIP3   OH223706   2.614   5.227   0.631  0.2432 -0.7279 -0.3189
  716TIP3    H123707   2.703   5.261   0.623  0.6858 -1.5128  0.9611
  716TIP3    H223708   2.592   5.239   0.723 -0.9912 -0.5345 -0.6290
  717TIP3   OH223709   6.743   6.198   6.779  0.1291  0.3774  0.0286
  717TIP3    H123710   6.797   6.229   6.706  0.0569 -0.8496 -0.5582
  717TIP3    H223711   6.766   6.106   6.789 -2.0908 -0.2739 -0.4598
  718TIP3   OH223712   5.010   7.022   1.005 -0.1279  0.2998  0.2620
  718TIP3    H123713   5.063   7.052   0.931 -0.5057 -0.9346 -0.5538
  718TIP3    H223714   5.064   6.955   1.047 -1.5962 -2.2094 -1.5885
  719TIP3   OH223715   2.464   6.192   0.337  0.6426 -0.1950 -0.2843
  719TIP3    H123716   2.531   6.225   0.276 -0.0645  0.5361 -0.6828
  719TIP3    H223717   2.422   6.121   0.290  2.3031 -1.8860  0.6520
  720TIP3   OH223718   6.708   0.058   6.364  0.2391 -0.1110  0.5566
  720TIP3    H123719   6.666  -0.025   6.386  0.3592 -0.4021 -0.2525
  720TIP3    H223720   6.664   0.087   6.284  0.9223  0.0586  0.2317
  721TIP3   OH223721   2.787   6.047   7.171  0.6449 -0.5728  0.0472
  721TIP3    H123722   2.858   6.108   7.152  1.2090 -0.6283  1.8455
  721TIP3    H223723   2.827   5.961   7.167  0.4922 -0.6549  0.2578
  722TIP3   OH223724   4.943   3.188   0.119  0.5434 -0.6665 -0.5667
  722TIP3    H123725   4.906   3.171   0.206 -0.8954  1.2821 -0.7130
  722TIP3    H223726   4.877   3.158   0.058 -0.9053  2.6643 -0.8384
  723TIP3   OH223727   6.372   4.109   6.148  0.2002 -0.0832  0.0951
  723TIP3    H123728   6.400   4.128   6.237  2.8016 -1.5759 -0.3039
  723TIP3    H223729   6.281   4.139   6.145  0.5276  1.5193  2.7159
  724TIP3   OH223730   0.424   0.917   7.505 -0.2311 -0.7849  0.2229
  724TIP3    H123731   0.493   0.876   7.557  1.1524 -1.8987 -2.2669
  724TIP3    H223732   0.344   0.873   7.532  0.6425 -2.2912  0.5000
  725TIP3   OH223733   1.331   1.305   0.079  0.5624  0.2994 -0.2254
  725TIP3    H123734   1.239   1.323   0.060  0.1218  0.5759  1.9710
  725TIP3    H223735   1.379   1.377   0.039 -0.3093  0.9240 -0.1449
  726TIP3   OH223736   5.938   6.466   5.767 -0.3736  0.0048  0.3564
  726TIP3    H123737   6.030   6.440   5.778  0.8492  2.3371 -2.7992
  726TIP3    H223738   5.897   6.394   5.721  0.4260 -0.2376  0.0075
  727TIP3   OH223739   5.695   4.081   1.042  0.1858 -0.5027  0.4911
  727TIP3    H123740   5.751   4.052   1.114  0.9097  0.7781  0.4833
  727TIP3    H223741   5.755   4.126   0.982 -0.6258 -0.3866 -0.2574
  728TIP3   OH223742   3.238   4.174   6.287  0.9744 -0.1308  0.1973
  728TIP3    H123743   3.234   4.177   6.192  0.4492 -0.0149  0.2197
  728TIP3    H223744   3.247   4.081   6.308 -0.8018 -0.3671  0.0844
  729TIP3   OH223745   4.125   6.437   6.802 -0.0940  0.2073 -0.5829
  729TIP3    H123746   4.118   6.504   6.871  0.7620  0.0763 -0.3666
  729TIP3    H223747   4.191   6.376   6.834 -1.1738 -0.9923 -0.5847
  730TIP3   OH223748   0.983   2.069   0.721  0.2828 -0.1256 -0.0950
  730TIP3    H123749   0.942   2.038   0.641 -0.9369 -0.0771  0.4756
  730TIP3    H223750   1.023   1.992   0.761 -1.5203 -0.7422  0.6177
  731TIP3   OH223751   5.854   6.834   7.238  0.3826 -0.4044  0.2277
  731TIP3    H123752   5.777   6.876   7.275  0.5338 -0.1380  0.2396
  731TIP3    H223753   5.820   6.779   7.167  0.2376  0.1229 -0.1129
  732TIP3   OH223754   6.105   3.932   0.739  0.1259  0.2216 -0.0594
  732TIP3    H123755   6.119   3.934   0.834  0.9198 -1.4002 -0.1122
  732TIP3    H223756   6.170   3.994   0.704 -0.3180  0.9906  0.4497
  733TIP3   OH223757   5.589   0.612   1.733  0.3524  0.6406  0.1330
  733TIP3    H123758   5.530   0.537   1.742  0.3023  0.6879  0.2009
  733TIP3    H223759   5.572   0.665   1.811  1.9795 -0.3833  1.2465
  734TIP3   OH223760   3.662   1.295   6.888  0.3382 -0.0152 -0.0084
  734TIP3    H123761   3.636   1.287   6.797  0.4357  4.0438 -0.5742
  734TIP3    H223762   3.758   1.288   6.887  0.4720  1.5224 -0.5285
  735TIP3   OH223763   6.693   0.745   1.715 -0.2323  0.1851  0.8985
  735TIP3    H123764   6.605   0.727   1.748 -0.0868 -0.1455  1.1105
  735TIP3    H223765   6.735   0.659   1.711 -0.2687  0.1948 -0.2089
  736TIP3   OH223766   5.243   3.390   6.339  0.2743  0.1258  0.2557
  736TIP3    H123767   5.220   3.369   6.248  0.3962  1.0751 -0.0095
  736TIP3    H223768   5.223   3.311   6.388  0.3744 -0.4646 -0.6287
  737TIP3   OH223769   3.829   4.325   7.943 -0.3947 -0.0326 -0.1934
  737TIP3    H123770   3.746   4.282   7.920 -0.3674 -0.5207  0.5995
  737TIP3    H223771   3.807   4.380   8.017 -0.5160  1.6636 -1.4259
  738TIP3   OH223772   6.756   0.644   0.460 -0.0538  0.0158  0.0422
  738TIP3    H123773   6.781   0.610   0.373  0.2633  1.0047 -0.2692
  738TIP3    H223774   6.756   0.567   0.516 -0.6870 -0.7139 -0.9277
  739TIP3   OH223775   0.922   6.043   0.988  0.3096  0.2054 -0.9593
  739TIP3    H123776   0.876   6.050   1.071  0.5567  0.8447 -0.8724
  739TIP3    H223777   0.933   5.949   0.975  1.1212  0.1124  0.2106
  740TIP3   OH223778   4.386   3.207   0.300 -0.1287 -0.1444  0.3668
  740TIP3    H123779   4.387   3.303   0.306  3.6412 -0.0049 -0.0809
  740TIP3    H223780   4.410   3.189   0.209  0.7572 -1.4686  0.8483
  741TIP3   OH223781   1.328   3.390   0.962  0.0779  0.0581 -0.1775
  741TIP3    H123782   1.395   3.321   0.966  1.5293  1.0318 -3.6510
  741TIP3    H223783   1.371   3.461   0.913 -1.7205  3.0310  2.2449
  742TIP3   OH223784   5.603   1.126   7.234 -0.1885  0.3537  0.0910
  742TIP3    H123785   5.654   1.067   7.291 -0.4445 -0.6830 -0.7109
  742TIP3    H223786   5.522   1.141   7.283 -0.9238 -1.4961 -0.4421
  743TIP3   OH223787   4.399   6.651   6.237  0.2743  0.2599  0.1347
  743TIP3    H123788   4.399   6.583   6.170 -0.5093 -0.9925  1.3648
  743TIP3    H223789   4.492   6.671   6.250  0.4427  0.4645 -1.2401
  744TIP3   OH223790   4.281   5.157   1.194 -0.1612 -0.3313  0.0670
  744TIP3    H123791   4.349   5.104   1.153  0.2396 -0.4179  0.8257
  744TIP3    H223792   4.290   5.140   1.288  1.4240  2.7196  0.6061
  745TIP3   OH223793   6.210   5.252   7.944 -0.1610 -0.5564 -0.3550
  745TIP3    H123794   6.174   5.263   8.032  0.1368 -2.6180  0.0633
  745TIP3    H223795   6.139   5.280   7.885 -1.3820 -1.7448  0.5005
  746TIP3   OH223796   2.580   1.277   1.609  0.0495  0.1907  0.3073
  746TIP3    H123797   2.625   1.246   1.531  0.0928  0.4701  0.2197
  746TIP3    H223798   2.538   1.359   1.582  0.0644  0.2891  0.5733
  747TIP3   OH223799   4.895   5.169   1.017 -0.3516  0.5208  0.6097
  747TIP3    H123800   4.968   5.206   1.067  0.1746 -1.2369  1.2134
  747TIP3    H223801   4.938   5.113   0.952 -1.1305 -1.8602  2.0283
  748TIP3   OH223802   3.534   5.419   1.741  0.2150 -0.1908  0.1447
  748TIP3    H123803   3.602   5.364   1.701  0.2762 -2.5936  3.1693
  748TIP3    H223804   3.458   5.410   1.683  0.9100 -1.7766 -0.5745
  749TIP3   OH223805   2.390   2.024   7.654 -0.1142 -0.5694  0.4561
  749TIP3    H123806   2.340   2.046   7.733 -1.8948  1.6046 -1.1280
  749TIP3    H223807   2.416   1.933   7.667 -2.1387 -0.9520  2.6222
  750TIP3   OH223808   6.425   1.636   6.204  0.1639 -0.2051 -0.4067
  750TIP3    H123809   6.423   1.701   6.274 -0.0789  0.8002 -1.3121
  750TIP3    H223810   6.342   1.648   6.158  0.3631 -0.7823 -0.9308
  751TIP3   OH223811   5.783   0.891   0.504 -0.0259 -0.1623 -0.2430
  751TIP3    H123812   5.850   0.841   0.550  0.0864 -0.9736 -1.2361
  751TIP3    H223813   5.823   0.977   0.489  0.0889 -0.0348  0.7727
  752TIP3   OH223814   3.963   1.541   7.719 -0.0873 -0.4575 -0.1600
  752TIP3    H123815   3.988   1.606   7.785 -2.4342  2.0485 -1.5048
  752TIP3    H223816   4.009   1.570   7.640  0.9197 -2.0978 -0.2185
  753TIP3   OH223817   1.309   2.307   6.264 -0.1431 -0.5194  0.1420
  753TIP3    H123818   1.236   2.248   6.284  0.0452 -0.9966 -0.5445
  753TIP3    H223819   1.377   2.250   6.229  0.0757  0.0934 -0.4415
  754TIP3   OH223820   2.985   5.903   7.704  0.3978  0.2899 -0.5464
  754TIP3    H123821   2.910   5.851   7.736  0.3782  0.6339 -0.0231
  754TIP3    H223822   3.059   5.872   7.756  0.2570  1.2560  0.2601
  755TIP3   OH223823   0.216   3.386   0.254  1.0402 -0.3609  0.5096
  755TIP3    H123824   0.150   3.442   0.295  1.0567  0.1692 -0.1691
  755TIP3    H223825   0.175   3.356   0.173  1.2863 -0.7856  0.5413
  756TIP3   OH223826   0.827   6.305   1.733  0.3293  0.3181  0.3205
  756TIP3    H123827   0.804   6.277   1.822  1.3343 -1.7548 -0.0145
  756TIP3    H223828   0.919   6.279   1.723  1.2451  3.3559 -0.2840
  757TIP3   OH223829   1.543   4.567   0.377  0.0467 -0.3736 -0.3584
  757TIP3    H123830   1.493   4.525   0.446  0.5275  2.3209  1.8095
  757TIP3    H223831   1.482   4.629   0.337  0.5160  0.0100 -0.4903
  758TIP3   OH223832   4.357   3.318   7.551  0.0452 -0.3074  0.1733
  758TIP3    H123833   4.364   3.373   7.629 -0.2377 -0.9976  0.6980
  758TIP3    H223834   4.440   3.330   7.505  0.4308 -0.2951  0.8561
  759TIP3   OH223835   1.122   1.720   0.610  0.0415  0.1823  0.1740
  759TIP3    H123836   1.076   1.655   0.558 -3.2030  1.2475  1.4460
  759TIP3    H223837   1.124   1.684   0.699  0.5939  0.6708  0.3688
  760TIP3   OH223838   4.252   0.901   6.354 -0.0374 -0.4181 -0.2451
  760TIP3    H123839   4.164   0.938   6.345 -0.4787 -1.0088  1.3410
  760TIP3    H223840   4.310   0.977   6.351 -0.8065  0.2732  1.3275
  761TIP3   OH223841   3.565   6.467   1.404 -0.4762 -0.4058  0.0755
  761TIP3    H123842   3.583   6.373   1.398  1.0193 -0.0760 -1.5389
  761TIP3    H223843   3.602   6.493   1.489 -1.0266 -1.2707  0.5949
  762TIP3   OH223844   6.731   4.411   7.479  0.2847  0.1380  0.1226
  762TIP3    H123845   6.744   4.474   7.550 -0.3403  0.8257 -0.3633
  762TIP3    H223846   6.812   4.417   7.428  0.0230  0.9147 -0.2044
  763TIP3   OH223847   6.010   5.395   7.303 -0.8468 -0.0064  1.0600
  763TIP3    H123848   6.045   5.484   7.300 -1.8937  0.4207  1.1284
  763TIP3    H223849   6.080   5.343   7.344  0.0576  0.6320  0.3833
  764TIP3   OH223850   3.136   3.892   0.605 -0.1891 -0.0064 -0.0605
  764TIP3    H123851   3.104   3.982   0.606  0.2782  0.1623 -0.0576
  764TIP3    H223852   3.141   3.869   0.512 -0.8405 -0.2248 -0.0458
  765TIP3   OH223853   3.397   0.597   7.155 -0.2124 -0.4427  0.1243
  765TIP3    H123854   3.351   0.630   7.078 -0.8778 -1.8336 -0.1098
  765TIP3    H223855   3.384   0.664   7.221  0.7491  0.9992 -1.0683
  766TIP3   OH223856   3.639   0.168   0.852 -0.0217  0.0112 -0.3180
  766TIP3    H123857   3.643   0.080   0.891  1.2761 -0.4867 -1.5065
  766TIP3    H223858   3.671   0.157   0.763  0.7083  1.7992 -0.3191
  767TIP3   OH223859   3.537   7.087   8.028 -0.1104 -0.4062 -0.0487
  767TIP3    H123860   3.626   7.119   8.011  0.1764 -1.4740 -0.6842
  767TIP3    H223861   3.548   7.019   8.093 -0.2417 -1.6040 -1.2335
  768TIP3   OH223862   3.877   0.620   5.652  0.4049  0.5099 -0.3548
  768TIP3    H123863   3.862   0.688   5.718  0.4183 -0.2007  0.4084
  768TIP3    H223864   3.853   0.661   5.569 -4.1756  0.0807  0.4817
  769TIP3   OH223865   4.816   0.701   0.568  0.0379  0.2446 -0.2345
  769TIP3    H123866   4.781   0.745   0.646  0.4931 -1.0303  0.7245
  769TIP3    H223867   4.909   0.724   0.569 -0.0833  0.7817 -0.8035
  770TIP3   OH223868   1.772   1.013   0.339  0.0407 -0.3909  0.3589
  770TIP3    H123869   1.797   1.079   0.404 -1.6005 -0.3088  0.9523
  770TIP3    H223870   1.849   0.957   0.332  1.5435  1.5996 -0.2324
  771TIP3   OH223871   2.357   0.992   0.039 -0.0882  0.3284  0.4055
  771TIP3    H123872   2.270   1.016   0.071 -0.9607 -0.6101 -1.1670
  771TIP3    H223873   2.344   0.970  -0.053  2.0093  1.1503 -0.1574
  772TIP3   OH223874   6.840   6.462   5.890 -0.3189  0.7849 -0.8749
  772TIP3    H123875   6.904   6.453   5.819 -0.1507 -0.8857 -0.5645
  772TIP3    H223876   6.893   6.456   5.970 -0.7687  0.1470 -0.6180
  773TIP3   OH223877   2.332   0.855   7.801 -0.0752 -0.3403 -0.0007
  773TIP3    H123878   2.411   0.872   7.749 -0.7236 -1.1343 -1.3209
  773TIP3    H223879   2.263   0.845   7.735 -1.4184  0.9366  1.1455
  774TIP3   OH223880   4.451   1.674   5.843 -0.1016  0.1167 -0.6657
  774TIP3    H123881   4.532   1.678   5.895  1.2712 -1.2359 -2.5802
  774TIP3    H223882   4.444   1.583   5.816 -2.2655  0.2253 -0.6314
  775TIP3   OH223883   5.012   5.398   1.654  0.1199 -0.1204 -0.1875
  775TIP3    H123884   5.046   5.485   1.632 -0.7571  0.4218  0.5617
  775TIP3    H223885   5.058   5.374   1.734 -0.6408  0.2596  0.3718
  776TIP3   OH223886   2.693   1.475   0.509  0.7232 -0.4642  0.2933
  776TIP3    H123887   2.763   1.508   0.453 -0.6015 -1.6785 -2.2579
  776TIP3    H223888   2.626   1.543   0.506  1.4355  0.4016  2.2038
  777TIP3   OH223889   5.087   5.127   1.451 -0.2851 -0.9329 -0.9107
  777TIP3    H123890   5.154   5.061   1.435  1.7757  0.8282  0.0378
  777TIP3    H223891   5.079   5.132   1.546 -1.2483 -0.5717 -0.9928
  778TIP3   OH223892   3.694   4.328   1.780 -0.3173  0.2849 -0.2309
  778TIP3    H123893   3.722   4.299   1.867 -0.4263 -1.7070 -0.8175
  778TIP3    H223894   3.730   4.417   1.772  0.9620 -0.0481  1.2672
  779TIP3   OH223895   3.405   6.966   0.496  0.1622 -0.1428  0.3782
  779TIP3    H123896   3.416   7.025   0.421  0.2820  0.6528  1.0101
  779TIP3    H223897   3.437   7.016   0.571  1.3747 -1.4376  0.7780
  780TIP3   OH223898   5.258   2.781   6.426  0.3137 -0.6830 -0.4667
  780TIP3    H123899   5.169   2.791   6.393 -0.6568 -1.9357  1.5861
  780TIP3    H223900   5.297   2.712   6.372 -0.4049 -0.9943 -0.5930
  781TIP3   OH223901   1.502   6.015   2.015 -1.2113  0.0938 -0.2777
  781TIP3    H123902   1.542   6.084   1.962  0.4868 -0.7415 -0.1517
  781TIP3    H223903   1.541   5.934   1.983 -1.3803 -0.5877  1.1496
  782TIP3   OH223904   4.470   0.555   6.905 -0.1782 -0.5686  0.2721
  782TIP3    H123905   4.488   0.476   6.854  1.7310  0.4252 -0.6953
  782TIP3    H223906   4.389   0.589   6.868 -1.3933 -2.3751  1.1416
  783TIP3   OH223907   3.720   5.347   6.037 -0.1224  0.4210 -0.0677
  783TIP3    H123908   3.627   5.329   6.024  0.1183 -0.7826 -0.1847
  783TIP3    H223909   3.735   5.432   5.994 -0.9263  0.0880 -1.0316
  784TIP3   OH223910   3.977   3.427   6.602  0.4411 -0.1306 -0.1006
  784TIP3    H123911   4.009   3.517   6.602  1.8433 -0.5647 -2.2961
  784TIP3    H223912   4.003   3.393   6.687  0.2665  1.3689  0.5991
  785TIP3   OH223913   6.461   2.798   0.458  0.0420 -0.3451  0.2082
  785TIP3    H123914   6.541   2.751   0.484 -0.6301 -0.2386  2.7383
  785TIP3    H223915   6.493   2.871   0.405  1.5540 -0.7987  0.4240
  786TIP3   OH223916   5.469   7.064   7.147 -0.0994  0.0806  0.0100
  786TIP3    H123917   5.411   6.988   7.141 -1.0645  0.6991  1.1281
  786TIP3    H223918   5.419   7.128   7.198  0.2819  1.8504 -1.7224
  787TIP3   OH223919   6.816   4.580   6.251  0.2484 -0.3786 -0.4114
  787TIP3    H123920   6.900   4.568   6.295  0.8419 -0.5764 -1.5538
  787TIP3    H223921   6.759   4.619   6.317  0.8371 -1.4808  0.7853
  788TIP3   OH223922   5.787   2.987   0.830 -0.0316 -0.2872 -0.6345
  788TIP3    H123923   5.742   2.959   0.751  0.1887 -2.4148 -0.0841
  788TIP3    H223924   5.861   2.927   0.839 -1.3131 -1.6561  2.3223
  789TIP3   OH223925   2.653   3.450   0.106  0.0970 -0.0083 -0.6114
  789TIP3    H123926   2.627   3.542   0.096  2.3566  0.8372  0.6549
  789TIP3    H223927   2.627   3.427   0.195 -0.1345 -0.5182 -0.8031
  790TIP3   OH223928   3.623   5.419   7.198  0.3246  0.3445  0.2376
  790TIP3    H123929   3.537   5.379   7.214  0.9301 -0.8299  0.6699
  790TIP3    H223930   3.609   5.513   7.213 -1.3569  0.4716 -1.6993
  791TIP3   OH223931   5.707   3.360   7.844  0.1481  0.5635 -0.3546
  791TIP3    H123932   5.669   3.277   7.816  0.1296  0.1215  0.9153
  791TIP3    H223933   5.788   3.336   7.889  1.3037  1.4055 -1.8707
  792TIP3   OH223934   0.489   5.400   5.841  0.3720 -0.0506  0.3003
  792TIP3    H123935   0.522   5.315   5.869  1.6279  0.4331  0.3932
  792TIP3    H223936   0.394   5.394   5.850  0.4971 -1.1586  1.0853
  793TIP3   OH223937   6.099   6.346   7.568  0.0378  0.4683  0.3715
  793TIP3    H123938   6.069   6.437   7.563  0.3347  0.6058  1.0221
  793TIP3    H223939   6.163   6.338   7.497 -0.5452  0.5494 -0.1723
  794TIP3   OH223940   1.462   1.308   7.111 -0.5571 -0.3284 -0.4067
  794TIP3    H123941   1.468   1.383   7.051  2.4078 -1.0721 -1.2095
  794TIP3    H223942   1.404   1.246   7.067 -0.4781  0.1976 -1.2740
  795TIP3   OH223943   3.302   1.463   6.661  0.4493  0.1882 -0.5621
  795TIP3    H123944   3.260   1.542   6.628  0.8530  0.0059 -1.5212
  795TIP3    H223945   3.232   1.417   6.708  0.8257  2.4233  2.4970
  796TIP3   OH223946   0.437   2.621   1.291  0.3038 -0.1281  0.0461
  796TIP3    H123947   0.434   2.526   1.279 -0.1877 -0.5840  2.9826
  796TIP3    H223948   0.346   2.650   1.287  0.2628 -0.0959  0.9146
  797TIP3   OH223949   4.105   4.976   7.386  0.3543 -0.2155 -0.2855
  797TIP3    H123950   4.078   4.931   7.306 -0.1281  0.2059 -0.3648
  797TIP3    H223951   4.078   4.918   7.457 -0.6238  0.1247 -0.3699
  798TIP3   OH223952   1.738   3.755   7.620 -0.3981  0.4041  0.3076
  798TIP3    H123953   1.718   3.672   7.662 -0.0495 -0.1439 -0.5775
  798TIP3    H223954   1.827   3.775   7.648 -0.4105  0.3756  0.3670
  799TIP3   OH223955   2.746   3.387   1.274  0.1409  0.1482 -0.1160
  799TIP3    H123956   2.709   3.352   1.355 -0.2436 -0.5104 -0.5652
  799TIP3    H223957   2.725   3.480   1.275  1.4491  0.4764  1.2633
  800TIP3   OH223958   0.067   3.793   6.554  0.3140 -0.6207  0.6964
  800TIP3    H123959  -0.020   3.801   6.515  0.5201 -0.2556  0.3094
  800TIP3    H223960   0.111   3.875   6.532  1.5468 -1.6965 -1.0590
  801TIP3   OH223961   6.511   7.078   6.670 -0.6600  0.0197 -0.5045
  801TIP3    H123962   6.584   7.023   6.640 -1.3430 -1.5161  0.5110
  801TIP3    H223963   6.552   7.145   6.724  0.0175 -0.9373  0.2073
  802TIP3   OH223964   5.111   0.318   0.550  0.5313 -0.2531 -0.0516
  802TIP3    H123965   5.130   0.224   0.547  0.1445 -0.3721  0.8937
  802TIP3    H223966   5.138   0.345   0.638  0.6574  0.5266 -0.3252
  803TIP3   OH223967   4.893   3.098   0.383  1.1217 -0.4191 -0.1845
  803TIP3    H123968   4.801   3.084   0.405  0.6702  1.8755 -0.3511
  803TIP3    H223969   4.934   3.123   0.466  1.8756 -2.4327  0.1005
  804TIP3   OH223970   5.750   0.560   6.044 -0.0079 -0.0210  0.2768
  804TIP3    H123971   5.756   0.603   6.130  0.8526  0.2999  0.0686
  804TIP3    H223972   5.836   0.576   6.004 -0.7403  0.7324 -1.0588
  805TIP3   OH223973   5.213   6.689   6.497  0.6993 -0.3298 -0.4931
  805TIP3    H123974   5.292   6.648   6.532  1.5132  0.1795 -1.6734
  805TIP3    H223975   5.243   6.774   6.464 -0.0949 -0.6103 -2.0373
  806TIP3   OH223976   2.690   3.345   7.225  0.3202  0.4160  0.1819
  806TIP3    H123977   2.652   3.387   7.301 -1.2657 -0.6721  0.0379
  806TIP3    H223978   2.625   3.355   7.156 -0.2828 -2.3917  0.2090
  807TIP3   OH223979   6.972   2.841   6.303 -0.1640 -0.4296 -0.0418
  807TIP3    H123980   6.977   2.750   6.272 -0.2100 -1.0600  1.7146
  807TIP3    H223981   7.061   2.874   6.292  1.4172 -2.4741  4.2362
  808TIP3   OH223982   2.835   6.270   6.235 -0.3935 -0.0423  0.3505
  808TIP3    H123983   2.741   6.276   6.222 -0.4008 -0.2010  0.3231
  808TIP3    H223984   2.865   6.361   6.237 -0.6054  0.0210  0.8050
  809TIP3   OH223985   2.073   5.424   1.827 -0.5257 -0.2951 -0.3139
  809TIP3    H123986   2.114   5.345   1.861 -1.4998 -1.1597 -1.0634
  809TIP3    H223987   2.012   5.450   1.896  1.2845  1.0603  0.8517
  810TIP3   OH223988   2.223   6.991   6.240 -0.2942 -0.3921  0.0031
  810TIP3    H123989   2.289   6.928   6.210 -1.5645 -1.6586 -0.2596
  810TIP3    H223990   2.251   7.075   6.203  1.0692 -0.9221 -0.2347
  811TIP3   OH223991   1.507   4.292   1.192 -0.4849 -0.1775 -0.1622
  811TIP3    H123992   1.573   4.245   1.141 -0.5964  1.2595 -1.7054
  811TIP3    H223993   1.456   4.223   1.235  0.0339 -1.4197 -1.4801
  812TIP3   OH223994   6.254   0.759   0.029  0.1048  0.4578 -0.4967
  812TIP3    H123995   6.212   0.738   0.112 -1.1653  0.5036 -1.0908
  812TIP3    H223996   6.192   0.818  -0.015  1.4437  1.6545 -0.8428
  813TIP3   OH223997   6.089   2.372   0.433  0.0765 -0.3790  0.0572
  813TIP3    H123998   6.024   2.397   0.500  0.5083  0.3812  0.2100
  813TIP3    H223999   6.173   2.393   0.473  0.3454 -0.0571 -0.6610
  814TIP3   OH224000   6.344   6.713   1.661 -0.8161  0.1223 -0.3566
  814TIP3    H124001   6.254   6.727   1.689 -0.8891  1.3366 -1.0967
  814TIP3    H224002   6.386   6.670   1.736 -2.2281 -1.3576 -0.3784
  815TIP3   OH224003   6.459   5.347   1.772  0.1374  0.2963 -0.2677
  815TIP3    H124004   6.495   5.274   1.823  0.0053 -0.4912 -1.2833
  815TIP3    H224005   6.524   5.416   1.780 -0.6923  0.8930  2.4838
  816TIP3   OH224006   0.367   2.221   6.423  0.1583  0.4794  0.2169
  816TIP3    H124007   0.379   2.129   6.400  2.0942  0.0402  2.5463
  816TIP3    H224008   0.287   2.247   6.377 -2.5945 -3.3774  2.2396
  817TIP3   OH224009   6.107   4.959   6.597 -0.0695  0.1948  0.2683
  817TIP3    H124010   6.192   4.915   6.603 -1.2378 -2.0693  1.8101
  817TIP3    H224011   6.086   4.982   6.687 -2.2569 -1.8658  0.4109
  818TIP3   OH224012   1.798   1.627   1.392 -0.3427  0.0210 -0.2577
  818TIP3    H124013   1.775   1.544   1.351 -1.2463 -0.3053  0.8722
  818TIP3    H224014   1.864   1.665   1.333 -1.1234 -0.7130 -1.6559
  819TIP3   OH224015   3.565   3.471   7.259  0.2919  0.1387  0.6100
  819TIP3    H124016   3.592   3.559   7.286 -0.4948  0.5144  0.2019
  819TIP3    H224017   3.481   3.457   7.303  0.9791 -0.9082  1.6496
  820TIP3   OH224018   5.416   5.114   8.022 -0.1003  0.0716  0.4475
  820TIP3    H124019   5.332   5.114   7.977  0.6977 -1.6337 -1.2019
  820TIP3    H224020   5.415   5.033   8.074  0.4108  0.1569  0.5980
  821TIP3   OH224021   0.318   2.878   1.457 -0.4279  0.2471  0.0546
  821TIP3    H124022   0.287   2.843   1.374  0.0642  2.3664 -1.1040
  821TIP3    H224023   0.414   2.873   1.452 -0.4019 -1.6374  1.4770
  822TIP3   OH224024   5.224   3.674   6.938  0.1330  0.1416 -0.0760
  822TIP3    H124025   5.189   3.763   6.941 -0.9943 -0.3111  1.5483
  822TIP3    H224026   5.318   3.685   6.923 -0.0682  1.5612 -0.4036
  823TIP3   OH224027   7.123   2.222   6.536 -0.1803 -0.6070  0.6828
  823TIP3    H124028   7.048   2.172   6.504 -1.1392  0.0462  1.8334
  823TIP3    H224029   7.193   2.157   6.546  0.0738 -0.9283 -2.2454
  824TIP3   OH224030   4.324   5.150   1.748  0.6862 -0.4407  0.3022
  824TIP3    H124031   4.396   5.204   1.782  0.9796 -0.4111 -0.3622
  824TIP3    H224032   4.343   5.062   1.778 -0.2275 -0.0734  2.1124
  825TIP3   OH224033   5.216   0.342   6.704 -0.4372  0.1661 -0.0626
  825TIP3    H124034   5.148   0.409   6.698 -1.9237 -0.9450  2.7497
  825TIP3    H224035   5.175   0.263   6.670 -0.5145 -0.4512  1.3975
  826TIP3   OH224036   0.193   2.253   6.223  0.5103 -0.1381  0.5145
  826TIP3    H124037   0.251   2.223   6.153 -2.3173 -1.0707 -1.6060
  826TIP3    H224038   0.138   2.319   6.181 -0.7193 -0.1075  2.0929
  827TIP3   OH224039   4.349   6.925   6.404 -0.5568  0.2791  0.4212
  827TIP3    H124040   4.323   6.833   6.401 -0.2652  0.1652  1.1256
  827TIP3    H224041   4.329   6.959   6.316  0.5928 -0.8006 -0.2900
  828TIP3   OH224042   5.224   5.472   7.879  0.4393  0.5234 -0.3180
  828TIP3    H124043   5.194   5.515   7.959 -1.8358 -0.7846 -0.3777
  828TIP3    H224044   5.190   5.528   7.808  0.8436  0.6781 -0.3933
  829TIP3   OH224045   0.388   5.923   7.109  0.0721  0.3015 -0.5567
  829TIP3    H124046   0.439   5.979   7.167 -0.1379 -0.3848  0.3081
  829TIP3    H224047   0.321   5.885   7.165  0.2934 -0.9310 -1.0994
  830TIP3   OH224048   1.862   0.219   0.705  0.0042  0.4546 -1.0254
  830TIP3    H124049   1.818   0.221   0.790  0.3051  0.8316 -0.8705
  830TIP3    H224050   1.804   0.267   0.646 -0.1879  0.2244 -1.0249
  831TIP3   OH224051   4.605   3.509   0.545  0.0827 -0.1601 -0.1114
  831TIP3    H124052   4.546   3.484   0.616  1.2843  0.3648  1.1231
  831TIP3    H224053   4.661   3.576   0.583  2.9184 -2.1334 -0.5302
  832TIP3   OH224054   6.966   4.352   0.103 -0.0642  0.0056  0.5222
  832TIP3    H124055   6.913   4.306   0.169  0.9978 -1.2566  0.5392
  832TIP3    H224056   6.947   4.444   0.118 -0.8008 -0.3132  1.7780
  833TIP3   OH224057   5.856   6.787   1.962  0.0294  0.1201  0.5673
  833TIP3    H124058   5.807   6.867   1.978 -0.8513 -0.3782  0.4168
  833TIP3    H224059   5.803   6.717   1.999  0.9088 -0.3799  0.9255
  834TIP3   OH224060   1.883   1.394   7.293  0.2522 -0.1950 -0.4807
  834TIP3    H124061   1.890   1.316   7.237  1.3752  1.5696 -2.9813
  834TIP3    H224062   1.942   1.376   7.366  1.4453 -1.1961 -1.6384
  835TIP3   OH224063   3.698   3.698   6.351  0.0434 -0.0853  0.0550
  835TIP3    H124064   3.653   3.642   6.288 -0.2115  1.4999 -1.2161
  835TIP3    H224065   3.791   3.686   6.332  0.0029 -0.2909 -0.0169
  836TIP3   OH224066   6.170   3.593   0.447 -0.2436 -0.6757  0.3941
  836TIP3    H124067   6.218   3.663   0.490 -0.3320  1.5378 -2.7650
  836TIP3    H224068   6.097   3.637   0.403 -1.5933 -3.0832  0.0364
  837TIP3   OH224069   3.227   6.354   0.616  0.5900  0.0755 -0.5852
  837TIP3    H124070   3.183   6.308   0.687  1.9580  1.3609  1.2095
  837TIP3    H224071   3.302   6.299   0.594  1.1196  0.4888  0.1730
  838TIP3   OH224072   6.223   3.627   1.428 -0.2817  0.6095  1.0655
  838TIP3    H124073   6.311   3.635   1.465  0.1514  0.0492  0.1841
  838TIP3    H224074   6.225   3.543   1.382 -0.7718  1.3523 -0.3336
  839TIP3   OH224075   2.279   5.489   6.093  0.3339 -0.5545  0.3057
  839TIP3    H124076   2.215   5.421   6.075  0.5489 -0.4927 -0.7696
  839TIP3    H224077   2.267   5.553   6.022  0.4684  0.2745  1.0177
  840TIP3   OH224078   5.509   1.412   2.174 -0.0083  0.4060 -0.0109
  840TIP3    H124079   5.417   1.400   2.148  0.0526  1.0404 -0.5440
  840TIP3    H224080   5.505   1.476   2.245  0.1128  1.4280 -0.8990
  841TIP3   OH224081   1.623   0.473   6.911  0.2182  0.0762 -0.2381
  841TIP3    H124082   1.617   0.488   6.817  1.5020 -0.6950 -0.4693
  841TIP3    H224083   1.630   0.560   6.949 -1.5236  0.4689 -0.7195
  842TIP3   OH224084   2.665   2.404   1.517 -0.1185  1.0737 -0.4988
  842TIP3    H124085   2.749   2.449   1.524 -0.2004  1.1836 -0.2068
  842TIP3    H224086   2.602   2.474   1.502  0.0126  0.8799 -2.2213
  843TIP3   OH224087   2.503   5.712   0.118  0.5698  0.4033  0.6569
  843TIP3    H124088   2.508   5.625   0.079 -0.5520 -0.2817  1.9778
  843TIP3    H224089   2.409   5.730   0.126  0.7830  1.7642  0.3610
  844TIP3   OH224090   3.926   3.728   0.362  0.0596  0.1793 -0.2630
  844TIP3    H124091   3.884   3.643   0.351 -0.7992  0.4993  0.4444
  844TIP3    H224092   3.963   3.726   0.450 -0.7527  0.8547  0.1086
  845TIP3   OH224093   4.264   1.576   6.637 -0.0747 -0.1405  0.2200
  845TIP3    H124094   4.307   1.508   6.690  2.8756  2.4827  1.5854
  845TIP3    H224095   4.219   1.631   6.701 -0.1470  0.6686 -0.5106
  846TIP3   OH224096   0.246   4.983   6.082 -0.1049 -0.2834  0.5922
  846TIP3    H124097   0.264   5.064   6.131  2.8612  0.5168 -1.5124
  846TIP3    H224098   0.316   4.923   6.108 -0.9217 -1.3486  0.4031
  847TIP3   OH224099   0.869   6.797   0.625 -0.1235 -0.3074  0.2803
  847TIP3    H124100   0.901   6.886   0.631 -0.7686  0.0224 -0.8689
  847TIP3    H224101   0.942   6.743   0.657  1.6706  0.4012 -2.2524
  848TIP3   OH224102   1.937   1.695   1.724 -0.7053 -0.1932 -0.1040
  848TIP3    H124103   1.979   1.724   1.805  1.4914 -3.0467 -0.0481
  848TIP3    H224104   2.003   1.640   1.682 -2.3832 -0.1550 -3.0523
  849TIP3   OH224105   6.199   0.416   0.811  0.1592 -0.6099  0.2179
  849TIP3    H124106   6.112   0.446   0.836 -0.2760 -0.2912 -1.5804
  849TIP3    H224107   6.185   0.327   0.778  1.0125 -1.8047  2.7301
  850TIP3   OH224108   0.316   5.480   0.955 -0.7894  0.2992  0.0082
  850TIP3    H124109   0.356   5.539   1.019 -0.2547 -0.2045  0.1491
  850TIP3    H224110   0.361   5.499   0.873  0.0916 -0.5899  0.2651
  851TIP3   OH224111   5.662   3.405   1.208  0.3076  0.5011 -0.4143
  851TIP3    H124112   5.672   3.490   1.250 -1.4809  0.7480 -0.4100
  851TIP3    H224113   5.662   3.342   1.280 -1.9784  0.8543 -0.0407
  852TIP3   OH224114   0.985   0.130   1.430 -0.2904  0.1159  0.1012
  852TIP3    H124115   1.040   0.101   1.357 -2.2413  0.6448 -1.6722
  852TIP3    H224116   0.963   0.050   1.477  1.7368 -0.1297  0.7086
  853TIP3   OH224117   3.494   3.301   6.939 -0.1803  0.0048 -0.5332
  853TIP3    H124118   3.409   3.344   6.933 -0.8733 -1.2725 -0.1757
  853TIP3    H224119   3.481   3.216   6.897  0.2777 -1.0929  1.4194
  854TIP3   OH224120   4.554   1.450   6.982 -0.8562  0.5073 -0.4586
  854TIP3    H124121   4.607   1.528   6.999 -0.8613  0.8339 -1.8311
  854TIP3    H224122   4.557   1.440   6.887  0.6030 -2.1900 -0.2076
  855TIP3   OH224123   5.873   2.804   1.939  0.5152  0.0201  0.4186
  855TIP3    H124124   5.886   2.824   2.032  0.3746 -1.2191  0.7284
  855TIP3    H224125   5.955   2.763   1.911  1.3245  2.1370 -0.5637
  856TIP3   OH224126   6.862   4.162   1.729  0.5410 -0.4536 -0.2774
  856TIP3    H124127   6.922   4.109   1.781  1.2496 -0.5266 -1.1549
  856TIP3    H224128   6.890   4.252   1.745  0.7191 -0.4723 -0.4821
  857TIP3   OH224129   2.989   4.135   7.825  0.2189  0.4240 -0.3844
  857TIP3    H124130   2.930   4.177   7.762  0.9352  1.8790 -0.1448
  857TIP3    H224131   2.943   4.056   7.853 -0.4679  0.1651 -2.1129
  858TIP3   OH224132   1.301   7.018   7.421  0.3954  0.3269  0.3365
  858TIP3    H124133   1.350   7.098   7.440 -0.2615  0.5894  0.9647
  858TIP3    H224134   1.365   6.948   7.432  0.7266  0.6929  0.7827
  859TIP3   OH224135   1.982   2.134   0.261  0.1149  0.1769 -0.5221
  859TIP3    H124136   2.036   2.211   0.278 -1.4280  0.9311  1.4120
  859TIP3    H224137   1.918   2.162   0.196 -0.2634  0.4738 -0.0330
  860TIP3   OH224138   3.055   0.192   0.789  0.4717  0.0385 -0.0460
  860TIP3    H124139   2.965   0.161   0.798  0.1284  1.1118  0.3317
  860TIP3    H224140   3.064   0.261   0.855  1.0935  0.9917 -1.0826
  861TIP3   OH224141   3.003   5.349   6.808  0.2746  0.1372  0.2522
  861TIP3    H124142   2.959   5.393   6.881  0.0905 -0.1113  0.2945
  861TIP3    H224143   3.056   5.417   6.767  0.1342  0.3538  0.4263
  862TIP3   OH224144   0.613   4.007   7.035  0.3130  0.4889 -0.2193
  862TIP3    H124145   0.606   3.912   7.034 -0.8829  0.4190  3.1871
  862TIP3    H224146   0.525   4.037   7.059  0.4739  2.5666 -1.9032
  863TIP3   OH224147   1.413   6.388   0.241 -0.2680  1.2613 -0.4593
  863TIP3    H124148   1.366   6.358   0.318  0.3775 -0.3336 -0.6497
  863TIP3    H224149   1.362   6.355   0.167  0.9376 -0.2343 -0.6677
  864TIP3   OH224150   6.355   0.509   0.134 -0.1906 -0.5436 -0.5788
  864TIP3    H124151   6.291   0.441   0.114  0.6142 -1.1188 -1.2348
  864TIP3    H224152   6.339   0.577   0.068  0.3864 -1.0385 -1.2364
  865TIP3   OH224153   3.250   4.620   6.155 -0.6879 -0.3195 -0.5528
  865TIP3    H124154   3.325   4.596   6.101 -0.0614  1.3115 -0.4879
  865TIP3    H224155   3.181   4.643   6.093 -0.9113 -1.1356 -0.6169
  866TIP3   OH224156   4.788   3.799   1.903  0.4080 -0.2456 -0.1766
  866TIP3    H124157   4.820   3.711   1.925 -0.5535 -1.0643 -1.9035
  866TIP3    H224158   4.865   3.847   1.874  0.6553 -1.0764 -0.8971
  867TIP3   OH224159   4.517   1.394   5.755 -0.0980  0.3423  0.0247
  867TIP3    H124160   4.502   1.307   5.793  0.3333 -0.2546 -1.1293
  867TIP3    H224161   4.576   1.378   5.681  1.7521  1.8702  1.0574
  868TIP3   OH224162   6.447   1.308   1.088  0.0263  0.8437 -0.5028
  868TIP3    H124163   6.447   1.404   1.090 -0.2181  0.8490 -0.7285
  868TIP3    H224164   6.498   1.286   1.009 -1.9360  0.8232 -1.8176
  869TIP3   OH224165   0.032   2.099   1.578  0.0781  0.4562  0.0349
  869TIP3    H124166   0.001   2.124   1.665 -0.2900  2.4726 -0.6197
  869TIP3    H224167  -0.048   2.091   1.526  0.3292 -0.2754 -0.2583
  870TIP3   OH224168   0.740   0.072   6.568 -0.3999  0.2804  0.3486
  870TIP3    H124169   0.665   0.047   6.621 -0.3406  0.1184  0.3579
  870TIP3    H224170   0.711   0.061   6.477 -1.4855  3.2822  0.2009
  871TIP3   OH224171   0.410   0.202   6.144  0.1138 -0.7625  0.2448
  871TIP3    H124172   0.404   0.224   6.051  0.0593  1.0122  0.6313
  871TIP3    H224173   0.479   0.136   6.149  0.3360 -0.6485 -1.0130
  872TIP3   OH224174   2.177   2.147   6.665 -0.1874  0.4852 -0.5140
  872TIP3    H124175   2.213   2.120   6.580  0.3460  0.0910 -0.1678
  872TIP3    H224176   2.232   2.220   6.692  0.5902 -0.3163  0.1620
  873TIP3   OH224177   7.135   5.112   6.547  0.2072 -0.0800  0.3748
  873TIP3    H124178   7.165   5.106   6.637  2.4200  1.8963 -0.1237
  873TIP3    H224179   7.177   5.191   6.513 -1.7039  0.0377 -1.9810
  874TIP3   OH224180   6.265   6.637   0.791 -0.5553  0.3587  0.4573
  874TIP3    H124181   6.195   6.699   0.812  0.0050  1.1234  0.1394
  874TIP3    H224182   6.315   6.681   0.722 -0.1408 -0.4533  0.2297
  875TIP3   OH224183   0.667   1.801   0.078 -0.2887 -0.3246  0.3950
  875TIP3    H124184   0.728   1.802   0.152 -2.1978  2.9735  2.1681
  875TIP3    H224185   0.612   1.724   0.094  0.2117 -0.4573  1.6527
  876TIP3   OH224186   1.025   0.366   7.929 -0.1569  0.8092 -0.0683
  876TIP3    H124187   0.968   0.380   7.854 -0.5241  2.6204  0.4967
  876TIP3    H224188   1.037   0.454   7.967  0.3196  0.0007  1.7608
  877TIP3   OH224189   2.008   1.857   1.509 -0.0383 -0.3731  0.2425
  877TIP3    H124190   2.093   1.885   1.544  1.2322 -2.1042 -1.2521
  877TIP3    H224191   1.976   1.793   1.572  0.7454 -1.1783 -0.1534
  878TIP3   OH224192   5.154   5.178   0.900 -0.0373  0.0658  0.3360
  878TIP3    H124193   5.154   5.227   0.818  3.2797 -2.6295 -1.5790
  878TIP3    H224194   5.201   5.234   0.962 -1.1503  1.4839 -0.0666
  879TIP3   OH224195   1.696   1.683   6.736  0.2332 -0.0241 -0.3076
  879TIP3    H124196   1.686   1.736   6.815  0.2206  1.1594 -1.0909
  879TIP3    H224197   1.763   1.728   6.685  0.5420 -1.0084 -0.7991
  880TIP3   OH224198   1.906   4.122   1.318 -0.3965  0.2070  0.0784
  880TIP3    H124199   1.979   4.161   1.269  0.6060 -1.9188 -0.2420
  880TIP3    H224200   1.931   4.131   1.410  1.5668 -2.6207 -0.0561
  881TIP3   OH224201   2.716   7.133   6.477  0.1617  0.1644  0.1240
  881TIP3    H124202   2.660   7.130   6.399 -0.7088  3.5772  0.4445
  881TIP3    H224203   2.706   7.223   6.510  2.8129 -0.2683  2.4853
  882TIP3   OH224204   1.291   2.654   6.058  0.1090  0.3497 -0.0230
  882TIP3    H124205   1.220   2.592   6.048  2.1598 -2.2542  0.5588
  882TIP3    H224206   1.357   2.608   6.111  2.9114  1.9648 -1.8421
  883TIP3   OH224207   0.065   3.310   7.991 -0.0042 -0.3675 -0.2531
  883TIP3    H124208   0.138   3.369   7.971 -0.9735  1.1809  0.6321
  883TIP3    H224209   0.107   3.224   8.002  1.7275  0.5156  0.4401
  884TIP3   OH224210   0.459   4.126   6.160 -0.3394 -0.2472  0.2424
  884TIP3    H124211   0.387   4.158   6.214 -1.4552 -2.0512 -0.0964
  884TIP3    H224212   0.417   4.077   6.089  1.1636  0.2382 -1.0520
  885TIP3   OH224213   6.998   1.975   7.677  0.1212  0.1147 -0.2343
  885TIP3    H124214   7.006   1.966   7.772 -1.5683 -0.5893 -0.1318
  885TIP3    H224215   7.040   2.058   7.657  1.3165 -0.1562  0.9993
  886TIP3   OH224216   4.697   1.921   7.775 -0.0562 -0.0507  0.7873
  886TIP3    H124217   4.723   1.829   7.784 -1.9593 -0.8342 -0.9882
  886TIP3    H224218   4.742   1.952   7.697  0.6509  0.5846  1.4294
  887TIP3   OH224219   1.738   0.316   6.690  0.2825 -0.4425  0.2414
  887TIP3    H124220   1.666   0.255   6.702  0.2943 -0.5837 -0.3786
  887TIP3    H224221   1.735   0.340   6.597  0.2351  0.5441  0.4825
  888TIP3   OH224222   2.207   6.147   7.006 -0.3856 -0.1915  0.2434
  888TIP3    H124223   2.216   6.056   7.035 -1.3581 -0.3310  0.1416
  888TIP3    H224224   2.206   6.142   6.910 -0.6214 -0.0940  0.2402
  889TIP3   OH224225   5.219   1.140   6.261  0.2386 -0.4017  0.2996
  889TIP3    H124226   5.199   1.087   6.183  0.4519 -0.6183  0.3935
  889TIP3    H224227   5.168   1.220   6.248  0.1483 -0.5030  0.0124
  890TIP3   OH224228   3.470   4.651   7.489 -0.7007 -0.1032 -0.4443
  890TIP3    H124229   3.481   4.559   7.464  0.1854 -0.5250  1.2937
  890TIP3    H224230   3.384   4.675   7.455 -1.6366 -2.0581  0.3643
  891TIP3   OH224231   3.804   6.425   1.042 -0.0789  0.3502 -0.4809
  891TIP3    H124232   3.830   6.402   0.952 -1.1664 -0.0216 -0.7110
  891TIP3    H224233   3.711   6.446   1.035 -0.0646  0.7404  0.4903
  892TIP3   OH224234   3.593   3.650   1.156 -0.2228  0.8330  0.0907
  892TIP3    H124235   3.601   3.677   1.064 -2.0993  2.5994  0.3622
  892TIP3    H224236   3.660   3.701   1.201  1.0106 -0.3799 -0.3256
  893TIP3   OH224237   0.847   4.608   0.883  0.7147 -0.2003  0.3427
  893TIP3    H124238   0.875   4.594   0.793 -0.4936  0.8688 -0.2379
  893TIP3    H224239   0.850   4.703   0.895 -1.4106 -0.1006  0.6022
  894TIP3   OH224240   2.251   2.422   6.363  0.3008 -0.1865 -0.3431
  894TIP3    H124241   2.316   2.353   6.374 -1.4723 -2.1657 -1.6427
  894TIP3    H224242   2.252   2.442   6.269  0.0832  0.8836 -0.1406
  895TIP3   OH224243   5.331   3.185   0.024 -0.3157  0.3292 -0.2152
  895TIP3    H124244   5.425   3.181   0.044 -0.2546  4.0589  0.8740
  895TIP3    H224245   5.327   3.191  -0.072  0.6780  1.4788 -0.2047
  896TIP3   OH224246   6.240   5.689   6.654 -0.1465  0.6775 -0.2125
  896TIP3    H124247   6.327   5.726   6.666 -0.6991  2.1541 -0.5090
  896TIP3    H224248   6.210   5.666   6.742  0.2316  0.8919 -0.0285
  897TIP3   OH224249   4.055   5.746   7.616  0.6049 -0.0692  0.2288
  897TIP3    H124250   4.103   5.674   7.657  0.2820 -0.2600  0.2670
  897TIP3    H224251   4.105   5.765   7.536  0.3211 -0.7812 -0.1289
  898TIP3   OH224252   7.058   3.950   6.298 -0.0909 -0.1035  0.0039
  898TIP3    H124253   7.032   4.039   6.273 -0.6413  0.1350  1.3453
  898TIP3    H224254   7.146   3.940   6.264 -0.2009  0.7819 -0.5753
  899TIP3   OH224255   6.346   3.617   7.298 -1.3145  0.3159 -0.1786
  899TIP3    H124256   6.433   3.622   7.258 -0.1133 -0.4182  2.1551
  899TIP3    H224257   6.285   3.628   7.225  0.6635 -2.2658 -2.4191
  900TIP3   OH224258   6.348   5.356   6.299  0.0615  0.2096 -0.2667
  900TIP3    H124259   6.393   5.272   6.300 -0.1041  0.1209 -0.0608
  900TIP3    H224260   6.289   5.351   6.224 -2.5007 -1.2425  1.6666
  901TIP3   OH224261   4.028   4.905   7.085 -0.0524 -0.1456 -0.5389
  901TIP3    H124262   3.935   4.906   7.104  0.0851  0.8071  0.1736
  901TIP3    H224263   4.050   4.812   7.076 -0.7890 -0.4785  0.7684
  902TIP3   OH224264   6.768   1.061   7.092 -0.6007  0.1425 -0.2520
  902TIP3    H124265   6.747   0.971   7.065 -0.2235 -0.1750  0.4816
  902TIP3    H224266   6.848   1.051   7.144 -1.7107  0.6371  1.6347
  903TIP3   OH224267   3.182   2.236   6.418 -0.3234  0.3369  0.3891
  903TIP3    H124268   3.204   2.145   6.435  2.7093  1.0501  0.8861
  903TIP3    H224269   3.162   2.239   6.324 -0.1514 -0.7814  0.3049
  904TIP3   OH224270   0.077   2.583   0.287  0.2597 -0.0153  0.0274
  904TIP3    H124271   0.055   2.630   0.206  0.0229 -0.6651 -0.2991
  904TIP3    H224272   0.171   2.599   0.299  0.2211  0.3826 -0.1782
  905TIP3   OH224273   1.202   1.717   1.171  0.2405  0.0660 -0.1570
  905TIP3    H124274   1.161   1.797   1.140  0.0879 -0.6535 -1.9201
  905TIP3    H224275   1.286   1.713   1.126  0.6069 -0.3431  0.5489
  906TIP3   OH224276   2.346   6.704   0.009  0.6921 -0.0430 -1.1635
  906TIP3    H124277   2.305   6.630  -0.036 -0.4438 -0.2293  0.0942
  906TIP3    H224278   2.440   6.685   0.007  0.3751 -1.9080 -0.2353
  907TIP3   OH224279   0.847   4.877   0.992  0.4863 -0.2668 -0.0289
  907TIP3    H124280   0.903   4.953   0.974  0.0290 -0.0681 -0.6636
  907TIP3    H224281   0.818   4.890   1.082 -0.5748  0.9826 -0.5109
  908TIP3   OH224282   7.053   2.110   1.817  0.0450 -0.3413 -0.4045
  908TIP3    H124283   6.999   2.142   1.745 -0.4317 -1.4006 -0.5343
  908TIP3    H224284   6.990   2.073   1.880  0.3740  1.2793  0.9611
  909TIP3   OH224285   6.325   4.973   0.526 -0.3433 -0.4640 -0.8872
  909TIP3    H124286   6.319   4.987   0.621  0.8940  0.5517 -0.9292
  909TIP3    H224287   6.273   5.043   0.488 -0.1984 -0.4003 -0.9695
  910TIP3   OH224288   1.612   0.311   0.593 -0.0698 -0.4898  0.5376
  910TIP3    H124289   1.581   0.259   0.519 -1.9511  0.0252  0.9015
  910TIP3    H224290   1.641   0.393   0.555  1.5355 -1.2151  0.1192
  911TIP3   OH224291   4.199   6.507   5.255 -0.0416  0.4774 -0.0549
  911TIP3    H124292   4.229   6.524   5.344 -2.7530  0.3618  0.9629
  911TIP3    H224293   4.147   6.583   5.231 -2.5737 -1.1004  0.0427
  912TIP3   OH224294   4.544   6.594   5.613 -0.8755  0.5389 -0.2061
  912TIP3    H124295   4.601   6.670   5.598 -0.2319  0.5799  2.0435
  912TIP3    H224296   4.498   6.615   5.694 -0.4440 -1.6107  0.6475
  913TIP3   OH224297   4.365   2.118   0.398 -0.2156  0.1811 -0.2973
  913TIP3    H124298   4.403   2.161   0.321 -2.1081  2.4973 -0.0447
  913TIP3    H224299   4.417   2.149   0.472 -1.3578  1.8751 -0.1571
  914TIP3   OH224300   1.661   0.708   1.363  0.1893 -0.2560 -0.5691
  914TIP3    H124301   1.581   0.656   1.352 -0.1071 -0.2723  1.3066
  914TIP3    H224302   1.634   0.797   1.341 -0.1054 -0.3911 -0.7721
  915TIP3   OH224303   3.888   1.784   0.913  0.3872  0.3040  0.2836
  915TIP3    H124304   3.969   1.733   0.908  0.4451  0.4906 -0.7842
  915TIP3    H224305   3.877   1.822   0.826  0.3377  2.1054  1.0226
  916TIP3   OH224306   5.129   0.942   5.298 -0.0457  0.2629  0.0341
  916TIP3    H124307   5.110   0.935   5.391  0.6417 -1.0456  0.1083
  916TIP3    H224308   5.168   1.029   5.288  0.9705 -0.0251  1.1942
  917TIP3   OH224309   6.958   3.407   5.941 -0.0536  0.4515 -0.1026
  917TIP3    H124310   7.042   3.419   5.898 -0.2307  0.2261 -0.5093
  917TIP3    H224311   6.909   3.487   5.922  0.2292  0.7847  0.5177
  918TIP3   OH224312   1.546   5.923   6.080  0.4528 -0.2770  0.0508
  918TIP3    H124313   1.533   5.943   5.987 -1.1303 -0.0292  0.2866
  918TIP3    H224314   1.474   5.863   6.101  1.3674 -1.1092  0.8926
  919TIP3   OH224315   6.477   1.368   7.315  0.6066 -0.3256 -0.0595
  919TIP3    H124316   6.465   1.351   7.222  1.5680 -0.0050 -0.2566
  919TIP3    H224317   6.533   1.446   7.318 -0.7898  0.6908  0.7930
  920TIP3   OH224318   5.807   6.279   5.955 -0.1244 -0.0637  0.2235
  920TIP3    H124319   5.890   6.268   5.909 -1.3372 -0.1279 -2.1051
  920TIP3    H224320   5.765   6.193   5.949 -0.4871  0.0327  1.1573
  921TIP3   OH224321   4.765   3.112   7.954 -0.2109  0.0688 -0.8644
  921TIP3    H124322   4.781   3.043   7.890 -2.0910 -0.7688 -0.4978
  921TIP3    H224323   4.742   3.188   7.902 -0.2435 -0.1803 -1.2175
  922TIP3   OH224324   2.729   0.016   2.041  0.1035  0.6460 -0.3420
  922TIP3    H124325   2.704   0.070   2.117 -2.9843 -0.1435 -0.6367
  922TIP3    H224326   2.782  -0.055   2.078  0.2851  1.3408  0.7669
  923TIP3   OH224327   4.805   1.973   1.504  0.1013 -0.3131  0.1705
  923TIP3    H124328   4.826   2.049   1.450 -0.4753 -0.9868 -1.0283
  923TIP3    H224329   4.883   1.918   1.500  0.2053 -0.1763  0.3410
  924TIP3   OH224330   3.764   0.576   7.733 -0.3209 -0.0175  0.0103
  924TIP3    H124331   3.761   0.482   7.713 -0.3281 -0.1334  0.5323
  924TIP3    H224332   3.825   0.583   7.806 -1.0843  0.2578  0.6335
  925TIP3   OH224333   0.226   2.038   6.048 -0.0241 -0.7022  0.0468
  925TIP3    H124334   0.143   2.038   6.095 -0.0613  0.7933  0.0123
  925TIP3    H224335   0.240   1.946   6.024 -0.9893 -1.1780  1.2178
  926TIP3   OH224336   4.195   3.861   0.651  0.1541 -0.1227  0.7543
  926TIP3    H124337   4.118   3.868   0.595  0.6688 -1.5494 -0.1997
  926TIP3    H224338   4.269   3.882   0.594  0.7175 -1.9111  0.7411
  927TIP3   OH224339   5.163   1.889   7.569 -0.4738  0.1986 -0.0684
  927TIP3    H124340   5.189   1.803   7.602 -0.7197 -0.0266 -0.4443
  927TIP3    H224341   5.187   1.887   7.476 -0.2240  0.6411 -0.0133
  928TIP3   OH224342   0.863   2.448   7.580 -0.3193  0.5464 -0.1067
  928TIP3    H124343   0.876   2.512   7.510 -2.0932 -0.1454 -1.1516
  928TIP3    H224344   0.949   2.408   7.592 -0.1316  0.0098 -2.6301
  929TIP3   OH224345   1.239   6.284   0.010  0.0101 -0.1051 -0.1486
  929TIP3    H124346   1.279   6.197   0.009 -0.6250 -0.3968 -1.4393
  929TIP3    H224347   1.306   6.342  -0.025  0.6112  0.0275  1.1666
  930TIP3   OH224348   2.039   7.146   0.291 -0.3809  0.9985  0.1893
  930TIP3    H124349   1.989   7.127   0.371  1.6984  0.3854  1.4067
  930TIP3    H224350   2.035   7.065   0.241  1.2485  0.1173  1.3758
  931TIP3   OH224351   2.551   1.092   0.226  0.0064 -0.2383  0.4401
  931TIP3    H124352   2.482   1.064   0.166 -0.6914  0.9338  0.6769
  931TIP3    H224353   2.510   1.159   0.281  1.7112  1.6612 -0.4581
  932TIP3   OH224354   5.432   2.497   7.744  0.0657  0.0730 -0.5716
  932TIP3    H124355   5.509   2.477   7.796 -0.7242 -1.6194  0.0049
  932TIP3    H224356   5.377   2.551   7.801  0.5389  0.8148 -0.7913
  933TIP3   OH224357   1.298   4.582   0.062 -0.5247 -0.2036  0.1202
  933TIP3    H124358   1.390   4.598   0.039 -0.9578  2.4507 -0.1339
  933TIP3    H224359   1.286   4.627   0.145 -1.5158 -0.8288  0.3321
  934TIP3   OH224360   2.794   1.320   6.736  0.2330  0.6851 -0.7390
  934TIP3    H124361   2.716   1.366   6.768  0.2554 -0.0916  0.5309
  934TIP3    H224362   2.765   1.230   6.724  0.9568  0.3578 -0.1165
  935TIP3   OH224363   3.956   1.167   1.791  0.5167 -0.1799  0.2488
  935TIP3    H124364   4.035   1.158   1.845  0.1857 -0.8906  0.6380
  935TIP3    H224365   3.889   1.196   1.853  0.0475 -1.3525  0.3035
  936TIP3   OH224366   4.723   1.107   6.924  0.0368 -0.5240  0.9657
  936TIP3    H124367   4.750   1.140   7.009  0.6309 -1.3336  1.1052
  936TIP3    H224368   4.639   1.149   6.907  0.7414  1.0067  1.1418
  937TIP3   OH224369   4.665   2.437   6.361 -0.0840  0.6751  0.3639
  937TIP3    H124370   4.639   2.524   6.391  0.1809  0.9121 -0.1062
  937TIP3    H224371   4.633   2.431   6.271  1.0647  0.7903 -0.0650
  938TIP3   OH224372   2.486   0.729   8.028 -0.3801  0.2027  0.1676
  938TIP3    H124373   2.415   0.766   7.975  0.0324  1.6880  0.5806
  938TIP3    H224374   2.444   0.663   8.083 -1.0210 -0.5198 -1.1718
  939TIP3   OH224375   4.108   2.197   0.251  0.2760  0.0696 -0.8079
  939TIP3    H124376   4.159   2.145   0.313 -1.0032 -1.1978 -0.7800
  939TIP3    H224377   4.046   2.135   0.212 -0.6203  1.3671 -1.5247
  940TIP3   OH224378   0.172   4.120   1.491 -0.4242  0.2354 -0.0889
  940TIP3    H124379   0.251   4.097   1.441 -0.5434  1.1286 -0.7302
  940TIP3    H224380   0.205   4.157   1.573 -0.1028  1.8524 -0.9049
  941TIP3   OH224381   7.113   2.099   0.629  0.0266 -0.6139 -0.8905
  941TIP3    H124382   7.060   2.076   0.706  0.5474  0.5849 -0.1457
  941TIP3    H224383   7.051   2.136   0.567  0.0787  1.9418  0.4526
  942TIP3   OH224384   0.906   6.459   1.374 -0.3501  0.2652 -0.6410
  942TIP3    H124385   0.946   6.469   1.461 -2.1072  0.9524  0.1353
  942TIP3    H224386   0.977   6.429   1.318  0.9718  0.3942  0.9068
  943TIP3   OH224387   4.278   6.684   0.365 -0.1862  0.4576  0.0016
  943TIP3    H124388   4.340   6.742   0.408 -0.8313  1.5319 -0.4890
  943TIP3    H224389   4.330   6.637   0.300  0.1293  1.3196 -0.3807
  944TIP3   OH224390   0.336   3.229   6.734  0.4396 -0.5293  0.3240
  944TIP3    H124391   0.303   3.226   6.645 -1.3074  0.7410  0.8702
  944TIP3    H224392   0.370   3.141   6.751 -0.9902 -1.3567 -0.9268
  945TIP3   OH224393   4.119   4.167   7.769  0.3632 -0.0339  0.2094
  945TIP3    H124394   4.061   4.119   7.710 -0.2566 -1.6294  1.9893
  945TIP3    H224395   4.158   4.099   7.825  0.8274  1.3799  1.7004
  946TIP3   OH224396   1.955   0.192   6.843  0.1653 -0.6924 -0.0568
  946TIP3    H124397   1.883   0.222   6.787  1.5807  2.0607 -0.5945
  946TIP3    H224398   1.914   0.178   6.929 -0.9192  1.9294 -0.0372
  947TIP3   OH224399   4.577   6.631   7.151 -0.6429 -0.1346  0.3231
  947TIP3    H124400   4.544   6.610   7.063  1.4706 -1.6357 -0.2085
  947TIP3    H224401   4.667   6.597   7.151 -0.4775  0.1175  2.9804
  948TIP3   OH224402   2.438   4.304   7.453 -0.1072  0.3829 -0.2509
  948TIP3    H124403   2.416   4.212   7.439  0.3246  0.3637 -0.8534
  948TIP3    H224404   2.419   4.346   7.368  0.8135  0.6251 -0.3457
  949TIP3   OH224405   2.720   4.462   5.758 -0.7099  0.7762  0.3310
  949TIP3    H124406   2.662   4.467   5.682  1.3209 -1.7973 -1.5693
  949TIP3    H224407   2.710   4.372   5.789  2.8142 -0.0924 -0.6751
  950TIP3   OH224408   6.734   1.147   0.131 -0.5494  0.2490  0.7321
  950TIP3    H124409   6.647   1.170   0.163 -1.0896 -0.0849 -0.4438
  950TIP3    H224410   6.732   1.051   0.127  0.7463  0.0589  3.0417
  951TIP3   OH224411   3.679   5.768   1.700  0.6532  0.6165  0.4201
  951TIP3    H124412   3.722   5.712   1.764  0.5296  1.8346  1.6198
  951TIP3    H224413   3.585   5.754   1.715  0.5784 -1.0089 -1.2655
  952TIP3   OH224414   0.821   1.928   0.346 -0.5127  0.1406 -0.0300
  952TIP3    H124415   0.769   1.992   0.299 -2.4992 -1.3345  0.0277
  952TIP3    H224416   0.804   1.946   0.439 -1.1017 -0.4531 -0.0138
  953TIP3   OH224417   6.987   1.217   0.246  0.2867 -0.3779  0.1141
  953TIP3    H124418   6.895   1.214   0.219 -0.2730  0.8467  1.7930
  953TIP3    H224419   6.991   1.161   0.324  0.6492  0.7259  0.9007
  954TIP3   OH224420   6.936   6.365   6.972  0.1992  0.5942 -0.5496
  954TIP3    H124421   6.967   6.279   6.945  4.3490  1.8534 -0.5104
  954TIP3    H224422   6.856   6.379   6.922  0.6137 -2.3290 -2.2390
  955TIP3   OH224423   5.308   2.924   6.852 -0.5043  0.0644  0.0855
  955TIP3    H124424   5.380   2.926   6.789 -0.5923 -0.6945 -0.0416
  955TIP3    H224425   5.308   3.012   6.890  1.4384 -0.3100  1.1442
  956TIP3   OH224426   0.948   6.881   7.156 -0.0198  0.1994 -0.1472
  956TIP3    H124427   0.855   6.863   7.150  0.1579 -0.9651  0.1704
  956TIP3    H224428   0.985   6.843   7.076  0.4356 -1.4237  0.7810
  957TIP3   OH224429   5.389   6.103   6.598  0.8396 -0.7371  0.1410
  957TIP3    H124430   5.424   6.058   6.521 -1.1620 -0.7565 -0.8182
  957TIP3    H224431   5.355   6.186   6.564  1.0837 -0.1719  1.2349
  958TIP3   OH224432   5.406   0.959   0.189 -0.1434 -0.0236 -0.6390
  958TIP3    H124433   5.409   0.972   0.284  1.5696  0.3602 -0.7247
  958TIP3    H224434   5.315   0.978   0.166 -0.9251 -1.3388  1.0690
  959TIP3   OH224435   3.401   0.262   0.217 -0.4206 -0.2421 -0.2085
  959TIP3    H124436   3.407   0.216   0.301  0.2330 -0.8876 -0.5986
  959TIP3    H224437   3.326   0.320   0.227  0.7673  1.1158  1.5204
  960TIP3   OH224438   3.527   5.624   7.525  0.6835 -0.1723 -0.1513
  960TIP3    H124439   3.604   5.672   7.554  0.1545  0.5522  0.0886
  960TIP3    H224440   3.547   5.599   7.435  0.5004  1.5420 -0.6956
  961TIP3   OH224441   3.835   0.869   0.542  0.0284 -0.3417  0.6217
  961TIP3    H124442   3.789   0.791   0.573  0.2250 -0.6950  0.0356
  961TIP3    H224443   3.881   0.840   0.463 -2.4013  1.1037 -1.4861
  962TIP3   OH224444   0.202   0.724   7.610 -0.2862  0.5585  0.0098
  962TIP3    H124445   0.199   0.675   7.528  1.6490 -1.6835  1.1653
  962TIP3    H224446   0.112   0.723   7.642 -0.7358 -0.0499 -1.2135
  963TIP3   OH224447   1.073   0.632   7.988 -0.0753 -0.1769 -0.1763
  963TIP3    H124448   1.060   0.635   8.083  0.2887 -0.6765 -0.1042
  963TIP3    H224449   1.158   0.674   7.975  0.0140 -0.3762 -0.2459
  964TIP3   OH224450   0.780   6.189   0.071 -0.8621  0.9961 -0.3147
  964TIP3    H124451   0.831   6.250   0.124  0.3502  0.4439 -0.8014
  964TIP3    H224452   0.842   6.155   0.007 -1.6384 -0.3208 -0.4184
  965TIP3   OH224453   1.721   4.627   6.796 -0.3487 -0.2566 -0.4262
  965TIP3    H124454   1.713   4.687   6.722 -1.1431  1.0535  0.6794
  965TIP3    H224455   1.635   4.586   6.804 -0.5478  0.2845  0.3142
  966TIP3   OH224456   4.062   0.377   0.984 -0.4905  0.1193  0.4133
  966TIP3    H124457   4.082   0.309   1.048  2.4296 -0.3129 -0.7864
  966TIP3    H224458   4.044   0.330   0.903  0.5970  0.7154 -0.2011
  967TIP3   OH224459   3.172   1.741   0.165  0.3016  0.0356  0.6205
  967TIP3    H124460   3.088   1.779   0.192 -0.0061  1.7633 -2.3649
  967TIP3    H224461   3.233   1.767   0.235 -1.2470  0.2829  1.9450
  968TIP3   OH224462   4.729   5.191   0.335  0.5209  0.4766 -0.1541
  968TIP3    H124463   4.723   5.104   0.297  0.1057 -0.3187  1.6301
  968TIP3    H224464   4.675   5.246   0.278  2.5921  0.1200 -2.6290
  969TIP3   OH224465   4.386   6.123   7.246  0.1724 -0.5287  0.2532
  969TIP3    H124466   4.449   6.051   7.253 -0.4956 -1.0513  1.0330
  969TIP3    H224467   4.367   6.148   7.337  0.4314  0.6767  0.0013
  970TIP3   OH224468   6.362   2.183   1.194 -0.1450 -0.3418 -0.3595
  970TIP3    H124469   6.316   2.250   1.243  2.0609  0.7037  0.3892
  970TIP3    H224470   6.325   2.188   1.106 -2.8032 -0.9456  0.6317
  971TIP3   OH224471   4.394   5.861   6.282 -0.1304  0.2897  0.5226
  971TIP3    H124472   4.459   5.805   6.239 -1.6256 -3.2133  2.4111
  971TIP3    H224473   4.312   5.842   6.237 -0.4894  1.9484  0.4414
  972TIP3   OH224474   3.997   2.848   7.033  1.0629 -0.4119 -0.2065
  972TIP3    H124475   3.920   2.811   6.989 -0.7411  0.7408  1.7391
  972TIP3    H224476   4.068   2.787   7.014 -0.8902 -2.8486 -0.1865
  973TIP3   OH224477   5.764   1.721   1.076  0.3142  0.0246 -0.1087
  973TIP3    H124478   5.827   1.658   1.111 -0.5862 -1.2038 -0.6279
  973TIP3    H224479   5.683   1.671   1.066 -0.2607  1.1123 -1.1245
  974TIP3   OH224480   2.163   5.872   0.911 -0.1727 -0.3199  0.3651
  974TIP3    H124481   2.099   5.887   0.842  0.5134 -0.2601 -0.2756
  974TIP3    H224482   2.146   5.940   0.976  1.6891  2.1960 -1.5926
  975TIP3   OH224483   4.714   1.684   6.934  0.9226 -0.0065 -0.2239
  975TIP3    H124484   4.739   1.776   6.933 -1.8997  0.8684 -2.5753
  975TIP3    H224485   4.736   1.652   6.846 -0.5577 -0.8066 -0.3368
  976TIP3   OH224486   4.743   5.571   7.503  0.4578  0.4677  0.7898
  976TIP3    H124487   4.790   5.515   7.441  1.2542 -0.0676  1.8590
  976TIP3    H224488   4.797   5.572   7.582 -1.9227 -1.2961  2.6071
  977TIP3   OH224489   0.941   2.106   7.794  0.0106  0.0214 -0.2744
  977TIP3    H124490   0.925   2.159   7.872 -1.5581  0.1644 -0.6556
  977TIP3    H224491   0.905   2.020   7.816  0.1174 -0.1113 -0.6166
  978TIP3   OH224492   4.008   1.291   7.574  0.8212  0.6872 -0.1671
  978TIP3    H124493   3.975   1.369   7.618  0.5457  0.4842 -0.0065
  978TIP3    H224494   3.930   1.251   7.535  0.7866 -0.0494  0.6115
  979TIP3   OH224495   3.003   0.282   7.161  0.0758 -0.0465  0.0204
  979TIP3    H124496   3.067   0.230   7.209  0.8934  1.4532  0.6086
  979TIP3    H224497   3.045   0.302   7.078  0.2659  0.6893  0.2873
  980TIP3   OH224498   4.574   1.675   6.240  0.2043 -0.0390  0.2346
  980TIP3    H124499   4.481   1.660   6.254  0.0812 -0.0703 -0.5453
  980TIP3    H224500   4.581   1.694   6.146  1.0542 -0.6102  0.1712
  981TIP3   OH224501   2.184   3.815   0.110 -0.1418 -0.2231  0.5825
  981TIP3    H124502   2.200   3.754   0.038 -1.6784 -0.9443  0.8024
  981TIP3    H224503   2.222   3.773   0.187  1.3470  0.4678  0.2611
  982TIP3   OH224504   4.660   1.373   6.061 -0.1303  0.1886  0.3519
  982TIP3    H124505   4.713   1.318   6.003 -1.5770  0.2736 -1.1267
  982TIP3    H224506   4.678   1.463   6.033 -1.7508  0.1798 -0.8692
  983TIP3   OH224507   0.681   6.610   0.667 -0.4369 -0.1975  0.1920
  983TIP3    H124508   0.726   6.541   0.617  1.1798  0.4118  0.7160
  983TIP3    H224509   0.739   6.686   0.660 -0.2256 -0.0233  2.7664
  984TIP3   OH224510   6.002   1.800   0.836 -0.3376  0.0451 -0.0084
  984TIP3    H124511   5.962   1.714   0.830  1.3424 -0.7500 -0.5789
  984TIP3    H224512   5.929   1.861   0.848 -1.4755 -1.5636  1.7308
  985TIP3   OH224513   4.071   1.593   1.490  0.2901 -0.1065 -0.3382
  985TIP3    H124514   4.091   1.521   1.550 -2.4540 -0.3151  0.4324
  985TIP3    H224515   4.090   1.673   1.540  0.7042 -0.2735 -0.2227
  986TIP3   OH224516   0.487   2.193   0.479  0.0785 -0.7814  0.7830
  986TIP3    H124517   0.437   2.275   0.479 -1.7822 -1.8310  2.0969
  986TIP3    H224518   0.550   2.204   0.408 -1.1098  1.1967 -0.0790
  987TIP3   OH224519   5.326   6.911   6.385  0.1303  0.0736  0.1119
  987TIP3    H124520   5.310   6.964   6.463 -1.2572  0.4641 -0.3957
  987TIP3    H224521   5.381   6.965   6.329 -0.7959  0.7663 -0.1538
  988TIP3   OH224522   6.328   3.495   7.872  0.1384  0.1018 -0.5939
  988TIP3    H124523   6.386   3.569   7.890  1.2078 -0.3121 -2.0699
  988TIP3    H224524   6.250   3.534   7.832  0.2073  0.5207 -0.3237
  989TIP3   OH224525   3.946   5.483   7.943  0.5184 -0.5580 -0.2811
  989TIP3    H124526   4.013   5.460   8.008  0.8653 -0.4982 -0.6168
  989TIP3    H224527   3.863   5.465   7.988  0.7633 -1.3439 -0.1237
  990TIP3   OH224528   0.346   4.738   7.369 -0.4751  0.7355 -0.4470
  990TIP3    H124529   0.355   4.714   7.461  1.3185 -0.0800 -0.7802
  990TIP3    H224530   0.378   4.828   7.364  2.0589 -0.0971 -0.6289
  991TIP3   OH224531   1.853   2.311   7.244  0.3845 -0.8394 -0.3257
  991TIP3    H124532   1.948   2.311   7.249  0.4669 -0.1608 -1.5846
  991TIP3    H224533   1.834   2.313   7.151 -0.8706 -0.5347 -0.0803
  992TIP3   OH224534   5.542   1.819   7.945  0.0040  0.0047  0.3190
  992TIP3    H124535   5.491   1.880   7.892  0.4262  1.0349  1.0703
  992TIP3    H224536   5.610   1.873   7.985 -1.4885 -0.2611  3.5558
  993TIP3   OH224537   2.880   3.430   1.033  0.5562 -0.0038  0.5983
  993TIP3    H124538   2.857   3.463   1.120  1.2134  0.5566  0.5587
  993TIP3    H224539   2.975   3.439   1.028  0.4954  0.2112 -0.2811
  994TIP3   OH224540   6.104   3.825   1.292  0.7636  0.0367 -0.2573
  994TIP3    H124541   6.120   3.746   1.343 -2.1350 -0.4967  0.0239
  994TIP3    H224542   6.056   3.882   1.351 -0.9108  0.2310 -1.7190
  995TIP3   OH224543   0.327   1.332   0.948  0.0453  0.5600 -0.4579
  995TIP3    H124544   0.254   1.340   0.887  0.3611  2.5940 -0.6325
  995TIP3    H224545   0.393   1.281   0.900 -0.0940  1.2964 -1.4566
  996TIP3   OH224546   4.587   1.556   1.697  0.2650 -0.0107 -0.1210
  996TIP3    H124547   4.547   1.584   1.780  0.1874 -3.1908  1.0780
  996TIP3    H224548   4.680   1.575   1.708  0.3575 -0.9798  1.0459
  997TIP3   OH224549   2.008   2.730   6.488 -0.2566  0.3361 -0.2589
  997TIP3    H124550   1.994   2.771   6.402 -1.2161 -0.6667 -0.6214
  997TIP3    H224551   1.986   2.798   6.551 -1.9913  0.3647 -0.8377
  998TIP3   OH224552   4.504   2.139   6.412  0.5818 -0.0016  0.4735
  998TIP3    H124553   4.433   2.085   6.446 -1.2362  0.5530 -2.0754
  998TIP3    H224554   4.574   2.077   6.392  0.0812 -0.8412  1.2282
  999TIP3   OH224555   4.535   7.157   7.267  0.2655 -0.6175 -0.9413
  999TIP3    H124556   4.488   7.217   7.208 -0.6217  0.2797  0.6093
  999TIP3    H224557   4.524   7.071   7.226 -1.2909 -0.1805 -1.5279
 1000TIP3   OH224558   6.100   0.002   0.236 -0.2818 -0.5085  0.0367
 1000TIP3    H124559   6.139   0.048   0.162 -0.5050 -0.8570 -0.2988
 1000TIP3    H224560   6.061  -0.077   0.199 -0.5580 -0.5979  0.4951
 1001TIP3   OH224561   1.847   2.141   2.290  0.0474 -0.5858  0.0657
 1001TIP3    H124562   1.753   2.143   2.269  0.7483  0.3305 -3.9028
 1001TIP3    H224563   1.872   2.233   2.296  0.8693 -0.7794 -0.2194
 1002TIP3   OH224564   5.703   3.732   5.851  0.2470  0.4303 -0.1595
 1002TIP3    H124565   5.754   3.704   5.775 -0.9933  2.1616 -1.7571
 1002TIP3    H224566   5.715   3.827   5.854 -1.9842  0.7724  0.0227
 1003TIP3   OH224567   6.645   1.600   7.292 -0.4693 -0.2731  0.6603
 1003TIP3    H124568   6.734   1.579   7.267 -0.7218 -0.8112  0.2099
 1003TIP3    H224569   6.619   1.670   7.231 -0.5579 -0.5245  0.4093
 1004TIP3   OH224570   0.272   4.524   0.025  0.2817 -0.1791 -0.3577
 1004TIP3    H124571   0.366   4.541   0.036  0.7179 -2.3899 -0.2811
 1004TIP3    H224572   0.231   4.566   0.101  1.2691  0.1917 -0.0098
 1005TIP3   OH224573   6.147   3.171   0.723  0.8701  0.1889  0.0757
 1005TIP3    H124574   6.099   3.241   0.679 -1.6212 -0.5551  1.4086
 1005TIP3    H224575   6.216   3.216   0.772 -0.2237  1.6401  0.3467
 1006TIP3   OH224576   3.255   6.457   0.999  0.2850  0.2903 -0.0454
 1006TIP3    H124577   3.302   6.490   0.922  0.6712  0.3559  0.2210
 1006TIP3    H224578   3.323   6.440   1.064  0.1538 -1.4153 -0.3117
 1007TIP3   OH224579   5.598   1.524   1.883 -0.1200 -1.0262 -0.3708
 1007TIP3    H124580   5.637   1.467   1.816 -2.6223  0.0913 -3.0169
 1007TIP3    H224581   5.519   1.478   1.911  0.3708 -1.0033  1.1341
 1008TIP3   OH224582   3.525   3.401   6.011 -0.4504 -0.5814  0.2536
 1008TIP3    H124583   3.616   3.405   5.981  0.2560 -2.1304  2.0023
 1008TIP3    H224584   3.474   3.423   5.933  1.4002  0.2912 -0.7887
 1009TIP3   OH224585   1.254   5.275   6.188  0.1644  0.1762  0.2481
 1009TIP3    H124586   1.230   5.337   6.119 -1.4840  1.5890  1.9885
 1009TIP3    H224587   1.347   5.256   6.173  0.3602  2.0147 -1.1226
 1010TIP3   OH224588   6.742   2.768   6.780  0.6037 -0.1042  0.3370
 1010TIP3    H124589   6.792   2.687   6.787  2.5449  0.8013 -1.5935
 1010TIP3    H224590   6.791   2.820   6.716 -0.6655  2.5209  1.3667
 1011TIP3   OH224591   1.151   5.456   2.176 -0.3855 -0.1163 -0.3871
 1011TIP3    H124592   1.231   5.484   2.132 -1.0828  0.0912 -1.5812
 1011TIP3    H224593   1.120   5.534   2.222 -0.0292 -0.1266 -0.1358
 1012TIP3   OH224594   6.146   3.539   6.881 -0.0299 -0.4449  0.1133
 1012TIP3    H124595   6.147   3.447   6.855 -0.1220 -0.1414 -1.0160
 1012TIP3    H224596   6.072   3.577   6.832 -1.0075 -0.0931  1.7693
 1013TIP3   OH224597   5.351   0.428   0.430  0.2616 -0.4256 -0.2400
 1013TIP3    H124598   5.355   0.523   0.441  1.6412 -0.5609  0.5658
 1013TIP3    H224599   5.315   0.395   0.512  1.1992 -0.7027  0.0675
 1014TIP3   OH224600   1.991   6.494   0.028  0.0057 -0.2291  0.2874
 1014TIP3    H124601   2.068   6.496  -0.030  0.3773  0.7404  0.7943
 1014TIP3    H224602   1.926   6.444  -0.021  0.7563 -0.5407 -0.4144
 1015TIP3   OH224603   1.974   1.934   1.892  0.3944  0.1031 -0.1489
 1015TIP3    H124604   1.923   1.905   1.817  0.3556 -1.4157  0.4429
 1015TIP3    H224605   1.912   1.934   1.965  0.6234  0.8120  0.0590
 1016TIP3   OH224606   5.342   6.725   6.179 -0.0338 -0.0289  0.0812
 1016TIP3    H124607   5.360   6.661   6.248  1.1177 -0.2915 -0.4265
 1016TIP3    H224608   5.343   6.810   6.224  0.9332 -0.1788  0.3681
 1017TIP3   OH224609   2.199   4.684   6.086  0.2844 -0.5588  0.5179
 1017TIP3    H124610   2.286   4.723   6.095  0.0691 -0.0406  0.3703
 1017TIP3    H224611   2.188   4.670   5.992 -1.2210  2.7536  0.0665
 1018TIP3   OH224612   1.574   5.743   7.909  0.0295 -0.6293 -0.5052
 1018TIP3    H124613   1.648   5.761   7.968 -1.0228  1.0549  0.3937
 1018TIP3    H224614   1.595   5.659   7.868  0.2124 -2.6466  3.2965
 1019TIP3   OH224615   4.824   3.103   0.868  0.1782 -0.8965 -0.2113
 1019TIP3    H124616   4.833   3.008   0.873  0.9272 -0.9659 -2.1021
 1019TIP3    H224617   4.774   3.118   0.788  1.1604  0.3388 -0.6155
 1020TIP3   OH224618   6.362   6.930   0.538  0.4546 -0.2159 -0.2672
 1020TIP3    H124619   6.269   6.953   0.539  0.3914 -0.4312 -0.8694
 1020TIP3    H224620   6.400   6.989   0.472  0.8987  0.4259  0.5320
 1021TIP3   OH224621   4.151   1.822   7.637  0.0578 -0.7397  0.5153
 1021TIP3    H124622   4.179   1.876   7.711  0.9792  1.4790 -1.3360
 1021TIP3    H224623   4.096   1.880   7.584 -0.7651 -2.3344 -0.4526
 1022TIP3   OH224624   1.468   7.124   7.117 -0.0027  0.2650  0.4531
 1022TIP3    H124625   1.377   7.106   7.144  0.3355 -0.1272  1.3903
 1022TIP3    H224626   1.476   7.219   7.121 -0.8264  0.4440 -1.2202
 1023TIP3   OH224627   2.975   3.396   1.517 -0.3422  0.7726  0.5166
 1023TIP3    H124628   3.020   3.441   1.446 -0.0229  0.7539  0.7070
 1023TIP3    H224629   2.978   3.457   1.591  1.1427 -0.0147  1.1498
 1024TIP3   OH224630   3.868   4.877   1.767 -0.3649  0.2590 -0.6257
 1024TIP3    H124631   3.836   4.924   1.844  0.4216 -1.1432  0.6161
 1024TIP3    H224632   3.932   4.814   1.802  0.0554 -0.3864 -2.4353
 1025TIP3   OH224633   5.661   5.132   6.412 -0.0379 -0.4782  0.4942
 1025TIP3    H124634   5.693   5.100   6.327  1.8598  0.8005  0.6524
 1025TIP3    H224635   5.609   5.209   6.391 -1.2323 -1.2776  0.3986
 1026TIP3   OH224636   0.938   3.264   6.528  0.2648 -0.0316  0.6302
 1026TIP3    H124637   1.019   3.235   6.570  0.1487 -0.9987  0.2102
 1026TIP3    H224638   0.903   3.330   6.587  0.9375 -0.1997  1.2337
 1027TIP3   OH224639   5.510   4.497   1.120  0.2034  0.3304  0.6917
 1027TIP3    H124640   5.587   4.530   1.074  0.5733 -0.6420  0.6008
 1027TIP3    H224641   5.443   4.565   1.106  0.4839  0.3315 -0.7754
 1028TIP3   OH224642   1.028   6.578   0.735  0.3659  0.5098 -0.2193
 1028TIP3    H124643   1.029   6.613   0.824  2.1888  1.1104 -0.4353
 1028TIP3    H224644   1.014   6.484   0.745  1.5485  0.4188  0.7986
 1029TIP3   OH224645   2.241   4.240   6.267  0.4929 -0.1746 -0.3413
 1029TIP3    H124646   2.263   4.217   6.177  3.2403 -2.0644  0.6697
 1029TIP3    H224647   2.212   4.158   6.307 -1.4744  0.7983  0.3452
 1030TIP3   OH224648   1.178   3.191   7.548  0.2536 -0.1900  0.9746
 1030TIP3    H124649   1.222   3.275   7.535  0.7925 -0.6702 -0.5049
 1030TIP3    H224650   1.085   3.213   7.558  0.4752  0.6164  1.3340
 1031TIP3   OH224651   1.505   3.252   8.005 -0.2225  0.5666  0.0942
 1031TIP3    H124652   1.446   3.213   8.070 -0.5603 -0.0153 -0.5515
 1031TIP3    H224653   1.459   3.244   7.922  1.1878 -0.8884 -0.6139
 1032TIP3   OH224654   3.838   6.095   6.242 -0.1136 -0.0687  0.0741
 1032TIP3    H124655   3.818   6.005   6.219 -0.0638 -0.3582  1.1337
 1032TIP3    H224656   3.753   6.137   6.250 -0.1490  0.5805 -2.5379
 1033TIP3   OH224657   1.306   1.339   6.271 -0.0070 -0.4963 -0.0049
 1033TIP3    H124658   1.306   1.246   6.292 -1.0158 -0.4274  0.3497
 1033TIP3    H224659   1.359   1.379   6.340  3.1860 -1.1066 -1.8601
 1034TIP3   OH224660   5.117   5.715   7.160 -0.4063  0.0655 -0.4855
 1034TIP3    H124661   5.116   5.628   7.121 -1.2527 -0.4146  0.5597
 1034TIP3    H224662   5.029   5.749   7.144 -0.3600  0.3682 -0.1093
 1035TIP3   OH224663   0.268   4.457   1.574  0.2598  0.3005 -0.1933
 1035TIP3    H124664   0.287   4.367   1.603  0.1758  0.6161  0.8615
 1035TIP3    H224665   0.181   4.450   1.533  1.1355 -0.4952 -2.0677
 1036TIP3   OH224666   1.225   0.037   0.676 -0.4171 -0.4651  0.6866
 1036TIP3    H124667   1.200  -0.055   0.663  0.5384 -0.7043  0.3933
 1036TIP3    H224668   1.178   0.085   0.608  1.5259 -1.1925 -1.3281
 1037TIP3   OH224669   1.704   0.323   2.101 -0.5277  0.0621 -0.2594
 1037TIP3    H124670   1.619   0.288   2.126 -0.4755  0.0779 -0.0610
 1037TIP3    H224671   1.762   0.300   2.174 -0.1213 -0.8781 -0.8532
 1038TIP3   OH224672   1.260   2.318   0.239  0.0207  0.1208  0.0410
 1038TIP3    H124673   1.211   2.360   0.309  1.2469 -0.2137  1.1445
 1038TIP3    H224674   1.276   2.229   0.271  0.7709  0.0245 -0.5706
 1039TIP3   OH224675   3.314   0.534   0.193  0.1171  0.1663 -0.1029
 1039TIP3    H124676   3.238   0.505   0.242 -0.6449 -0.4248 -1.5572
 1039TIP3    H224677   3.319   0.629   0.209 -1.8016  0.4826 -1.1013
 1040TIP3   OH224678   6.316   1.839   7.489  0.6469  0.5687  0.3691
 1040TIP3    H124679   6.349   1.922   7.523 -2.6463  1.9441  0.5887
 1040TIP3    H224680   6.289   1.859   7.399 -1.6508  0.2338  0.9340
 1041TIP3   OH224681   0.175   2.060   6.614  0.0834 -0.0953  0.4335
 1041TIP3    H124682   0.241   2.130   6.612  0.7531 -0.7407 -1.4021
 1041TIP3    H224683   0.193   2.013   6.696 -0.3873  1.8294  1.7197
 1042TIP3   OH224684   1.823   0.155   7.801  0.0054  0.3773 -0.3808
 1042TIP3    H124685   1.850   0.067   7.775  1.0432  0.2465  1.0035
 1042TIP3    H224686   1.905   0.201   7.820 -0.5007  1.7723 -1.3835
 1043TIP3   OH224687   2.463   2.969   7.395  0.1561  0.5413  0.1539
 1043TIP3    H124688   2.449   3.039   7.331  1.9216 -1.1843 -2.2999
 1043TIP3    H224689   2.529   2.913   7.355 -0.6060 -2.1269  2.3483
 1044TIP3   OH224690   5.397   5.269   5.982 -0.0359  0.1775  0.4433
 1044TIP3    H124691   5.457   5.195   5.974 -1.9210 -1.2624 -1.6253
 1044TIP3    H224692   5.340   5.262   5.905 -3.0397  1.2524  2.3798
 1045TIP3   OH224693   4.167   6.116   1.244  0.0195  0.2552 -0.4198
 1045TIP3    H124694   4.182   6.040   1.300  0.2691  0.5996 -0.0059
 1045TIP3    H224695   4.204   6.189   1.294  2.2240  0.2910 -1.9453
 1046TIP3   OH224696   1.291   1.480   7.772  0.6583  0.0410 -0.5718
 1046TIP3    H124697   1.258   1.482   7.862 -1.1478  0.1975 -1.2095
 1046TIP3    H224698   1.308   1.572   7.751  0.8776  0.0242 -0.4745
 1047TIP3   OH224699   2.722   0.605   0.049 -0.1755  0.3168 -0.5622
 1047TIP3    H124700   2.680   0.541   0.107 -0.3985 -0.6623 -1.7559
 1047TIP3    H224701   2.649   0.650   0.006 -0.0174  0.1063 -1.0571
 1048TIP3   OH224702   5.962   2.690   0.423  0.0772 -0.4863 -0.0930
 1048TIP3    H124703   6.043   2.661   0.382  0.9551  0.0622  1.2202
 1048TIP3    H224704   5.974   2.783   0.439 -1.3698 -0.0761 -1.1180
 1049TIP3   OH224705   3.890   0.218   6.752 -0.4299 -0.2347  0.6299
 1049TIP3    H124706   3.855   0.307   6.762  0.3679  0.3228 -1.1118
 1049TIP3    H224707   3.981   0.226   6.782 -0.1520 -0.2827 -0.1906
 1050TIP3   OH224708   2.600   1.767   6.718 -0.2630  0.1277 -0.1747
 1050TIP3    H124709   2.681   1.715   6.715  2.0911  3.3849  1.1381
 1050TIP3    H224710   2.595   1.799   6.808 -3.1539 -0.0073 -0.1911
 1051TIP3   OH224711   2.649   2.900   7.905  0.2862 -0.2044  0.5447
 1051TIP3    H124712   2.687   2.814   7.888  0.9387  0.1828 -0.0203
 1051TIP3    H224713   2.613   2.927   7.820  0.7333  0.3876  0.5388
 1052TIP3   OH224714   0.726   5.294   0.979 -0.3945  0.6471  0.2135
 1052TIP3    H124715   0.695   5.254   0.898 -0.4210 -1.7381  1.3062
 1052TIP3    H224716   0.797   5.236   1.008 -0.4218  1.4009  1.9167
 1053TIP3   OH224717   5.492   6.730   7.507 -0.4532 -1.0522  0.3101
 1053TIP3    H124718   5.486   6.688   7.593  0.7870 -1.3447  0.2722
 1053TIP3    H224719   5.439   6.809   7.515  0.6115 -0.4445  1.7451
 1054TIP3   OH224720   2.671   6.594   0.942 -0.0833  0.0800  0.9044
 1054TIP3    H124721   2.708   6.660   0.883 -2.5046  2.3388  1.7596
 1054TIP3    H224722   2.717   6.607   1.025  0.0614  0.0712  0.8259
 1055TIP3   OH224723   5.491   3.659   1.109  0.0996  0.2103 -0.2730
 1055TIP3    H124724   5.520   3.572   1.082  0.6006  0.2755  0.0501
 1055TIP3    H224725   5.562   3.717   1.083  1.0754  0.1482  2.0376
 1056TIP3   OH224726   0.191   3.966   0.313  0.6186 -0.6535  0.3513
 1056TIP3    H124727   0.201   4.026   0.387 -2.0708 -0.0390  0.3280
 1056TIP3    H224728   0.230   3.884   0.343  1.7581  0.2445  1.4872
 1057TIP3   OH224729   4.443   5.728   6.530  0.0841 -1.0696  0.0844
 1057TIP3    H124730   4.357   5.744   6.570  0.2443 -1.7112  0.7115
 1057TIP3    H224731   4.457   5.802   6.472 -0.1148 -0.0251  1.3160
 1058TIP3   OH224732   0.217   0.770   8.026 -0.1889 -0.3361 -0.5854
 1058TIP3    H124733   0.254   0.707   7.964 -1.2964 -0.6896 -0.9088
 1058TIP3    H224734   0.233   0.856   7.986 -1.1529 -0.5768 -1.5232
 1059TIP3   OH224735   5.492   0.237   1.603  0.4676  0.0937  0.0065
 1059TIP3    H124736   5.587   0.239   1.612  0.5436 -2.1295  0.3482
 1059TIP3    H224737   5.461   0.310   1.657  1.9350  0.2696  0.6518
 1060TIP3   OH224738   2.953   1.834   7.136  0.2563  0.1700 -0.0356
 1060TIP3    H124739   3.043   1.810   7.157  0.0219  0.4814  1.4629
 1060TIP3    H224740   2.906   1.823   7.219 -0.8845  0.9387 -0.5573
 1061TIP3   OH224741   3.419   2.320   0.965  0.2932 -0.2296 -0.0458
 1061TIP3    H124742   3.429   2.230   0.994  1.2208 -0.2937 -0.5231
 1061TIP3    H224743   3.326   2.330   0.947 -0.2362 -0.3581  2.3604
 1062TIP3   OH224744   5.205   2.191   7.181  0.4191  0.2232  0.2407
 1062TIP3    H124745   5.115   2.182   7.213  0.1650  2.1695  0.2026
 1062TIP3    H224746   5.196   2.202   7.087  0.8577 -1.2580 -0.0017
 1063TIP3   OH224747   6.793   5.684   0.676  0.0684  0.1769  0.2304
 1063TIP3    H124748   6.760   5.691   0.766  0.6354  0.1716  0.4426
 1063TIP3    H224749   6.760   5.763   0.633 -1.6412 -0.6422 -0.0473
 1064TIP3   OH224750   6.439   0.480   1.616 -0.4272 -0.1360  0.2733
 1064TIP3    H124751   6.360   0.497   1.565 -0.7529 -0.9800  0.4887
 1064TIP3    H224752   6.434   0.543   1.689  1.6583  3.4106 -2.3245
 1065TIP3   OH224753   5.677   3.806   6.662  0.6847  0.2778  0.3902
 1065TIP3    H124754   5.715   3.820   6.575  0.1361  0.6942  0.2111
 1065TIP3    H224755   5.590   3.844   6.656 -0.3710 -1.9690  0.3242
 1066TIP3   OH224756   1.011   6.305   0.165  0.6485 -0.1555 -0.3509
 1066TIP3    H124757   1.085   6.295   0.105  0.4027  2.3765 -1.2314
 1066TIP3    H224758   1.031   6.385   0.213  0.1476 -1.3843  2.0242
 1067TIP3   OH224759   3.192   6.609   6.204 -0.8222 -0.4672  0.1988
 1067TIP3    H124760   3.176   6.699   6.231 -3.7773 -1.0105  0.5630
 1067TIP3    H224761   3.195   6.559   6.286 -1.7126 -1.0203 -0.0901
 1068TIP3   OH224762   4.115   4.421   0.967 -0.3977 -0.2218  0.2280
 1068TIP3    H124763   4.141   4.370   1.044 -0.8136  1.7362  1.7571
 1068TIP3    H224764   4.020   4.429   0.975 -0.4311  0.0942 -0.4348
 1069TIP3   OH224765   1.904   6.957   6.295  0.3468  0.1168 -0.1625
 1069TIP3    H124766   1.905   7.002   6.380 -1.4951  0.2352 -0.1640
 1069TIP3    H224767   1.994   6.965   6.263  0.9137  0.6667  1.4623
 1070TIP3   OH224768   6.876   4.025   7.526  0.2262 -0.1719 -0.3809
 1070TIP3    H124769   6.912   4.108   7.558 -2.2054  0.5765  0.6125
 1070TIP3    H224770   6.921   4.010   7.443  0.1401  2.5741 -1.0106
 1071TIP3   OH224771   4.399   1.118   6.341  0.1440  0.5760 -0.3614
 1071TIP3    H124772   4.478   1.169   6.320  0.5038  0.5900  0.9578
 1071TIP3    H224773   4.368   1.154   6.423 -1.6738  1.0359 -1.1938
 1072TIP3   OH224774   0.523   5.006   7.941 -0.2084  0.1821 -0.0200
 1072TIP3    H124775   0.445   4.955   7.962  0.7416 -1.0067  0.7419
 1072TIP3    H224776   0.491   5.096   7.935 -1.8193 -0.3963 -0.8209
 1073TIP3   OH224777   0.064   2.356   5.994  0.1571  0.3988  0.3945
 1073TIP3    H124778  -0.008   2.416   5.977  0.8327  1.4905  1.2637
 1073TIP3    H224779   0.119   2.361   5.916 -0.6492 -0.4077 -0.2548
 1074TIP3   OH224780   3.717   1.387   0.372  0.1329  0.3031  0.1785
 1074TIP3    H124781   3.801   1.430   0.358  2.3797 -3.1482  1.6128
 1074TIP3    H224782   3.736   1.319   0.436 -3.6540 -1.1299  0.0231
 1075TIP3   OH224783   1.844   6.143   1.596 -0.2653  0.0791  0.1696
 1075TIP3    H124784   1.788   6.178   1.665  1.4064  1.2972  0.9753
 1075TIP3    H224785   1.792   6.150   1.516 -0.7878  2.4213  0.6556
 1076TIP3   OH224786   6.021   1.416   5.793  0.0928 -0.4915 -0.1686
 1076TIP3    H124787   6.116   1.430   5.787  0.0180 -0.1309 -0.5616
 1076TIP3    H224788   6.011   1.321   5.797  0.3966 -0.6002 -1.5421
 1077TIP3   OH224789   1.492   3.467   6.681  0.0375  0.4613  0.4898
 1077TIP3    H124790   1.414   3.508   6.644  0.2074  0.9495  0.6726
 1077TIP3    H224791   1.511   3.516   6.761  1.4779  1.4220 -0.3909
 1078TIP3   OH224792   5.715   3.689   7.526  0.6261 -0.3753  0.0236
 1078TIP3    H124793   5.630   3.657   7.555 -0.9363  2.7698 -0.6485
 1078TIP3    H224794   5.768   3.692   7.606 -0.5165 -0.5819  0.8082
 1079TIP3   OH224795   1.258   1.018   2.187  0.7198  0.0930 -0.2217
 1079TIP3    H124796   1.199   1.091   2.203  1.9436  1.5181 -1.9228
 1079TIP3    H224797   1.199   0.943   2.172 -0.7717  1.6379 -2.8178
 1080TIP3   OH224798   0.009   5.344   0.012  0.1583  0.0096 -0.1897
 1080TIP3    H124799  -0.075   5.357   0.057  0.2050  2.3401 -0.6113
 1080TIP3    H224800  -0.014   5.297  -0.068 -0.5910 -0.2512  0.1638
 1081TIP3   OH224801   3.161   0.388   1.219 -0.0822  0.6291  0.4680
 1081TIP3    H124802   3.111   0.373   1.300 -2.7562 -0.4288 -1.2485
 1081TIP3    H224803   3.135   0.475   1.190 -3.7732 -1.0849 -2.0957
 1082TIP3   OH224804   0.251   6.235   6.667 -0.3249 -0.0768  0.0041
 1082TIP3    H124805   0.233   6.306   6.606 -0.5963  1.5239  1.8470
 1082TIP3    H224806   0.165   6.210   6.701 -0.4360 -2.5462 -1.8596
 1083TIP3   OH224807   2.822   0.945   7.047  0.2274 -0.1460 -0.1243
 1083TIP3    H124808   2.812   1.010   7.117 -0.6177 -0.4290  0.0264
 1083TIP3    H224809   2.752   0.882   7.063  1.8518 -1.8774  0.5897
 1084TIP3   OH224810   1.008   3.798   6.857  0.2884  0.2993 -0.1111
 1084TIP3    H124811   1.081   3.845   6.898  0.3103 -0.0637  0.2709
 1084TIP3    H224812   1.008   3.829   6.766  0.2115  1.1516  0.1660
 1085TIP3   OH224813   3.975   4.150   7.156 -0.3014  0.1827  0.4128
 1085TIP3    H124814   3.936   4.086   7.097 -0.4437 -0.3474  1.0746
 1085TIP3    H224815   4.062   4.114   7.176  0.5322  1.3008 -0.9727
 1086TIP3   OH224816   5.690   1.773   7.592 -0.4674 -0.3728  0.9705
 1086TIP3    H124817   5.624   1.839   7.608  0.8433  1.0176  0.8328
 1086TIP3    H224818   5.770   1.822   7.573  0.0508 -1.9398 -1.4525
 1087TIP3   OH224819   5.878   5.122   7.004  0.0955 -0.2285 -0.1474
 1087TIP3    H124820   5.912   5.093   7.089 -1.2253 -2.6548 -0.3360
 1087TIP3    H224821   5.949   5.101   6.943  0.0697 -0.9228  0.0453
 1088TIP3   OH224822   0.342   5.256   0.687  0.0484 -0.0676 -0.0035
 1088TIP3    H124823   0.388   5.309   0.621  2.0343 -1.8603 -0.1634
 1088TIP3    H224824   0.260   5.303   0.702  0.5198  1.5955 -2.0891
 1089TIP3   OH224825   4.337   6.011   6.528  0.1369  0.2270 -0.2127
 1089TIP3    H124826   4.245   6.039   6.526 -0.0186 -0.3001 -0.6837
 1089TIP3    H224827   4.355   5.981   6.439  0.8701  0.6385 -0.2129
 1090TIP3   OH224828   0.098   4.628   1.023 -0.7787  0.4308 -0.3513
 1090TIP3    H124829   0.139   4.553   0.981 -0.5022  1.0229 -1.1521
 1090TIP3    H224830   0.127   4.704   0.972  1.5491  1.4813  2.2603
 1091TIP3   OH224831   1.599   7.119   0.502  0.2157 -0.3753 -0.3766
 1091TIP3    H124832   1.691   7.130   0.525 -0.0922  1.9141  0.0396
 1091TIP3    H224833   1.598   7.123   0.406  0.5290  0.0799 -0.3679
 1092TIP3   OH224834   5.768   0.578   6.797 -0.0342 -0.3609 -0.0325
 1092TIP3    H124835   5.710   0.506   6.821 -1.6354  1.0733  0.6668
 1092TIP3    H224836   5.733   0.610   6.714  1.1478 -0.8509 -0.7430
 1093TIP3   OH224837   1.502   2.884   6.109  0.0965  0.1339  0.4009
 1093TIP3    H124838   1.503   2.797   6.148 -1.5115  0.5035  1.3958
 1093TIP3    H224839   1.580   2.927   6.143 -1.3138  0.4899  3.5216
 1094TIP3   OH224840   4.451   0.892   0.630  0.2056 -0.1439  0.3587
 1094TIP3    H124841   4.402   0.973   0.646  1.7024  1.1558 -1.2209
 1094TIP3    H224842   4.386   0.831   0.596 -1.0329  0.2181  1.9133
 1095TIP3   OH224843   3.978   5.388   5.889 -0.3686 -1.0341  0.5274
 1095TIP3    H124844   3.955   5.295   5.891  0.1736 -1.2383 -1.2005
 1095TIP3    H224845   4.070   5.389   5.862 -0.4574  0.0170  0.2226
 1096TIP3   OH224846   0.686   2.957   6.220  0.3132  0.6668 -0.7364
 1096TIP3    H124847   0.763   3.009   6.242 -0.5122  1.3871  0.6293
 1096TIP3    H224848   0.710   2.909   6.141  1.9471  1.3005 -0.6507
 1097TIP3   OH224849   0.034   6.303   6.234 -0.6636 -0.5786 -0.3011
 1097TIP3    H124850   0.085   6.223   6.223 -1.8398 -1.4558  0.3214
 1097TIP3    H224851   0.092   6.373   6.204  0.3934 -1.6556 -0.8774
 1098TIP3   OH224852   1.026   5.888   7.440 -0.0541 -0.3244  0.2539
 1098TIP3    H124853   1.057   5.836   7.366  0.4489  2.0154 -1.2862
 1098TIP3    H224854   1.089   5.959   7.448 -1.6946  1.1311  1.0022
 1099TIP3   OH224855   1.378   3.021   6.633 -0.1176 -0.2826  0.7097
 1099TIP3    H124856   1.449   3.082   6.654 -0.4675  0.5692 -0.4591
 1099TIP3    H224857   1.405   2.938   6.672  1.8169 -0.1435 -0.2439
 1100TIP3   OH224858   0.512   3.927   5.844  0.4824  0.1239 -0.1195
 1100TIP3    H124859   0.488   3.973   5.925  2.1518 -2.5074  2.0877
 1100TIP3    H224860   0.429   3.910   5.800 -0.4794  1.7521  0.9529
 1101TIP3   OH224861   3.051   0.700   5.649 -0.3793  0.5736 -0.0747
 1101TIP3    H124862   3.144   0.696   5.672 -0.4235 -1.2702 -0.1417
 1101TIP3    H224863   3.021   0.610   5.655 -2.1169  1.1112 -0.3238
 1102TIP3   OH224864   4.473   0.518   0.442 -0.4717  0.3260 -0.4420
 1102TIP3    H124865   4.479   0.496   0.349  2.5314  2.0244 -0.7760
 1102TIP3    H224866   4.549   0.474   0.481 -0.9176  0.7554  0.9455
 1103TIP3   OH224867   5.045   3.361   2.071 -0.2595 -0.1453 -0.8174
 1103TIP3    H124868   5.020   3.445   2.033 -1.7076 -0.4411 -0.5674
 1103TIP3    H224869   4.963   3.310   2.075  0.2721 -0.9643  0.5347
 1104TIP3   OH224870   3.323   3.399   0.658  0.0782  0.4238 -0.1265
 1104TIP3    H124871   3.306   3.490   0.682 -0.8870  0.2678 -0.1603
 1104TIP3    H224872   3.256   3.379   0.593 -1.0707 -0.9258  1.3808
 1105TIP3   OH224873   5.318   2.669   7.491  0.0736  0.1408 -0.1892
 1105TIP3    H124874   5.363   2.608   7.549 -0.8546  0.0146  0.4322
 1105TIP3    H224875   5.271   2.612   7.429  0.5657  0.2625 -0.6734
 1106TIP3   OH224876   2.857   4.802   8.027 -0.1586 -0.0790 -0.8313
 1106TIP3    H124877   2.892   4.864   8.091  2.1853 -0.7403 -1.3524
 1106TIP3    H224878   2.818   4.732   8.079  1.6757 -0.5940 -0.0555
 1107TIP3   OH224879   2.176   0.245   5.475  0.2231 -0.2259  0.0923
 1107TIP3    H124880   2.260   0.200   5.480 -0.9375 -2.3804  2.7942
 1107TIP3    H224881   2.120   0.185   5.427 -0.5270 -0.2104  0.9275
 1108TIP3   OH224882   0.793   1.346   0.483  0.5915 -0.3815 -0.6680
 1108TIP3    H124883   0.811   1.440   0.478 -0.8863 -0.0621 -0.5207
 1108TIP3    H224884   0.878   1.304   0.476  1.7293  1.0710  2.5929
 1109TIP3   OH224885   3.004   7.141   5.731  0.0634 -0.0039 -0.0123
 1109TIP3    H124886   3.042   7.059   5.763  1.3018  0.1335 -1.0543
 1109TIP3    H224887   2.913   7.139   5.762  0.3404 -1.3214  0.7812
 1110TIP3   OH224888   4.337   3.140   1.976  0.0348 -0.1259  0.5780
 1110TIP3    H124889   4.385   3.073   2.025 -1.2363 -1.8933 -0.4777
 1110TIP3    H224890   4.381   3.144   1.891  0.9801  1.4773  1.0873
 1111TIP3   OH224891   4.069   3.500   7.047 -0.1251  0.6821  0.3732
 1111TIP3    H124892   4.090   3.477   6.957 -2.8455 -1.5554  0.1823
 1111TIP3    H224893   4.132   3.451   7.100  1.2361  1.7109 -0.2148
 1112TIP3   OH224894   2.510   4.168   0.269  0.1431  0.0578 -0.4245
 1112TIP3    H124895   2.516   4.133   0.181  1.8003  0.8703 -0.6790
 1112TIP3    H224896   2.601   4.187   0.294 -0.5101  2.8516  0.1799
 1113TIP3   OH224897   6.018   4.027   7.813  0.0408  0.3466  0.1128
 1113TIP3    H124898   6.025   4.013   7.907  1.5231  0.9170  0.1151
 1113TIP3    H224899   6.100   4.070   7.789 -0.0605 -0.3049 -1.5336
 1114TIP3   OH224900   6.378   4.343   7.949 -0.3550  0.6522  0.2754
 1114TIP3    H124901   6.322   4.286   7.896 -0.6508  1.7852 -0.6876
 1114TIP3    H224902   6.332   4.428   7.948  1.2193  1.5371 -0.3226
 1115TIP3   OH224903   2.030   3.334   6.730 -0.0602  0.4447  0.1821
 1115TIP3    H124904   1.935   3.334   6.721 -0.2548 -3.4286  0.5168
 1115TIP3    H224905   2.063   3.303   6.646  1.0928  2.8362 -0.3395
 1116TIP3   OH224906   6.419   4.611   1.056 -0.3003  0.4394 -0.3972
 1116TIP3    H124907   6.423   4.703   1.081  0.3761  0.5187 -0.7452
 1116TIP3    H224908   6.454   4.564   1.131 -2.4827  0.2738  0.5816
 1117TIP3   OH224909   4.129   6.405   0.241  0.1546 -0.8146 -0.0157
 1117TIP3    H124910   4.163   6.342   0.304 -1.0920 -0.3902  1.1464
 1117TIP3    H224911   4.053   6.362   0.202 -0.5990 -0.1304  0.6541
 1118TIP3   OH224912   0.404   0.997   6.469  0.6462 -0.5358  0.3180
 1118TIP3    H124913   0.453   0.915   6.482 -0.1591 -1.0408  0.2395
 1118TIP3    H224914   0.315   0.968   6.449  0.3203  0.3703  0.4352
 1119TIP3   OH224915   6.826   5.493   5.876  0.0008  0.3140 -0.3436
 1119TIP3    H124916   6.732   5.505   5.863 -0.2401  0.4830  1.2631
 1119TIP3    H224917   6.846   5.545   5.954  0.9591 -1.5223  0.7061
 1120TIP3   OH224918   5.724   1.964   7.291 -0.4682  0.3833 -0.2192
 1120TIP3    H124919   5.645   2.000   7.250 -0.7216  1.5020  1.1830
 1120TIP3    H224920   5.755   1.898   7.229 -1.8799  0.6980 -1.3118
 1121TIP3   OH224921   3.024   0.386   7.673  0.0427  0.0975 -0.0832
 1121TIP3    H124922   3.013   0.405   7.766 -3.7358  1.8712 -0.6809
 1121TIP3    H224923   2.968   0.310   7.657 -2.2252  1.8976 -1.3530
 1122TIP3   OH224924   6.803   5.544   7.925 -0.1424 -0.2110 -0.1971
 1122TIP3    H124925   6.723   5.528   7.875 -0.6956 -2.0125  1.1447
 1122TIP3    H224926   6.814   5.639   7.925 -1.3628 -0.0380 -1.7853
 1123TIP3   OH224927   5.279   0.181   7.561  0.2462  0.1380 -0.5238
 1123TIP3    H124928   5.199   0.233   7.567  0.2034  0.0859 -0.6314
 1123TIP3    H224929   5.282   0.133   7.643  0.2722  0.2922 -0.4355
 1124TIP3   OH224930   3.987   0.175   0.754  0.5926 -0.2438 -0.1654
 1124TIP3    H124931   4.076   0.209   0.748  0.8543 -0.8021  0.3779
 1124TIP3    H224932   3.931   0.246   0.724  1.2555 -0.0605 -0.9857
 1125TIP3   OH224933   5.997   5.976   6.687  0.2985 -0.2030 -0.3489
 1125TIP3    H124934   5.965   5.957   6.599 -1.1674  0.7912 -0.0806
 1125TIP3    H224935   6.068   6.038   6.673 -1.9234  2.4604 -0.8118
 1126TIP3   OH224936   2.840   6.553   6.159 -0.1569  0.5764  0.0770
 1126TIP3    H124937   2.890   6.628   6.191 -0.5703  1.2194 -0.7357
 1126TIP3    H224938   2.755   6.590   6.133  0.0809  0.0769 -1.5476
 1127TIP3   OH224939   5.866   1.871   0.380 -0.2949 -0.2890 -0.4942
 1127TIP3    H124940   5.855   1.964   0.401 -0.0529 -0.2597 -0.4897
 1127TIP3    H224941   5.932   1.840   0.443 -0.2151 -0.4117 -0.6365
 1128TIP3   OH224942   4.174   1.355   0.434 -0.3374  0.0475  0.5217
 1128TIP3    H124943   4.128   1.430   0.470 -1.4833 -0.8061  0.9135
 1128TIP3    H224944   4.178   1.372   0.340  1.7546  1.7987  0.8577
 1129TIP3   OH224945   6.580   2.747   7.195  0.5578 -0.8592 -0.4567
 1129TIP3    H124946   6.539   2.744   7.109 -1.4462  0.6091  0.3779
 1129TIP3    H224947   6.535   2.680   7.246 -0.1151  0.0404  0.1629
 1130TIP3   OH224948   5.071   2.734   6.636 -0.0783 -0.4485 -0.0592
 1130TIP3    H124949   5.149   2.737   6.581  0.4515 -1.1440  0.6353
 1130TIP3    H224950   5.041   2.643   6.631 -0.2011 -0.4476  0.5490
 1131TIP3   OH224951   2.890   5.528   5.793 -0.6278  0.0485 -0.2379
 1131TIP3    H124952   2.978   5.497   5.814 -0.6620  0.0482 -0.0962
 1131TIP3    H224953   2.904   5.606   5.739 -0.5048  1.6567  1.9928
 1132TIP3   OH224954   1.056   2.798   1.246 -0.3838  0.0543  0.7811
 1132TIP3    H124955   1.147   2.825   1.257 -0.6166  1.4938 -0.4594
 1132TIP3    H224956   1.009   2.842   1.317 -0.3057  0.3835  0.6288
 1133TIP3   OH224957   3.828   7.099   0.105 -0.4504  0.2257 -0.6589
 1133TIP3    H124958   3.836   7.041   0.029 -0.6657  0.1737 -0.6410
 1133TIP3    H224959   3.916   7.100   0.144 -0.3361  0.2627 -0.9160
 1134TIP3   OH224960   1.028   1.834   6.122 -0.0341  0.6296  0.2371
 1134TIP3    H124961   1.059   1.745   6.138 -0.3311  0.0163 -2.2478
 1134TIP3    H224962   1.099   1.890   6.155  0.3449 -0.5181  1.4377
 1135TIP3   OH224963   3.232   0.694   6.898 -0.1726  0.1855  0.6206
 1135TIP3    H124964   3.187   0.654   6.823  0.5086  1.1399 -0.3337
 1135TIP3    H224965   3.180   0.771   6.920  0.7598  1.1155 -0.2826
 1136TIP3   OH224966   2.263   4.978   7.391 -0.1284  0.0280 -0.2164
 1136TIP3    H124967   2.289   4.935   7.309 -2.2354  1.7201 -1.8909
 1136TIP3    H224968   2.216   5.056   7.363  0.1342  1.3354  2.6722
 1137TIP3   OH224969   1.783   3.476   6.124 -0.5176 -0.2214 -0.2018
 1137TIP3    H124970   1.771   3.393   6.077  0.4307 -0.2509 -0.4258
 1137TIP3    H224971   1.819   3.535   6.058 -0.2194  0.0677  0.2141
 1138TIP3   OH224972   3.977   3.720   5.279 -0.3896 -0.3236  0.8624
 1138TIP3    H124973   4.009   3.651   5.220  0.3283 -0.6351  1.6038
 1138TIP3    H224974   3.975   3.679   5.365  2.5166  1.2441  1.8054
 1139TIP3   OH224975   6.271   4.963   1.270 -0.3916  0.4970  0.5115
 1139TIP3    H124976   6.305   4.939   1.356  1.8069 -0.8768 -0.6547
 1139TIP3    H224977   6.189   4.914   1.261  0.1822 -0.6237  1.2070
 1140TIP3   OH224978   6.997   6.805   6.705 -0.1172 -0.8485  0.3300
 1140TIP3    H124979   6.998   6.712   6.730  0.1855 -0.6635  1.0142
 1140TIP3    H224980   7.055   6.809   6.629  2.0144 -0.8060  1.8520
 1141TIP3   OH224981   6.748   2.591   7.067 -0.0601 -0.6287 -0.6484
 1141TIP3    H124982   6.686   2.636   7.124  0.8778 -0.1242  0.0011
 1141TIP3    H224983   6.818   2.561   7.126  1.0686  0.1329 -1.5372
 1142TIP3   OH224984   6.683   0.595   1.036 -0.8971 -0.1013  0.3207
 1142TIP3    H124985   6.602   0.565   0.994 -0.0249 -1.1370 -0.6831
 1142TIP3    H224986   6.717   0.663   0.977 -0.0858 -0.9856 -0.2481
 1143TIP3   OH224987   5.990   1.260   6.839 -0.8528  0.1087 -0.0829
 1143TIP3    H124988   5.984   1.353   6.863  2.4018  0.5662 -0.6711
 1143TIP3    H224989   6.021   1.217   6.918  1.2134  0.1763 -0.8081
 1144TIP3   OH224990   6.971   6.354   5.654 -0.0512 -0.6034 -0.0763
 1144TIP3    H124991   7.005   6.282   5.600  0.9684  1.2404 -2.0459
 1144TIP3    H224992   6.877   6.339   5.656  0.1105 -1.8884 -0.6032
 1145TIP3   OH224993   1.580   3.130   1.766  0.1269 -0.4535  0.5262
 1145TIP3    H124994   1.508   3.157   1.824  0.3513 -0.0393  0.6161
 1145TIP3    H224995   1.590   3.037   1.782 -0.3113 -0.4927  0.6043
 1146TIP3   OH224996   2.452   3.349   7.061 -0.1084  0.0945  0.0353
 1146TIP3    H124997   2.493   3.289   6.998 -0.4364 -1.4025  1.1909
 1146TIP3    H224998   2.358   3.332   7.054 -0.3578  1.6431 -0.7416
 1147TIP3   OH224999   5.213   6.116   5.753 -0.4987  0.1166 -0.3622
 1147TIP3    H125000   5.124   6.120   5.717 -0.4995 -0.4474 -0.4312
 1147TIP3    H225001   5.214   6.036   5.805  0.0880 -0.0913 -0.6836
 1148TIP3   OH225002   3.594   5.362   1.120  0.4152 -0.1613 -0.0646
 1148TIP3    H125003   3.640   5.279   1.118  0.4662 -0.1535  0.5229
 1148TIP3    H225004   3.635   5.411   1.192  0.8756  0.6592 -0.8709
 1149TIP3   OH225005   2.007   3.106   0.989 -0.7998  0.6320 -0.1825
 1149TIP3    H125006   2.000   3.019   1.029  0.9932  0.8456  0.6993
 1149TIP3    H225007   1.952   3.101   0.911  1.2141 -2.1775 -1.6244
 1150TIP3   OH225008   0.651   6.977   7.936  0.8415  0.1720 -0.2235
 1150TIP3    H125009   0.616   6.899   7.894  1.8800  0.3034 -1.3683
 1150TIP3    H225010   0.573   7.027   7.962  0.1535  0.2465 -2.2870
 1151TIP3   OH225011   3.244   4.588   7.681 -0.2721  0.1045 -0.1260
 1151TIP3    H125012   3.222   4.618   7.593 -0.5778  0.3912  0.0431
 1151TIP3    H225013   3.311   4.521   7.668 -0.7860 -0.3225 -0.6150
 1152TIP3   OH225014   1.374   1.336   6.013 -0.4988  0.3962  0.3666
 1152TIP3    H125015   1.460   1.296   6.033 -1.5965 -2.2404  0.2431
 1152TIP3    H225016   1.337   1.355   6.099 -0.5854 -0.3348  0.4991
 1153TIP3   OH225017   7.052   5.793   0.781  0.2974 -0.2287  0.1779
 1153TIP3    H125018   7.038   5.736   0.857  0.4185 -0.2901  0.1553
 1153TIP3    H225019   7.008   5.749   0.709 -2.2703  1.2051  0.7625
 1154TIP3   OH225020   6.600   4.067   0.310 -0.5964 -0.2451  0.3639
 1154TIP3    H125021   6.538   4.058   0.238  1.9825  1.2689 -2.3150
 1154TIP3    H225022   6.634   4.157   0.301  0.7468 -0.4438  2.6895
 1155TIP3   OH225023   0.280   2.653   0.964  0.9018 -0.0178 -0.0377
 1155TIP3    H125024   0.243   2.572   0.999  0.1258  0.7269  0.9083
 1155TIP3    H225025   0.228   2.722   1.003  0.1651  0.8883 -2.4436
 1156TIP3   OH225026   0.516   1.371   6.097  0.3368 -0.7850  0.7022
 1156TIP3    H125027   0.492   1.462   6.113  0.5520 -0.4260 -0.8687
 1156TIP3    H225028   0.472   1.322   6.167 -1.8635  0.2579  0.1453
 1157TIP3   OH225029   2.039   0.282   7.874 -0.1577  0.3811  0.6057
 1157TIP3    H125030   2.078   0.329   7.948 -0.2077 -1.0027  1.5494
 1157TIP3    H225031   2.045   0.343   7.801 -0.1846  1.8243  1.7712
 1158TIP3   OH225032   2.065   5.902   2.042 -0.1430 -0.4614 -1.0347
 1158TIP3    H125033   2.111   5.985   2.055  2.3147 -1.8973  0.1196
 1158TIP3    H225034   2.129   5.845   1.999 -0.3412 -2.9011  1.5841
 1159TIP3   OH225035   2.694   3.638   6.738  0.1310  0.5625  0.3616
 1159TIP3    H125036   2.721   3.656   6.648 -2.0883 -0.4151 -0.5861
 1159TIP3    H225037   2.668   3.723   6.774  2.4089  1.1920  0.6313
 1160TIP3   OH225038   2.559   6.536   5.896  0.3905  0.0111  0.4099
 1160TIP3    H125039   2.613   6.593   5.950  1.3342  0.3206 -0.7999
 1160TIP3    H225040   2.488   6.593   5.865  0.3354  0.0567  0.6191
 1161TIP3   OH225041   2.820   0.928   7.755 -0.4519 -0.6114 -0.3389
 1161TIP3    H125042   2.775   0.917   7.838 -0.1220 -2.2313 -0.3399
 1161TIP3    H225043   2.910   0.950   7.779 -0.7086  0.4738 -0.3115
 1162TIP3   OH225044   0.227   2.351   5.776 -0.1135  0.1750 -0.2368
 1162TIP3    H125045   0.177   2.429   5.751  1.8114  1.0368 -1.6921
 1162TIP3    H225046   0.251   2.311   5.693 -0.9454 -1.9579  0.4967
 1163TIP3   OH225047   1.892   2.482   0.916  0.7524  0.0408  0.3822
 1163TIP3    H125048   1.861   2.477   0.826 -0.1403  2.9255  0.4260
 1163TIP3    H225049   1.980   2.518   0.909 -0.0222  2.1484  0.6464
 1164TIP3   OH225050   0.637   2.776   0.361  0.3951 -0.2504 -0.2730
 1164TIP3    H125051   0.632   2.689   0.321 -0.5624  0.0080 -0.7519
 1164TIP3    H225052   0.619   2.760   0.454 -2.0556 -0.3556 -0.6866
 1165TIP3   OH225053   3.867   6.611   0.040 -0.2969  0.7083  0.2388
 1165TIP3    H125054   3.850   6.517   0.053 -1.6735  0.7557 -0.9210
 1165TIP3    H225055   3.900   6.641   0.125  0.2266 -0.8346  0.6129
 1166TIP3   OH225056   2.016   2.612   6.863 -0.5901  0.5705  0.2911
 1166TIP3    H125057   2.034   2.706   6.861 -0.9034  0.6269  0.0303
 1166TIP3    H225058   1.951   2.598   6.794  0.3321 -0.0264 -0.4780
 1167TIP3   OH225059   4.047   3.701   6.623 -0.0037 -0.6257 -0.0796
 1167TIP3    H125060   3.980   3.757   6.583  1.5057  0.7154 -0.8730
 1167TIP3    H225061   4.036   3.715   6.718 -1.4106 -1.1629 -0.1432
 1168TIP3   OH225062   2.022   0.181   1.359 -0.6686  0.3379  0.1823
 1168TIP3    H125063   2.083   0.120   1.402 -0.7630 -0.3992 -0.7121
 1168TIP3    H225064   2.072   0.263   1.352 -0.8518  0.6815  2.2180
 1169TIP3   OH225065   3.174   4.712   2.091  0.1601 -0.1924  0.0360
 1169TIP3    H125066   3.189   4.733   1.999 -0.0304 -0.2239 -0.0025
 1169TIP3    H225067   3.172   4.616   2.094  1.5194 -0.2359  0.2874
 1170TIP3   OH225068   3.903   2.461   0.113  0.3482  0.1973  0.1863
 1170TIP3    H125069   3.936   2.550   0.129 -0.2938  0.5484 -0.3652
 1170TIP3    H225070   3.899   2.421   0.200  0.2818  0.8482  0.4897
 1171TIP3   OH225071   2.448   0.264   1.677  0.2638 -0.3753  0.1475
 1171TIP3    H125072   2.455   0.327   1.749 -2.0877  1.8329 -1.3954
 1171TIP3    H225073   2.533   0.269   1.634  0.5931  0.7086  0.8732
 1172TIP3   OH225074   5.371   5.785   0.987  0.3805  0.8300  0.0526
 1172TIP3    H125075   5.292   5.815   0.942  0.7909  0.8061 -0.6910
 1172TIP3    H225076   5.442   5.800   0.925  1.1395  1.9063  1.1338
 1173TIP3   OH225077   1.771   5.958   7.537  0.3906  0.3014 -0.4911
 1173TIP3    H125078   1.795   5.974   7.446 -1.0233  2.2002 -0.5784
 1173TIP3    H225079   1.855   5.959   7.584  1.1007 -0.4092 -1.6948
 1174TIP3   OH225080   5.037   1.548   1.960  0.2103  0.3527 -0.5240
 1174TIP3    H125081   4.967   1.485   1.980  0.1775  0.1896 -1.1325
 1174TIP3    H225082   5.012   1.627   2.007  1.0734 -0.5585  1.5812
 1175TIP3   OH225083   2.369   3.604   7.975 -0.0973  0.2625  0.1275
 1175TIP3    H125084   2.400   3.542   8.041 -0.0484  0.1420 -0.0076
 1175TIP3    H225085   2.327   3.549   7.909  1.7427  0.1441 -1.0331
 1176TIP3   OH225086   0.631   7.110   0.463 -0.5105 -0.1788  0.0321
 1176TIP3    H125087   0.696   7.143   0.526 -1.5163 -2.3273  2.3682
 1176TIP3    H225088   0.551   7.160   0.484 -0.9286 -1.1130  0.7244
 1177TIP3   OH225089   3.400   1.575   0.047 -0.2195 -0.0268 -0.7247
 1177TIP3    H125090   3.356   1.630   0.112 -1.4812 -0.3993 -1.2280
 1177TIP3    H225091   3.410   1.633  -0.029 -1.5963 -0.4660 -1.2739
 1178TIP3   OH225092   3.047   4.707   5.984 -0.1445  0.0566  0.5958
 1178TIP3    H125093   3.033   4.624   5.940  0.3639  0.7480 -0.9360
 1178TIP3    H225094   3.055   4.771   5.913  1.8712  1.0529  1.6424
 1179TIP3   OH225095   4.488   4.219   0.393  0.6864  0.5640 -0.2514
 1179TIP3    H125096   4.519   4.309   0.389 -0.3410  0.9186 -0.4634
 1179TIP3    H225097   4.455   4.201   0.305 -2.1250  1.1094  0.5946
 1180TIP3   OH225098   2.351   6.870   6.971 -0.0761 -0.4451  0.0902
 1180TIP3    H125099   2.352   6.962   6.945 -2.0149 -0.6788 -0.9862
 1180TIP3    H225100   2.441   6.839   6.957  0.0445  0.6694 -1.8373
 1181TIP3   OH225101   6.281   6.981   1.178  0.0509  0.2939 -0.2341
 1181TIP3    H125102   6.247   7.037   1.107  0.2915  1.4764  0.5442
 1181TIP3    H225103   6.360   7.026   1.207 -0.8697  0.7075  1.8062
 1182TIP3   OH225104   2.746   3.984   0.591 -0.4877 -0.8888  0.1453
 1182TIP3    H125105   2.664   4.001   0.637 -0.6077 -1.5531  0.1950
 1182TIP3    H225106   2.785   4.070   0.578 -1.3276 -0.5403 -0.1308
 1183TIP3   OH225107   5.075   2.246   0.884  0.1787 -0.1004 -0.2449
 1183TIP3    H125108   5.059   2.205   0.798  2.1320  1.6442 -1.5510
 1183TIP3    H225109   5.157   2.208   0.914 -0.7666 -1.1086  1.1900
 1184TIP3   OH225110   4.524   3.258   0.056  0.1085 -0.0308 -0.6760
 1184TIP3    H125111   4.506   3.237  -0.036 -0.5552  1.6649 -0.9938
 1184TIP3    H225112   4.588   3.329   0.052 -0.6645  0.7400  0.1106
 1185TIP3   OH225113   5.212   2.787   7.132  0.6817 -0.1205 -1.0159
 1185TIP3    H125114   5.162   2.752   7.059 -1.5075 -0.2259  0.4323
 1185TIP3    H225115   5.247   2.710   7.177  0.0453 -0.2063 -0.6503
 1186TIP3   OH225116   1.254   6.517   6.924 -0.0955  0.2522  0.3375
 1186TIP3    H125117   1.184   6.477   6.975  0.4061 -1.3763 -0.1531
 1186TIP3    H225118   1.334   6.476   6.957  0.3996  0.4233 -0.5955
 1187TIP3   OH225119   6.252   2.493   7.605 -0.2113 -0.3632 -0.1833
 1187TIP3    H125120   6.298   2.491   7.521 -0.8723 -0.2341 -0.5596
 1187TIP3    H225121   6.286   2.570   7.650  1.2560 -1.2579  0.3303
 1188TIP3   OH225122   0.275   2.859   6.392 -0.5628  0.0283 -0.1663
 1188TIP3    H125123   0.277   2.764   6.399 -0.6003  0.0204 -0.2637
 1188TIP3    H225124   0.366   2.886   6.405 -0.8291  0.1203  1.8172
 1189TIP3   OH225125   2.404   2.350   0.552  0.0881  0.2106  0.2208
 1189TIP3    H125126   2.423   2.326   0.642  0.5712 -2.0629 -0.4145
 1189TIP3    H225127   2.491   2.362   0.511 -0.1260  2.3294  0.2678
 1190TIP3   OH225128   4.507   0.141   7.503  0.2778 -0.2201  0.5320
 1190TIP3    H125129   4.561   0.219   7.522  0.6422  0.1988 -1.9676
 1190TIP3    H225130   4.547   0.103   7.425 -0.8624 -2.0459  0.7925
 1191TIP3   OH225131   1.728   0.711   0.017  0.7934  0.0274 -0.3164
 1191TIP3    H125132   1.781   0.785  -0.014 -0.2113  0.1917 -1.7580
 1191TIP3    H225133   1.792   0.649   0.051  1.7759  0.9287 -0.4559
 1192TIP3   OH225134   6.333   1.346   6.009 -0.8154  0.0551 -0.1425
 1192TIP3    H125135   6.319   1.377   5.919  0.9781  0.2677 -0.3908
 1192TIP3    H225136   6.360   1.424   6.057  0.3523 -0.4411  0.0473
 1193TIP3   OH225137   6.795   5.884   1.483  0.4944 -0.7189  0.1343
 1193TIP3    H125138   6.744   5.818   1.436  0.0754 -0.9113  0.8375
 1193TIP3    H225139   6.875   5.895   1.431  0.5737 -1.7772  0.0092
 1194TIP3   OH225140   2.651   1.169   7.512 -0.0265 -0.1856 -0.2888
 1194TIP3    H125141   2.729   1.134   7.470  0.7010  0.6047  0.3815
 1194TIP3    H225142   2.683   1.215   7.589 -1.1426  0.2704 -0.0747
 1195TIP3   OH225143   6.119   3.669   1.027 -0.3148  0.4823  0.1917
 1195TIP3    H125144   6.188   3.708   0.974  0.8912 -0.7138  0.8180
 1195TIP3    H225145   6.089   3.739   1.084  1.2975  0.7021  0.7971
 1196TIP3   OH225146   1.512   5.907   1.061  0.3313  0.2385 -0.0521
 1196TIP3    H125147   1.485   5.816   1.050  0.5054  0.0135  1.3113
 1196TIP3    H225148   1.536   5.935   0.972 -0.1334 -0.8972 -0.5586
 1197TIP3   OH225149   3.239   5.623   0.291 -0.7519  0.1024 -0.4188
 1197TIP3    H125150   3.250   5.547   0.349 -0.5462  0.6029  0.2105
 1197TIP3    H225151   3.197   5.689   0.346  0.8990  1.1411 -0.3527
 1198TIP3   OH225152   2.360   4.066   0.037  0.4539 -0.1126 -0.1551
 1198TIP3    H125153   2.350   4.148  -0.011 -0.0075 -0.0886 -0.0223
 1198TIP3    H225154   2.294   4.071   0.106  1.7488  0.3084  1.1180
 1199TIP3   OH225155   6.873   3.731   0.610  0.1285  0.1875  0.1348
 1199TIP3    H125156   6.875   3.806   0.670  0.3932  0.1805  0.1363
 1199TIP3    H225157   6.864   3.770   0.523  1.9183  0.3285 -0.0341
 1200TIP3   OH225158   4.104   4.523   0.117 -0.0057 -0.2246  0.2871
 1200TIP3    H125159   4.079   4.431   0.107 -2.0755 -0.1103  3.1316
 1200TIP3    H225160   4.093   4.561   0.029  2.8621 -2.9966 -1.4641
 1201TIP3   OH225161   4.523   4.967   6.021 -0.5918  0.3991  0.0878
 1201TIP3    H125162   4.584   4.964   6.094  1.1091  0.4779 -1.2709
 1201TIP3    H225163   4.544   5.048   5.976 -2.7495  1.1884  0.4064
 1202TIP3   OH225164   7.151   0.390   7.302  0.0963  0.5263  0.4645
 1202TIP3    H125165   7.069   0.342   7.292  0.0035  0.7490  0.1528
 1202TIP3    H225166   7.207   0.356   7.233 -0.2823  1.5181 -0.3498
 1203TIP3   OH225167   1.854   3.294   2.372  0.7161  0.3993 -1.1150
 1203TIP3    H125168   1.882   3.348   2.299  1.1360  1.6120 -0.0994
 1203TIP3    H225169   1.919   3.310   2.440  0.1445 -0.4203 -0.3459
 1204TIP3   OH225170   1.349   5.284   0.297 -0.3369 -0.1454 -0.1209
 1204TIP3    H125171   1.260   5.251   0.309 -1.0321  1.5020 -0.5401
 1204TIP3    H225172   1.354   5.306   0.204  0.6459 -0.5574 -0.1795
 1205TIP3   OH225173   3.863   5.926   6.765  0.3633 -0.9356  0.1340
 1205TIP3    H125174   3.808   5.914   6.843  0.3455 -1.4245  0.0488
 1205TIP3    H225175   3.803   5.914   6.691 -0.1551  1.8649  0.0021
 1206TIP3   OH225176   0.963   3.656   0.115 -0.1756 -0.2283 -0.3656
 1206TIP3    H125177   0.999   3.640   0.202  0.2289  1.4344 -0.1922
 1206TIP3    H225178   0.898   3.587   0.102  0.7192 -1.3073  0.6802
 1207TIP3   OH225179   3.410   0.915   1.314  0.6963 -0.4089 -0.2603
 1207TIP3    H125180   3.379   0.832   1.276 -1.0962 -0.6291  1.5166
 1207TIP3    H225181   3.441   0.891   1.401 -2.9805  1.1177  1.6856
 1208TIP3   OH225182   4.072   6.079   6.760 -0.5535  0.8154  0.0622
 1208TIP3    H125183   3.991   6.028   6.755 -0.5324  0.6948  0.8020
 1208TIP3    H225184   4.126   6.032   6.824 -0.0751  1.1369 -0.0980
 1209TIP3   OH225185   0.026   6.364   0.542 -0.3187 -0.4788  0.2463
 1209TIP3    H125186   0.043   6.283   0.590  1.0917 -1.0918 -1.2031
 1209TIP3    H225187   0.111   6.389   0.506 -0.4373  2.3149  1.6000
 1210TIP3   OH225188   6.089   6.118   6.220 -0.1593 -0.0235 -0.2568
 1210TIP3    H125189   6.115   6.199   6.177  0.7826 -0.5546 -0.7543
 1210TIP3    H225190   6.069   6.058   6.147 -2.8535  0.3223  0.1003
 1211TIP3   OH225191   1.776   2.769   7.624  0.2590 -0.4357 -0.1123
 1211TIP3    H125192   1.809   2.745   7.538 -0.2958 -1.1615 -0.1306
 1211TIP3    H225193   1.686   2.737   7.625  0.8446 -2.1673  1.4482
 1212TIP3   OH225194   3.576   5.287   7.646 -0.4118  0.2102 -0.2003
 1212TIP3    H125195   3.613   5.216   7.593 -2.0480 -0.4912 -0.4775
 1212TIP3    H225196   3.645   5.353   7.650  0.3504 -0.4346 -1.8425
 1213TIP3   OH225197   2.058   4.049   0.175 -0.4253  0.1673  0.5700
 1213TIP3    H125198   2.119   3.975   0.177 -0.4222  0.0881 -1.2054
 1213TIP3    H225199   2.036   4.060   0.082 -3.5720 -0.1871  1.1355
 1214TIP3   OH225200   4.488   2.824   7.181  0.2522 -0.5594  0.5260
 1214TIP3    H125201   4.570   2.861   7.214 -0.3156  1.8705 -0.5892
 1214TIP3    H225202   4.496   2.830   7.085 -0.8824 -1.0909  0.3791
 1215TIP3   OH225203   0.160   1.346   8.004  0.0707 -0.0717  0.0008
 1215TIP3    H125204   0.134   1.321   8.092 -0.5862 -0.1900 -0.2225
 1215TIP3    H225205   0.110   1.425   7.986 -1.1892 -1.0600 -0.9516
 1216TIP3   OH225206   2.091   4.025   6.395  0.2404 -0.4820 -0.2246
 1216TIP3    H125207   2.097   4.041   6.489 -2.3057  0.0555 -0.0760
 1216TIP3    H225208   2.075   3.932   6.386 -0.9685 -0.3080 -0.0002
 1217TIP3   OH225209   2.513   0.941   5.845 -0.4561 -0.4250 -0.1897
 1217TIP3    H125210   2.476   1.029   5.851  1.3585  0.3852 -0.0632
 1217TIP3    H225211   2.511   0.921   5.751  0.3809  0.3756 -0.4007
 1218TIP3   OH225212   2.020   4.301   0.344 -0.0863  0.3351  0.4607
 1218TIP3    H125213   2.037   4.375   0.286  1.3217 -0.7482 -0.5887
 1218TIP3    H225214   2.031   4.224   0.289  0.1294 -0.7098  1.8945
 1219TIP3   OH225215   2.416   5.377   7.706 -0.0986 -0.1515 -0.1615
 1219TIP3    H125216   2.407   5.393   7.612 -1.1024 -1.4963 -0.3265
 1219TIP3    H225217   2.465   5.295   7.712 -0.0827 -0.0983  0.4825
 1220TIP3   OH225218   4.020   2.710   0.184 -0.4155  0.5030  0.1524
 1220TIP3    H125219   3.967   2.787   0.208  0.1232  0.1823  2.6015
 1220TIP3    H225220   4.107   2.729   0.218  0.3878 -0.1725 -1.4116
 1221TIP3   OH225221   1.116   0.528   5.790  0.1694  0.2544  0.0336
 1221TIP3    H125222   1.204   0.553   5.761  1.8245 -2.3322  2.4105
 1221TIP3    H225223   1.100   0.444   5.748 -1.3825  0.8196 -0.6056
 1222TIP3   OH225224   3.566   3.909   6.462 -0.2950 -0.6899  0.7932
 1222TIP3    H125225   3.576   3.830   6.407 -0.0414 -0.5593  0.6506
 1222TIP3    H225226   3.631   3.970   6.427  1.0077 -1.1634  2.2497
 1223TIP3   OH225227   3.147   1.940   8.002 -0.2433  0.2023  0.2626
 1223TIP3    H125228   3.200   2.013   8.035 -0.1572  0.1836  0.1667
 1223TIP3    H225229   3.170   1.867   8.059 -0.8265  0.4155  0.7803
 1224TIP3   OH225230   3.697   5.961   7.495 -0.0171  0.7796 -0.1892
 1224TIP3    H125231   3.714   5.872   7.525  0.2185  0.4102 -1.3891
 1224TIP3    H225232   3.755   6.015   7.550 -0.1524  0.2133  0.5342
 1225TIP3   OH225233   6.542   4.531   1.622  0.5402 -0.0109 -0.3370
 1225TIP3    H125234   6.556   4.569   1.708  0.5714 -0.6011 -0.0746
 1225TIP3    H225235   6.470   4.582   1.584 -1.5354 -1.5897  1.2222
 1226TIP3   OH225236   4.551   2.795   6.918 -0.2834  0.1979  0.1897
 1226TIP3    H125237   4.491   2.733   6.875 -1.9389  0.2439  2.2771
 1226TIP3    H225238   4.638   2.761   6.898 -1.0881 -3.2333  1.6867
 1227TIP3   OH225239   5.627   6.925   7.344  0.7194 -0.6567  0.2576
 1227TIP3    H125240   5.571   6.982   7.292  2.3560 -0.1731 -1.0890
 1227TIP3    H225241   5.567   6.865   7.387 -0.8807  0.5035 -0.2486
 1228TIP3   OH225242   1.771   5.000   0.123  0.2810 -0.5511 -0.2600
 1228TIP3    H125243   1.681   4.968   0.128  0.5572 -1.1966  0.9053
 1228TIP3    H225244   1.770   5.062   0.050 -1.3557  0.2398  0.3760
 1229TIP3   OH225245   2.041   6.315   6.440  0.0686  0.2531 -0.1368
 1229TIP3    H125246   2.031   6.394   6.387 -1.1623 -0.2238 -0.6737
 1229TIP3    H225247   2.046   6.244   6.376 -0.2479 -0.2222  0.3548
 1230TIP3   OH225248   6.775   5.221   1.318 -0.1267  0.0828 -0.0237
 1230TIP3    H125249   6.712   5.213   1.246  0.3916 -1.2999 -0.3418
 1230TIP3    H225250   6.800   5.314   1.317 -0.3647  0.1532 -1.4203
 1231TIP3   OH225251   6.294   2.330   0.953 -0.1078  0.0904  0.2600
 1231TIP3    H125252   6.328   2.418   0.972 -0.6891  0.6288 -1.0453
 1231TIP3    H225253   6.363   2.288   0.903 -1.1466  1.1242 -2.2434
 1232TIP3   OH225254   6.337   6.581   7.947  0.0781  0.1969  1.6415
 1232TIP3    H125255   6.414   6.529   7.923  0.9599  2.6872 -1.5495
 1232TIP3    H225256   6.374   6.661   7.986 -1.0836  0.1700  2.8645
 1233TIP3   OH225257   5.438   4.077   5.919  0.4792 -0.1376  0.2231
 1233TIP3    H125258   5.468   3.999   5.965 -1.2696  0.2610  2.2394
 1233TIP3    H225259   5.496   4.085   5.844  1.5974 -2.5583  0.7284
 1234TIP3   OH225260   4.414   6.335   6.885 -0.4836  0.6033  0.3199
 1234TIP3    H125261   4.396   6.328   6.792  0.8250  0.2832  0.0621
 1234TIP3    H225262   4.379   6.255   6.923 -0.3586  0.3899 -0.0125
 1235TIP3   OH225263   4.572   2.842   1.475 -0.0508  0.3573  0.3674
 1235TIP3    H125264   4.611   2.771   1.526  0.4897  0.3468 -0.0465
 1235TIP3    H225265   4.485   2.855   1.513  0.0395 -0.1903  0.7641
 1236TIP3   OH225266   5.132   2.059   1.179 -0.4884  0.2896  0.0543
 1236TIP3    H125267   5.126   1.984   1.238  0.4021  0.9060  0.9675
 1236TIP3    H225268   5.071   2.039   1.108  1.1904 -2.2215 -0.7842
 1237TIP3   OH225269   1.051   3.575   0.696 -0.4559  0.2953  0.0417
 1237TIP3    H125270   1.017   3.664   0.692 -0.1907  0.4104  0.3443
 1237TIP3    H225271   1.062   3.549   0.605 -1.6531  0.1416 -0.0723
 1238TIP3   OH225272   1.863   6.635   1.540  0.1760  0.1227 -0.0571
 1238TIP3    H125273   1.937   6.612   1.596  0.7892  0.0111 -0.8957
 1238TIP3    H225274   1.832   6.719   1.574 -0.6740 -0.8160  1.6184
 1239TIP3   OH225275   2.869   2.566   0.818  0.5054 -0.3242  0.1347
 1239TIP3    H125276   2.922   2.580   0.897  0.3467 -0.7013  0.3092
 1239TIP3    H225277   2.865   2.652   0.777 -0.0673  0.0474  0.9517
 1240TIP3   OH225278   1.813   0.398   5.461 -0.1245 -0.7441  1.1080
 1240TIP3    H125279   1.747   0.456   5.501 -0.5517 -0.9570  0.7203
 1240TIP3    H225280   1.786   0.310   5.487 -0.2343 -0.8618  0.6035
 1241TIP3   OH225281   6.431   2.931   0.699  0.0780 -0.1566  0.0885
 1241TIP3    H125282   6.430   2.892   0.611  1.5897 -2.5891  1.0517
 1241TIP3    H225283   6.341   2.960   0.714 -0.4458 -0.6294 -1.8498
 1242TIP3   OH225284   0.810   0.684   6.706 -0.0549 -0.5582 -0.0739
 1242TIP3    H125285   0.893   0.731   6.714  0.0391 -0.9367  1.4622
 1242TIP3    H225286   0.745   0.751   6.688  0.0930  0.1918  1.9586
 1243TIP3   OH225287   4.738   2.945   7.283  0.2354 -0.4923 -0.0898
 1243TIP3    H125288   4.773   2.874   7.337 -0.6112 -0.8768 -0.0191
 1243TIP3    H225289   4.800   2.953   7.211  1.3562 -0.0045  0.9009
 1244TIP3   OH225290   2.023   4.770   7.404  0.3672  0.2692 -0.6615
 1244TIP3    H125291   2.027   4.680   7.373 -1.2118 -0.1180  0.1374
 1244TIP3    H225292   2.111   4.788   7.438  0.1638 -1.7553  1.1657
 1245TIP3   OH225293   3.449   2.479   7.638  0.4697  0.3582 -0.2453
 1245TIP3    H125294   3.484   2.564   7.665  2.5648 -0.5843  0.2096
 1245TIP3    H225295   3.522   2.419   7.648 -0.1219 -1.0228 -3.1401
 1246TIP3   OH225296   6.874   3.537   6.905 -0.3327  0.1431 -0.0958
 1246TIP3    H125297   6.895   3.627   6.883  2.1432 -0.2603  0.3128
 1246TIP3    H225298   6.783   3.526   6.877 -0.1242  2.1991 -1.8455
 1247TIP3   OH225299   1.372   1.416   0.335  0.1625 -0.5707 -0.1080
 1247TIP3    H125300   1.458   1.411   0.376  0.5573  0.2395 -0.7910
 1247TIP3    H225301   1.384   1.373   0.250 -0.2860 -1.0572  0.0764
 1248TIP3   OH225302   0.813   6.903   6.749  0.0006 -0.4365 -0.2276
 1248TIP3    H125303   0.795   6.952   6.668 -1.6415 -0.0076  0.3522
 1248TIP3    H225304   0.790   6.813   6.727  0.2040 -0.4359 -0.4440
 1249TIP3   OH225305   1.999   2.247   5.583  0.6103 -0.5467 -0.8978
 1249TIP3    H125306   2.018   2.192   5.507 -0.0982 -1.2645 -0.5757
 1249TIP3    H225307   1.904   2.259   5.580  0.7273  0.4093 -0.7901
 1250TIP3   OH225308   5.319   3.616   0.588  0.6380  0.6319 -0.0161
 1250TIP3    H125309   5.349   3.533   0.550  0.8614  0.0389  1.3997
 1250TIP3    H225310   5.306   3.597   0.681 -2.2502  1.3867 -0.1582
 1251TIP3   OH225311   2.736   4.436   1.629  0.4207  0.4047 -0.3074
 1251TIP3    H125312   2.684   4.355   1.635  1.6589 -0.6569 -2.4768
 1251TIP3    H225313   2.807   4.424   1.691  0.4108 -0.0421 -0.3774
 1252TIP3   OH225314   2.659   5.155   6.496 -0.1999 -0.0672 -1.0261
 1252TIP3    H125315   2.729   5.091   6.495 -0.5464 -0.4558 -2.1291
 1252TIP3    H225316   2.667   5.201   6.413 -0.9999  0.1640 -0.9866
 1253TIP3   OH225317   5.918   4.406   7.327 -0.1232  0.0119 -0.6376
 1253TIP3    H125318   6.010   4.384   7.310 -0.4618 -1.7861 -0.3841
 1253TIP3    H225319   5.878   4.407   7.240  0.0462  0.3942 -0.7141
 1254TIP3   OH225320   5.225   1.232   7.137  0.6360  0.0239  0.0721
 1254TIP3    H125321   5.306   1.193   7.171  2.3888  1.2285 -2.4444
 1254TIP3    H225322   5.209   1.308   7.193  1.6651  0.1784  0.1720
 1255TIP3   OH225323   4.535   3.861   6.213 -0.3635 -0.0681  0.1014
 1255TIP3    H125324   4.517   3.950   6.182 -0.0582 -0.0520 -0.0317
 1255TIP3    H225325   4.627   3.846   6.190 -0.4046 -0.4027  0.1581
 1256TIP3   OH225326   5.171   6.506   1.179  1.1770  0.1333  0.0680
 1256TIP3    H125327   5.239   6.459   1.131  1.0624  0.3060 -0.2690
 1256TIP3    H225328   5.092   6.495   1.126  1.2957  1.2461 -0.3514
 1257TIP3   OH225329   3.646   6.203   0.799 -0.1868 -0.0624 -0.5496
 1257TIP3    H125330   3.739   6.186   0.783 -0.3038 -1.8687  0.3915
 1257TIP3    H225331   3.601   6.151   0.733 -0.5242  0.0269 -0.3916
 1258TIP3   OH225332   6.584   5.314   0.460 -0.0042 -0.1726 -0.7841
 1258TIP3    H125333   6.518   5.330   0.393 -0.9866  0.0661  0.2130
 1258TIP3    H225334   6.574   5.221   0.483  2.0020 -0.9378 -2.6783
 1259TIP3   OH225335   3.220   5.545   7.893 -0.5714 -0.1055 -0.0057
 1259TIP3    H125336   3.232   5.575   7.984 -1.7566 -0.7341  0.3755
 1259TIP3    H225337   3.303   5.503   7.871 -0.0060  0.6987  0.5232
 1260TIP3   OH225338   0.195   1.861   1.171 -0.2809 -0.6469 -0.1874
 1260TIP3    H125339   0.169   1.918   1.099 -1.6425  0.9121  1.4474
 1260TIP3    H225340   0.284   1.833   1.149 -1.1942 -1.5889 -3.2432
 1261TIP3   OH225341   2.234   6.712   6.010 -0.5961 -0.0958 -0.5960
 1261TIP3    H125342   2.157   6.730   6.064 -0.2312 -1.3883  0.4083
 1261TIP3    H225343   2.217   6.757   5.927 -1.6205  1.1096  0.2377
 1262TIP3   OH225344   2.601   1.516   0.131 -0.1655 -0.3167 -0.4662
 1262TIP3    H125345   2.616   1.575   0.057  1.7299 -0.4199 -0.2083
 1262TIP3    H225346   2.686   1.477   0.148 -0.5103 -0.1866  1.8860
 1263TIP3   OH225347   5.961   4.540   1.167  1.1426  0.2523 -0.0663
 1263TIP3    H125348   6.013   4.460   1.178 -1.6162 -1.8749 -1.4731
 1263TIP3    H225349   5.912   4.547   1.249 -0.3212 -0.9052 -0.7937
 1264TIP3   OH225350   5.136   1.469   6.440  0.2439 -0.5909 -0.2472
 1264TIP3    H125351   5.114   1.387   6.485  3.2377 -0.0291  2.6713
 1264TIP3    H225352   5.075   1.534   6.476  0.9973 -0.6530  1.2040
 1265TIP3   OH225353   0.294   6.210   7.075  0.8902  0.0418  0.1301
 1265TIP3    H125354   0.271   6.242   6.988  2.2138  0.0531 -0.2386
 1265TIP3    H225355   0.325   6.120   7.061 -1.1913 -0.8564  0.9302
 1266TIP3   OH225356   6.172   4.693   7.669  0.0246  0.3293 -0.0071
 1266TIP3    H125357   6.154   4.771   7.722 -1.0205  0.2404 -0.2028
 1266TIP3    H225358   6.213   4.727   7.590  1.2782  0.4954  0.6926
 1267TIP3   OH225359   5.062   4.315   6.743  0.2573  0.1962  0.1688
 1267TIP3    H125360   5.110   4.357   6.815 -0.7930  0.2519  0.8504
 1267TIP3    H225361   5.107   4.345   6.664  0.5779  1.2515  0.7310
 1268TIP3   OH225362   5.738   0.413   0.630 -0.1405  0.4732 -0.7726
 1268TIP3    H125363   5.693   0.497   0.639 -0.0864  0.3861  0.4017
 1268TIP3    H225364   5.764   0.390   0.719 -0.4417 -0.9457 -1.0332
 1269TIP3   OH225365   0.845   3.526   5.807  0.9818 -0.1245 -0.0691
 1269TIP3    H125366   0.818   3.617   5.818 -1.1753 -0.7961  0.8208
 1269TIP3    H225367   0.866   3.497   5.896 -1.2202 -1.2429  0.1712
 1270TIP3   OH225368   3.078   4.012   1.400 -0.8416  0.1094 -0.0064
 1270TIP3    H125369   3.111   4.069   1.469  1.7748 -1.7037  0.4084
 1270TIP3    H225370   3.130   4.034   1.323 -0.1838 -1.2452  0.0150
 1271TIP3   OH225371   2.840   6.290   0.200  0.3089 -0.1200  0.0327
 1271TIP3    H125372   2.867   6.377   0.231  0.0592 -0.3366  0.8841
 1271TIP3    H225373   2.907   6.231   0.234  0.1053 -0.3486  0.0366
 1272TIP3   OH225374   1.820   5.260   1.310 -0.5035  0.4943 -0.2810
 1272TIP3    H125375   1.737   5.244   1.356 -0.2954 -1.4896 -0.4791
 1272TIP3    H225376   1.859   5.334   1.355 -2.1631  1.1698  0.1278
 1273TIP3   OH225377   6.668   0.804   0.842 -0.4640  0.3046 -0.9443
 1273TIP3    H125378   6.632   0.891   0.825 -0.0139  0.6324 -0.2716
 1273TIP3    H225379   6.762   0.813   0.826  0.1220  0.8237  2.1586
 1274TIP3   OH225380   2.408   1.573   0.371 -0.3075 -0.2225 -0.0453
 1274TIP3    H125381   2.456   1.593   0.291 -0.7859  0.2930 -0.2056
 1274TIP3    H225382   2.420   1.651   0.426 -0.0612 -0.5345  0.3468
 1275TIP3   OH225383   5.285   1.819   1.120  0.7582 -0.0247 -0.3527
 1275TIP3    H125384   5.303   1.912   1.108  2.5412  0.0227  1.8767
 1275TIP3    H225385   5.191   1.810   1.105 -0.4088  3.0158  3.4814
 1276TIP3   OH225386   5.339   3.490   0.063  0.4115  0.0124  0.2792
 1276TIP3    H125387   5.310   3.406   0.027  1.8458  0.0635 -1.1099
 1276TIP3    H225388   5.263   3.524   0.109 -0.3220 -1.8651  0.5450
 1277TIP3   OH225389   1.465   6.412   7.962 -0.0332  0.1322 -0.2324
 1277TIP3    H125390   1.551   6.406   8.003  0.6113 -0.9269 -1.6353
 1277TIP3    H225391   1.469   6.492   7.909 -1.4685  2.4920  2.8881
 1278TIP3   OH225392   4.021   1.291   8.004  0.0377  0.5343 -0.1418
 1278TIP3    H125393   3.941   1.342   7.989 -1.4846 -1.7093 -0.2589
 1278TIP3    H225394   4.015   1.219   7.940  1.2611 -0.6493  1.0224
 1279TIP3   OH225395   0.566   3.436   0.340  0.0029 -0.2197  0.1855
 1279TIP3    H125396   0.539   3.365   0.399  1.3122 -1.5260 -0.7271
 1279TIP3    H225397   0.492   3.447   0.280  1.1132 -3.5539 -2.1159
 1280TIP3   OH225398   1.264   1.878   7.086  0.0206 -0.2191  0.7200
 1280TIP3    H125399   1.225   1.965   7.077  0.6494  0.0150  0.1548
 1280TIP3    H225400   1.260   1.842   6.997 -0.0396 -0.6812  0.9101
 1281TIP3   OH225401   2.058   3.308   7.922 -0.1987  0.1990 -0.2746
 1281TIP3    H125402   2.014   3.379   7.969 -1.6243 -0.6082 -0.3249
 1281TIP3    H225403   2.089   3.249   7.990  0.8620  0.7760 -0.2389
 1282TIP3   OH225404   2.214   5.982   1.763  0.3635 -0.0496  0.7969
 1282TIP3    H125405   2.273   5.929   1.815 -0.7374 -0.8607  1.2670
 1282TIP3    H225406   2.180   6.048   1.824 -0.9580 -1.0249  1.1669
 1283TIP3   OH225407   1.663   6.359   0.439 -0.7413 -0.6564 -0.1040
 1283TIP3    H125408   1.734   6.399   0.491 -1.3440 -0.6855  0.7621
 1283TIP3    H225409   1.587   6.363   0.496 -1.8608  0.8392 -1.6302
 1284TIP3   OH225410   5.110   4.257   0.001 -0.7259 -0.0030 -0.0247
 1284TIP3    H125411   5.152   4.180  -0.038  0.1887 -0.0615  1.0463
 1284TIP3    H225412   5.111   4.323  -0.069  0.3876 -0.2792 -0.2878
 1285TIP3   OH225413   6.457   2.501   7.081 -0.2678 -0.1048  0.8311
 1285TIP3    H125414   6.458   2.553   7.001  0.1609  0.6735  1.3237
 1285TIP3    H225415   6.533   2.443   7.074 -1.1286 -1.1735 -0.0236
 1286TIP3   OH225416   5.126   4.060   6.696 -0.2187  0.3157 -0.5024
 1286TIP3    H125417   5.126   4.143   6.743  1.2311 -0.3902  0.8096
 1286TIP3    H225418   5.098   3.995   6.760 -2.7054 -0.1000 -1.8687
 1287TIP3   OH225419   1.980   5.430   7.425 -0.2542  0.1663 -0.3668
 1287TIP3    H125420   2.054   5.448   7.482  0.5200  0.5814 -1.4736
 1287TIP3    H225421   1.903   5.455   7.476  0.4075  0.3794  0.5384
 1288TIP3   OH225422   0.148   3.613   6.785  0.0717 -0.9977  0.2702
 1288TIP3    H125423   0.107   3.676   6.726 -0.5652 -0.6016  1.1283
 1288TIP3    H225424   0.081   3.547   6.800  0.5238 -1.5540 -0.1153
 1289TIP3   OH225425   5.686   6.981   0.024  0.3024  0.8202  0.2797
 1289TIP3    H125426   5.620   7.027   0.076 -0.2718  2.1909 -1.5657
 1289TIP3    H225427   5.645   6.968  -0.061  2.2075  1.1976 -0.7524
 1290TIP3   OH225428   2.879   3.828   1.475  0.3891  0.3236  0.5154
 1290TIP3    H125429   2.889   3.813   1.569  0.1366  0.8080  0.6232
 1290TIP3    H225430   2.945   3.893   1.454  1.3511 -0.7602  0.0873
 1291TIP3   OH225431   2.293   1.790   1.483 -0.2342 -0.5874  0.0621
 1291TIP3    H125432   2.377   1.766   1.444  0.6067  0.7695  0.9472
 1291TIP3    H225433   2.298   1.756   1.573 -0.9904 -1.2065 -0.1100
 1292TIP3   OH225434   6.245   2.137   0.660 -0.8861 -0.5887  0.1787
 1292TIP3    H125435   6.315   2.153   0.723 -1.3907 -0.5187  0.7235
 1292TIP3    H225436   6.203   2.223   0.649 -0.3540 -0.4373 -0.7970
 1293TIP3   OH225437   6.246   5.815   1.796 -0.3722 -0.1029  0.7312
 1293TIP3    H125438   6.171   5.836   1.851  0.5308  0.4486  1.7853
 1293TIP3    H225439   6.271   5.726   1.821  0.5399  0.4479  1.8188
 1294TIP3   OH225440   3.096   0.482   0.716  0.1216  0.0770 -0.0194
 1294TIP3    H125441   3.110   0.458   0.807  0.4263 -1.1744 -0.3680
 1294TIP3    H225442   3.089   0.577   0.716 -2.2730 -0.0263  1.6190
 1295TIP3   OH225443   1.421   2.881   0.186 -0.1645  0.9563 -0.3930
 1295TIP3    H125444   1.443   2.877   0.280 -0.5218  1.0943 -0.3030
 1295TIP3    H225445   1.505   2.871   0.142  0.0605  1.3008 -0.0500
 1296TIP3   OH225446   1.797   0.692   7.708  0.5013  0.1441 -0.0391
 1296TIP3    H125447   1.786   0.712   7.615  2.0791 -0.4525 -0.3843
 1296TIP3    H225448   1.771   0.600   7.716  0.4345  0.1750  0.1013
 1297TIP3   OH225449   0.597   5.035   6.715 -0.1340  0.4047  0.0740
 1297TIP3    H125450   0.561   4.948   6.702  1.9979 -0.5340  0.0255
 1297TIP3    H225451   0.681   5.034   6.670  0.7238  1.9222  1.4794
 1298TIP3   OH225452   2.767   2.323   0.893  0.3282  0.2075  0.3190
 1298TIP3    H125453   2.825   2.391   0.861  1.7973 -0.5243  1.3311
 1298TIP3    H225454   2.747   2.349   0.983 -0.9429  0.4441 -0.0073
 1299TIP3   OH225455   2.795   6.779   5.597  0.8642  0.1448 -0.3060
 1299TIP3    H125456   2.756   6.866   5.590  1.5613  0.6288  1.4650
 1299TIP3    H225457   2.852   6.772   5.521  0.5565  1.0971 -0.6360
 1300TIP3   OH225458   0.400   6.800   6.144  0.1842 -0.0156  0.1643
 1300TIP3    H125459   0.411   6.711   6.112  0.5624 -0.8166  2.3729
 1300TIP3    H225460   0.305   6.810   6.156  0.2292 -0.5464  1.0079
 1301TIP3   OH225461   6.822   3.047   0.432 -0.4373 -0.0413 -0.0538
 1301TIP3    H125462   6.820   3.013   0.521 -0.4466 -0.9926 -0.4099
 1301TIP3    H225463   6.806   3.141   0.442 -1.5142 -0.3017  0.8597
 1302TIP3   OH225464   5.413   4.661   0.835  0.2330 -0.1554  0.2193
 1302TIP3    H125465   5.431   4.755   0.849 -1.8243  0.2169  0.7156
 1302TIP3    H225466   5.478   4.634   0.770  0.6993  1.6839 -0.1512
 1303TIP3   OH225467   3.659   2.167   6.581  0.1611  0.4044  0.2265
 1303TIP3    H125468   3.670   2.215   6.664 -2.5246  1.8733 -0.1505
 1303TIP3    H225469   3.717   2.212   6.519  2.6556 -1.0686  1.2965
 1304TIP3   OH225470   4.317   5.004   6.208  0.7022 -0.0305  0.3286
 1304TIP3    H125471   4.349   4.927   6.254 -2.1010 -0.8614  1.1078
 1304TIP3    H225472   4.355   4.997   6.121  2.7483 -0.7136  1.2060
 1305TIP3   OH225473   4.221   6.817   5.935  0.3255 -0.1773  0.8384
 1305TIP3    H125474   4.178   6.748   5.986 -0.7997 -0.2424 -0.1398
 1305TIP3    H225475   4.150   6.879   5.916  0.6964 -0.1804 -0.6600
 1306TIP3   OH225476   3.150   3.910   0.337  0.2069 -0.1134 -0.5282
 1306TIP3    H125477   3.148   3.861   0.255  0.8008  0.9347 -1.1912
 1306TIP3    H225478   3.138   4.001   0.312  3.1367  0.6003  0.1892
 1307TIP3   OH225479   4.618   5.385   7.022  0.1630  0.1173 -0.1441
 1307TIP3    H125480   4.533   5.429   7.017  0.9131  1.8567  1.3479
 1307TIP3    H225481   4.674   5.433   6.962  0.4960 -0.0703  0.0119
 1308TIP3   OH225482   4.969   2.935   0.636  0.1468 -0.1122 -0.2195
 1308TIP3    H125483   5.018   3.018   0.635 -0.6490  0.3865  0.8363
 1308TIP3    H225484   4.982   2.900   0.724 -0.6968 -0.4043 -0.2033
 1309TIP3   OH225485   4.247   5.853   7.942 -0.0717 -0.5956 -0.1346
 1309TIP3    H125486   4.265   5.767   7.981  1.3368 -0.0904  0.3721
 1309TIP3    H225487   4.266   5.842   7.849 -0.3742 -0.9530 -0.1575
 1310TIP3   OH225488   4.016   2.099   7.169 -0.1259 -0.0131  0.4936
 1310TIP3    H125489   3.922   2.119   7.164 -0.1489 -0.4405 -1.7532
 1310TIP3    H225490   4.055   2.178   7.205 -1.2600  0.5369  0.5676
 1311TIP3   OH225491   5.644   6.270   0.404 -0.7201 -0.2725  0.2967
 1311TIP3    H125492   5.637   6.355   0.361 -2.1825  0.0920  1.1845
 1311TIP3    H225493   5.728   6.235   0.374 -0.6520  0.9362 -1.0409
 1312TIP3   OH225494   5.550   5.040   5.890  0.2376 -0.1735  0.0435
 1312TIP3    H125495   5.480   5.010   5.832 -0.3590 -1.9277  1.5726
 1312TIP3    H225496   5.631   5.010   5.848  0.0464  0.9287 -1.1847
 1313TIP3   OH225497   0.719   3.190   7.846  0.4787  0.2298 -0.1194
 1313TIP3    H125498   0.810   3.200   7.817 -0.2968  1.9183 -2.3381
 1313TIP3    H225499   0.686   3.279   7.849 -0.6826 -0.2250  2.3455
 1314TIP3   OH225500   2.132   2.638   7.774 -0.1037  0.0091  0.0061
 1314TIP3    H125501   2.085   2.574   7.829  0.4101 -0.3405  0.0485
 1314TIP3    H225502   2.104   2.723   7.807 -2.4200 -0.1272 -1.3962
 1315TIP3   OH225503   0.497   3.067   0.276 -0.2653 -0.1005 -0.5835
 1315TIP3    H125504   0.573   3.031   0.322  0.4786  0.1350 -1.5695
 1315TIP3    H225505   0.519   3.057   0.183 -1.2089  0.4738 -0.8873
 1316TIP3   OH225506   4.563   5.853   0.877  0.4152  0.5194 -0.1166
 1316TIP3    H125507   4.483   5.872   0.827  1.5790  1.3202 -1.7959
 1316TIP3    H225508   4.549   5.766   0.914 -0.5884 -0.0834 -1.7856
 1317TIP3   OH225509   0.919   4.147   1.018 -0.4250  0.0138 -0.7107
 1317TIP3    H125510   0.922   4.186   1.105  1.4770 -1.5653  0.0042
 1317TIP3    H225511   0.929   4.221   0.958  3.9838  0.7868  0.5888
 1318TIP3   OH225512   2.292   4.644   0.064 -0.0193  0.2008  0.4654
 1318TIP3    H125513   2.289   4.716   0.001 -1.5834  0.2198  0.5100
 1318TIP3    H225514   2.373   4.597   0.044 -0.7187 -0.1082 -1.9388
 1319TIP3   OH225515   1.141   1.885   7.723  0.1334 -0.2231  0.3205
 1319TIP3    H125516   1.150   1.884   7.628 -1.1468 -2.3241  0.1744
 1319TIP3    H225517   1.169   1.973   7.748  1.0353  0.2006 -1.9196
 1320TIP3   OH225518   6.445   5.374   7.964 -0.5486  0.0238  0.4092
 1320TIP3    H125519   6.492   5.345   7.886 -1.1148 -1.9851  0.7726
 1320TIP3    H225520   6.357   5.340   7.954 -1.5700  2.4301  0.4727
 1321TIP3   OH225521   3.426   4.530   7.203  0.5999  0.0357  0.0822
 1321TIP3    H125522   3.498   4.562   7.148  1.0038 -0.8113  0.1074
 1321TIP3    H225523   3.360   4.599   7.198  1.5144  0.9496  0.2525
 1322TIP3   OH225524   0.625   3.926   7.704  0.1496 -0.4108  0.2390
 1322TIP3    H125525   0.535   3.956   7.710  0.2620 -0.2848  1.6627
 1322TIP3    H225526   0.627   3.847   7.759  1.1263  0.1856  1.1024
 1323TIP3   OH225527   0.711   7.087   6.932 -0.0779 -0.1794  0.3628
 1323TIP3    H125528   0.676   7.030   7.001 -0.5204 -1.1240 -0.6129
 1323TIP3    H225529   0.704   7.035   6.852  3.1902 -0.2894  0.0135
 1324TIP3   OH225530   6.812   1.675   6.809 -0.2882 -0.0289  0.0021
 1324TIP3    H125531   6.860   1.611   6.757 -0.2769 -0.1106  0.1113
 1324TIP3    H225532   6.874   1.702   6.877 -0.4113 -0.1710  0.1717
 1325TIP3   OH225533   1.772   1.318   0.708  0.1881  0.1421 -0.0744
 1325TIP3    H125534   1.699   1.315   0.771  1.5284 -2.1029  1.5316
 1325TIP3    H225535   1.848   1.340   0.761  1.0954 -0.0713 -1.2461
 1326TIP3   OH225536   5.572   5.518   5.818  0.3366  0.4855  0.4820
 1326TIP3    H125537   5.532   5.444   5.773  1.8690 -0.2396  0.2457
 1326TIP3    H225538   5.656   5.531   5.773  0.8115  1.3369  1.5595
 1327TIP3   OH225539   2.813   2.034   6.986  0.3122 -0.0446  0.1276
 1327TIP3    H125540   2.838   1.958   7.040 -0.2089  0.4736  1.1220
 1327TIP3    H225541   2.739   2.072   7.032  1.2111  1.6952  0.2130
 1328TIP3   OH225542   0.305   0.540   7.173  0.3637  0.0033 -0.1280
 1328TIP3    H125543   0.341   0.459   7.209  0.1595  0.3785  0.9428
 1328TIP3    H225544   0.242   0.570   7.239 -1.4061 -0.2481 -1.6046
 1329TIP3   OH225545   0.917   6.696   0.977  0.0557  0.0074  0.5398
 1329TIP3    H125546   0.865   6.755   0.923 -0.3164 -0.1144  0.7603
 1329TIP3    H225547   0.854   6.660   1.039  0.3258 -0.4533  0.5451
 1330TIP3   OH225548   1.853   2.613   1.165 -0.0333  0.1102  0.5216
 1330TIP3    H125549   1.835   2.550   1.234  2.2110 -0.3893  0.7409
 1330TIP3    H225550   1.875   2.560   1.089 -0.6507  0.6537 -0.0503
 1331TIP3   OH225551   3.187   5.478   1.323  0.2624 -0.3787 -0.0583
 1331TIP3    H125552   3.272   5.522   1.326  0.4349 -0.6740 -0.5727
 1331TIP3    H225553   3.123   5.548   1.333  0.5178  0.0662 -1.3636
 1332TIP3   OH225554   0.615   5.930   1.529 -0.2252 -0.0215 -0.1436
 1332TIP3    H125555   0.570   6.014   1.532 -0.3215 -0.0783 -0.0102
 1332TIP3    H225556   0.701   5.948   1.567 -0.5518 -0.1753  0.6891
 1333TIP3   OH225557   3.447   6.554   7.729 -0.5364  0.2719  0.2730
 1333TIP3    H125558   3.423   6.514   7.813  0.5458 -2.2142 -0.5062
 1333TIP3    H225559   3.395   6.507   7.664  1.3676 -0.4754 -0.7761
 1334TIP3   OH225560   6.909   3.199   7.319 -0.1743  0.3224  0.6904
 1334TIP3    H125561   6.938   3.151   7.396  0.1037  1.7281  1.4961
 1334TIP3    H225562   6.990   3.224   7.274 -0.2987  0.3298  0.4697
 1335TIP3   OH225563   5.986   0.046   0.485  0.2266 -0.0170  0.0501
 1335TIP3    H125564   5.982   0.141   0.499 -0.9323 -0.1571  0.9063
 1335TIP3    H225565   6.013   0.036   0.394 -0.7783  1.1708 -0.4159
 1336TIP3   OH225566   0.291   1.860   7.868 -0.3060 -0.2335 -0.4352
 1336TIP3    H125567   0.283   1.836   7.960  1.2319 -2.2715 -0.7559
 1336TIP3    H225568   0.276   1.779   7.820  0.3487  0.4597 -1.8861
 1337TIP3   OH225569   5.530   1.567   1.129 -0.0170 -0.0061 -0.3464
 1337TIP3    H125570   5.543   1.481   1.091 -0.8043 -0.3601  0.1555
 1337TIP3    H225571   5.456   1.604   1.081  1.7377  1.3735 -2.1694
 1338TIP3   OH225572   1.791   2.282   1.936 -0.0931  0.1069  0.2371
 1338TIP3    H125573   1.753   2.335   2.005 -1.8517 -0.3307 -0.3397
 1338TIP3    H225574   1.860   2.337   1.898 -0.7523  1.3139  0.7377
 1339TIP3   OH225575   0.011   5.202   0.908  0.4176  0.5760 -0.1150
 1339TIP3    H125576   0.070   5.195   0.834  0.8204  0.5523  0.2032
 1339TIP3    H225577  -0.063   5.145   0.886  0.5780  0.4997 -0.4539
 1340TIP3   OH225578   0.380   6.936   0.621 -0.6625  0.4918 -0.4074
 1340TIP3    H125579   0.388   6.926   0.715  0.3160  0.1121 -0.5271
 1340TIP3    H225580   0.397   7.029   0.606  0.7347  0.2651 -0.3513
 1341TIP3   OH225581   3.526   6.573   6.249 -0.6540 -0.9718  0.2920
 1341TIP3    H125582   3.438   6.535   6.248 -1.1474  0.1285  0.0791
 1341TIP3    H225583   3.545   6.588   6.342 -1.0532 -0.4110  0.2838
 1342TIP3   OH225584   5.959   1.188   1.127  0.1555  0.5107 -0.5040
 1342TIP3    H125585   5.876   1.201   1.173 -0.6631 -1.8532 -1.1440
 1342TIP3    H225586   6.016   1.145   1.191  0.1715  0.2576 -0.6877
 1343TIP3   OH225587   5.936   2.015   1.667  0.1133 -0.0095  0.2093
 1343TIP3    H125588   5.890   2.084   1.717 -0.5275 -0.3984  0.1681
 1343TIP3    H225589   5.870   1.982   1.606  0.2734 -0.9906  0.5513
 1344TIP3   OH225590   6.980   5.501   0.748 -0.4055 -0.0848 -0.3022
 1344TIP3    H125591   6.982   5.506   0.844 -0.5747 -0.1801 -0.2923
 1344TIP3    H225592   6.901   5.550   0.724  0.6026  1.5363 -0.5090
 1345TIP3   OH225593   0.778   2.175   6.824  0.0973  0.3096  0.4544
 1345TIP3    H125594   0.817   2.250   6.779  0.7139 -0.0152  0.4430
 1345TIP3    H225595   0.685   2.197   6.830 -0.1767  0.0157 -1.7063
 1346TIP3   OH225596   0.106   4.639   6.491 -0.3622  0.1619  0.1800
 1346TIP3    H125597   0.160   4.651   6.413 -0.8733 -0.4439 -0.2749
 1346TIP3    H225598   0.162   4.590   6.551  0.4205  1.5642  0.6301
 1347TIP3   OH225599   6.835   6.005   6.262 -0.1471 -0.3004 -0.5615
 1347TIP3    H125600   6.813   6.026   6.171 -1.4611 -0.4869 -0.3143
 1347TIP3    H225601   6.751   6.010   6.308  0.6266  0.6378  0.8183
 1348TIP3   OH225602   1.322   4.873   6.285 -0.1004 -0.8737  0.4305
 1348TIP3    H125603   1.409   4.875   6.245 -0.2997  2.0412 -0.0923
 1348TIP3    H225604   1.334   4.913   6.371 -0.5578 -2.5982  1.3403
 1349TIP3   OH225605   3.244   1.205   5.804 -0.2049  0.0843 -0.1210
 1349TIP3    H125606   3.307   1.278   5.811 -0.8067  0.4771  1.7697
 1349TIP3    H225607   3.290   1.140   5.752  0.3169  1.8477 -1.9966
 1350TIP3   OH225608   3.167   6.426   2.368  0.5991 -0.4814  0.0243
 1350TIP3    H125609   3.226   6.501   2.364  0.4214 -0.3486 -0.1075
 1350TIP3    H225610   3.225   6.352   2.388  0.7555 -0.2905  0.2850
 1351TIP3   OH225611   5.507   3.506   0.270  0.6441 -0.0943  0.1339
 1351TIP3    H125612   5.472   3.454   0.343 -1.7105  1.8148  0.4603
 1351TIP3    H225613   5.452   3.483   0.196  0.6045  0.7572 -0.1062
 1352TIP3   OH225614   0.616   1.970   7.740 -0.0859 -0.1161 -0.3732
 1352TIP3    H125615   0.609   1.981   7.645  0.5157 -1.4320 -0.5823
 1352TIP3    H225616   0.580   2.051   7.775 -1.8450 -0.2619 -1.6896
 1353TIP3   OH225617   6.958   0.181   6.369 -0.0916  0.3133  0.1630
 1353TIP3    H125618   6.997   0.165   6.283 -0.7238  1.3396 -0.3305
 1353TIP3    H225619   6.864   0.169   6.356 -0.3459  1.9302  0.3335
 1354TIP3   OH225620   1.264   6.782   2.139 -0.1874  0.6544 -0.5916
 1354TIP3    H125621   1.295   6.853   2.084  0.3766  0.1185 -0.9799
 1354TIP3    H225622   1.341   6.728   2.155 -0.2964  0.9010  0.8957
 1355TIP3   OH225623   6.096   0.597   7.809  0.3673  1.1150  0.0471
 1355TIP3    H125624   6.023   0.560   7.859  1.9982 -0.0975  1.6811
 1355TIP3    H225625   6.065   0.600   7.719 -1.8435  1.0760  0.7487
 1356TIP3   OH225626   3.769   3.945   0.824 -0.2843  0.6983  0.5535
 1356TIP3    H125627   3.859   3.926   0.849 -0.0359  1.0732 -0.0348
 1356TIP3    H225628   3.754   4.035   0.855 -0.6539  0.4269  1.1746
 1357TIP3   OH225629   0.122   7.118   7.261  0.5185  0.3857  0.0503
 1357TIP3    H125630   0.059   7.102   7.190  1.2250 -0.9497 -0.3041
 1357TIP3    H225631   0.113   7.042   7.318  1.1120  0.6695  0.5263
 1358TIP3   OH225632   3.637   2.792   7.925 -0.2964  0.0931 -0.6495
 1358TIP3    H125633   3.567   2.789   7.860  0.8433  3.2127 -2.1957
 1358TIP3    H225634   3.599   2.840   7.998 -0.0250  1.1934 -1.2120
 1359TIP3   OH225635   5.335   4.959   6.720 -0.0843  0.0486  0.3093
 1359TIP3    H125636   5.364   4.913   6.799  1.0697  2.4035  1.3527
 1359TIP3    H225637   5.411   5.009   6.692 -1.2781  1.3993 -0.6876
 1360TIP3   OH225638   1.073   0.444   1.766 -0.4738 -0.2100  0.2815
 1360TIP3    H125639   1.006   0.376   1.765 -0.8697  0.1272  1.5204
 1360TIP3    H225640   1.024   0.526   1.775  0.0672  0.0945  0.5483
 1361TIP3   OH225641   0.228   6.440   6.928  0.4093  0.0640  0.8610
 1361TIP3    H125642   0.318   6.472   6.943  0.5208 -0.7712  2.1149
 1361TIP3    H225643   0.189   6.506   6.871  1.1964  1.4938  1.9084
 1362TIP3   OH225644   1.500   4.279   7.580  0.5948 -0.3292 -0.3298
 1362TIP3    H125645   1.516   4.295   7.487  2.7783  1.6340  0.2927
 1362TIP3    H225646   1.537   4.192   7.596 -0.7972 -1.1698 -1.4649
 1363TIP3   OH225647   4.015   3.405   5.740 -0.1266  0.5743 -0.1355
 1363TIP3    H125648   4.068   3.481   5.763  2.1828 -1.1923  0.7862
 1363TIP3    H225649   4.074   3.330   5.751 -2.2960 -1.3818 -0.9414
 1364TIP3   OH225650   1.649   0.823   6.478  0.8460 -0.3205 -0.7583
 1364TIP3    H125651   1.660   0.813   6.384  0.7444  2.3881 -1.1218
 1364TIP3    H225652   1.681   0.911   6.497  0.0943 -0.4983  1.6194
 1365TIP3   OH225653   2.913   5.433   0.525  0.4968  0.7665 -0.6697
 1365TIP3    H125654   2.879   5.517   0.493 -1.3171  0.3150 -0.0763
 1365TIP3    H225655   2.900   5.373   0.452  0.0853  0.6189 -0.4807
 1366TIP3   OH225656   0.047   2.770   0.089  0.3829 -0.2000  0.0532
 1366TIP3    H125657   0.080   2.820   0.015 -0.1589 -0.6514 -0.5033
 1366TIP3    H225658  -0.042   2.801   0.102  0.5993  0.1536  0.7779
 1367TIP3   OH225659   1.227   3.122   0.721  0.1045  0.2322  0.3077
 1367TIP3    H125660   1.170   3.198   0.734 -1.4680 -0.8413  0.0385
 1367TIP3    H225661   1.220   3.073   0.802  0.1891 -0.1992  0.0547
 1368TIP3   OH225662   3.497   1.242   0.744  0.8256 -0.9453 -0.1111
 1368TIP3    H125663   3.554   1.276   0.813  0.4537  1.3578 -0.8554
 1368TIP3    H225664   3.437   1.183   0.789  1.2810 -0.3517  1.3353
 1369TIP3   OH225665   0.189   1.451   0.500 -0.0063  0.1131  0.5026
 1369TIP3    H125666   0.283   1.460   0.480  0.0407  0.6938  0.9290
 1369TIP3    H225667   0.147   1.517   0.445 -0.3263 -1.0532 -0.6983
 1370TIP3   OH225668   3.580   2.287   7.987 -0.8029 -0.6772 -0.2745
 1370TIP3    H125669   3.609   2.318   7.901  0.1333 -1.6026 -0.3283
 1370TIP3    H225670   3.551   2.365   8.033 -2.1690 -0.2703 -1.7327
 1371TIP3   OH225671   1.697   5.202   0.793 -0.1782  0.0122  0.2572
 1371TIP3    H125672   1.683   5.172   0.883  1.2900 -0.2471  0.4150
 1371TIP3    H225673   1.791   5.193   0.778 -0.2266  1.1214 -0.9312
 1372TIP3   OH225674   3.335   7.101   0.951  0.4345  0.1009 -0.2011
 1372TIP3    H125675   3.309   7.137   0.867  2.2836  1.6430 -0.1766
 1372TIP3    H225676   3.297   7.160   1.016  0.5906  0.0043 -0.0196
 1373TIP3   OH225677   0.894   5.681   2.067 -0.6777 -0.0286  0.2688
 1373TIP3    H125678   0.949   5.751   2.033  0.4258 -1.5054 -1.1158
 1373TIP3    H225679   0.806   5.719   2.069 -0.0623  1.4902 -0.1230
 1374TIP3   OH225680   2.633   2.611   7.198 -0.1129 -0.0507  0.0034
 1374TIP3    H125681   2.567   2.627   7.266 -0.6091  0.1538 -0.5143
 1374TIP3    H225682   2.653   2.697   7.162 -0.5646 -0.2497 -0.7503
 1375TIP3   OH225683   6.578   5.011   7.847  0.4785 -0.7608 -0.5529
 1375TIP3    H125684   6.533   4.991   7.929  1.4640 -1.9924 -0.2843
 1375TIP3    H225685   6.508   5.013   7.782 -0.3283  0.2982  0.3012
 1376TIP3   OH225686   1.805   6.318   7.919 -0.0275  0.4408 -0.0126
 1376TIP3    H125687   1.740   6.327   7.850  0.9265  2.8881 -0.6647
 1376TIP3    H225688   1.758   6.271   7.989 -1.2638 -1.3445 -1.9117
 1377TIP3   OH225689   5.822   1.498   5.947  0.4175 -0.5177  0.9388
 1377TIP3    H125690   5.877   1.477   5.870 -1.9091  0.1997 -1.0447
 1377TIP3    H225691   5.816   1.415   5.995 -1.2657 -2.1953 -1.8712
 1378TIP3   OH225692   6.686   7.041   7.698 -0.2687  0.2059  0.1545
 1378TIP3    H125693   6.699   7.126   7.656 -0.4107 -0.9349 -2.3779
 1378TIP3    H225694   6.595   7.019   7.678 -0.4841 -0.1938  1.5153
 1379TIP3   OH225695   4.103   6.748   6.620  0.8199  0.5683 -0.1944
 1379TIP3    H125696   4.174   6.768   6.681  0.7244 -0.7941  0.4090
 1379TIP3    H225697   4.103   6.652   6.614 -1.3131  0.4884  0.2547
 1380TIP3   OH225698   4.532   3.729   0.189 -0.0484 -0.4283 -0.0443
 1380TIP3    H125699   4.495   3.802   0.237  1.6833  0.8206 -0.5032
 1380TIP3    H225700   4.627   3.736   0.203  0.2358 -2.0034 -0.8989
 1381TIP3   OH225701   5.064   1.370   1.534  0.7508  0.3974  0.2454
 1381TIP3    H125702   5.059   1.441   1.598 -2.8043  1.3566 -0.8680
 1381TIP3    H225703   5.051   1.413   1.450 -0.8048 -1.4187 -0.5184
 1382TIP3   OH225704   2.484   0.988   6.552  0.6175 -0.0804  0.2178
 1382TIP3    H125705   2.542   1.014   6.480 -0.6837  0.5118 -0.6674
 1382TIP3    H225706   2.399   1.024   6.528 -0.0982 -0.8090  1.5390
 1383TIP3   OH225707   2.718   1.709   7.056  0.1932  0.0222 -0.3933
 1383TIP3    H125708   2.797   1.763   7.047  1.4251 -1.5734  0.2838
 1383TIP3    H225709   2.647   1.772   7.066  1.3343  1.5275 -1.2642
 1384TIP3   OH225710   2.452   3.006   6.992  0.2281  0.1891 -0.0877
 1384TIP3    H125711   2.422   2.945   6.925 -2.1965  1.9745 -0.7590
 1384TIP3    H225712   2.530   3.047   6.954 -0.0522 -0.1283 -1.0282
 1385TIP3   OH225713   7.088   3.105   1.386  0.1219  0.8020  0.2049
 1385TIP3    H125714   7.072   3.072   1.298 -2.5572 -2.5307  1.6754
 1385TIP3    H225715   7.183   3.102   1.397  0.3620 -1.2009 -1.7494
 1386TIP3   OH225716   2.982   2.298   0.629  0.0689 -0.5243  0.1016
 1386TIP3    H125717   3.068   2.334   0.648  0.0747  1.1450 -2.5658
 1386TIP3    H225718   2.921   2.368   0.653 -0.5160 -1.3679  1.1630
 1387TIP3   OH225719   2.678   2.748   6.810  0.0734 -0.4344 -0.5544
 1387TIP3    H125720   2.713   2.718   6.894 -0.8214 -2.3214 -0.7859
 1387TIP3    H225721   2.698   2.841   6.807  0.2296 -0.3351  1.6959
 1388TIP3   OH225722   4.959   3.466   1.098 -0.4168  0.3150 -0.0495
 1388TIP3    H125723   4.905   3.443   1.174  0.9957 -0.2226  0.8382
 1388TIP3    H225724   4.995   3.382   1.068  0.1048  0.6904 -0.4795
 1389TIP3   OH225725   4.317   0.266   7.684  0.1707  0.0863  0.2940
 1389TIP3    H125726   4.339   0.234   7.596 -0.5351  2.3831 -0.8228
 1389TIP3    H225727   4.222   0.262   7.687  0.0744  1.7328  0.1914
 1390TIP3   OH225728   3.383   1.679   0.359  0.6612  0.3154  0.5158
 1390TIP3    H125729   3.453   1.732   0.396  1.2031  0.8257 -1.1530
 1390TIP3    H225730   3.330   1.653   0.434  0.7025  2.7358  1.4405
 1391TIP3   OH225731   1.731   2.176   0.108  0.9857  0.2045  0.0514
 1391TIP3    H125732   1.762   2.089   0.082 -0.5976 -0.3519 -0.0856
 1391TIP3    H225733   1.693   2.212   0.028  0.8132  0.6511  0.3352
 1392TIP3   OH225734   1.178   0.378   6.610  0.0645 -0.1157  0.6524
 1392TIP3    H125735   1.272   0.360   6.599  0.1146 -0.8273  2.0717
 1392TIP3    H225736   1.174   0.471   6.632 -0.0695  1.6289 -5.0415
 1393TIP3   OH225737   5.511   2.371   1.514 -0.2572 -0.1252 -0.4591
 1393TIP3    H125738   5.461   2.429   1.456 -1.9089 -1.6810 -0.6906
 1393TIP3    H225739   5.567   2.430   1.563  0.3463  1.3828 -2.7700
 1394TIP3   OH225740   6.559   6.042   1.833 -0.1398 -0.2162 -0.0802
 1394TIP3    H125741   6.572   5.957   1.790  0.6106 -0.7638  1.1310
 1394TIP3    H225742   6.614   6.036   1.912  1.7752  2.2807 -1.1154
 1395TIP3   OH225743   5.152   3.093   7.471 -0.1811 -1.0623  0.4813
 1395TIP3    H125744   5.197   3.060   7.393  3.2308 -1.1835  2.3231
 1395TIP3    H225745   5.118   3.014   7.514 -1.1607 -1.0907 -0.3143
 1396TIP3   OH225746   4.002   6.990   6.723 -0.5259  0.3069  0.3684
 1396TIP3    H125747   3.938   6.957   6.786 -0.5084 -0.5771 -0.0697
 1396TIP3    H225748   4.026   6.914   6.670  1.3591  0.4487  0.9229
 1397TIP3   OH225749   4.217   1.346   0.928  0.2075 -0.4172  0.9355
 1397TIP3    H125750   4.254   1.312   0.846 -1.2794  0.2037 -0.0472
 1397TIP3    H225751   4.284   1.330   0.993  1.9892  0.2310 -0.6509
 1398TIP3   OH225752   5.758   4.035   6.773 -0.5992  0.4219  0.3464
 1398TIP3    H125753   5.740   3.941   6.764 -1.0488  0.3689  1.6128
 1398TIP3    H225754   5.853   4.039   6.786 -0.4858  0.2098 -0.3434
 1399TIP3   OH225755   1.789   3.333   6.978 -0.0689 -0.2426 -0.7442
 1399TIP3    H125756   1.696   3.344   6.999 -0.1347 -0.6932 -0.8023
 1399TIP3    H225757   1.825   3.286   7.053  0.3296  0.8179 -0.2520
 1400TIP3   OH225758   5.403   2.138   7.420 -0.1138  0.8634  0.0819
 1400TIP3    H125759   5.316   2.166   7.392 -0.3182 -0.3292 -0.5398
 1400TIP3    H225760   5.449   2.117   7.339 -0.3642 -1.6351  0.5083
 1401TIP3   OH225761   3.934   2.422   6.818 -0.3186  0.4075 -0.0072
 1401TIP3    H125762   3.883   2.453   6.894  0.2708  0.4964  0.3632
 1401TIP3    H225763   3.906   2.331   6.806 -1.9709  1.0046 -1.0171
 1402TIP3   OH225764   6.431   5.680   0.790  0.8039 -0.0157  0.0994
 1402TIP3    H125765   6.451   5.766   0.754 -1.5642  0.7887  0.4858
 1402TIP3    H225766   6.470   5.681   0.877  0.2798  0.9343  0.3409
 1403TIP3   OH225767   1.764   0.185   1.585 -0.2778 -0.2128  0.0861
 1403TIP3    H125768   1.786   0.105   1.537 -2.8564 -1.3780  0.6883
 1403TIP3    H225769   1.802   0.171   1.672 -1.2943 -1.1650  0.4100
 1404TIP3   OH225770   6.693   1.945   7.748  0.1602  0.1250  0.3398
 1404TIP3    H125771   6.741   1.995   7.681  1.4934 -1.4013  0.0856
 1404TIP3    H225772   6.646   1.879   7.698 -0.0239 -0.0915  0.8006
 1405TIP3   OH225773   6.312   4.864   0.815  0.0229 -0.4696  0.6532
 1405TIP3    H125774   6.361   4.877   0.896  1.7118  0.3433 -0.4387
 1405TIP3    H225775   6.229   4.911   0.830  0.7809  0.6683  1.5091
 1406TIP3   OH225776   1.044   2.270   0.911  0.3465 -0.1865 -0.3964
 1406TIP3    H125777   0.989   2.247   0.986  1.1295 -0.5429  0.0872
 1406TIP3    H225778   1.020   2.206   0.844  0.2582 -0.4230 -0.1436
 1407TIP3   OH225779   0.658   2.468   1.004 -0.1987 -0.1821 -0.0030
 1407TIP3    H125780   0.593   2.498   0.940 -0.5536  0.5988  0.6976
 1407TIP3    H225781   0.688   2.548   1.047 -0.0753 -0.7045  0.9120
 1408TIP3   OH225782   3.650   6.662   6.528 -0.3001  0.3020  0.5007
 1408TIP3    H125783   3.656   6.672   6.623 -0.5657 -0.6958  0.6333
 1408TIP3    H225784   3.716   6.596   6.506  0.2706  1.0520 -0.1129
 1409TIP3   OH225785   5.303   3.768   6.350  0.4587  0.3264  0.5856
 1409TIP3    H125786   5.331   3.759   6.259  1.4011 -2.4883  1.0644
 1409TIP3    H225787   5.281   3.861   6.359 -0.1847  0.6187 -2.6333
 1410TIP3   OH225788   2.222   4.716   6.477 -0.1514  0.6944 -0.0900
 1410TIP3    H125789   2.164   4.776   6.430 -1.0151  1.5104  1.8833
 1410TIP3    H225790   2.226   4.638   6.422 -3.0831  0.6353 -0.3911
 1411TIP3   OH225791   6.314   5.264   7.292 -0.2127 -0.4746  0.3654
 1411TIP3    H125792   6.331   5.334   7.229  0.8805 -0.9866  0.0705
 1411TIP3    H225793   6.250   5.207   7.248 -1.7546  0.7264  0.9279
 1412TIP3   OH225794   2.557   7.084   6.243  0.0773  0.3452  0.2841
 1412TIP3    H125795   2.514   7.016   6.191  0.3579  1.7191 -1.8612
 1412TIP3    H225796   2.489   7.151   6.257 -0.3589 -0.5054  2.8462
 1413TIP3   OH225797   5.628   2.230   1.147 -0.3087  0.0021  0.3999
 1413TIP3    H125798   5.696   2.221   1.213  2.2329  2.1916 -1.7098
 1413TIP3    H225799   5.622   2.143   1.107  0.5953 -0.4455  1.2115
 1414TIP3   OH225800   5.200   4.893   0.686 -0.1715 -0.4982  0.3340
 1414TIP3    H125801   5.194   4.931   0.598  0.5005  0.7318  0.7968
 1414TIP3    H225802   5.280   4.931   0.723 -1.2282  0.2002  2.0155
 1415TIP3   OH225803   2.855   1.810   0.149  0.1167 -0.5779 -0.2729
 1415TIP3    H125804   2.846   1.754   0.072  0.0104 -2.6149  1.1570
 1415TIP3    H225805   2.766   1.842   0.166  0.3021  0.7209 -1.5378
 1416TIP3   OH225806   1.378   6.229   0.815  0.1961 -0.0131 -0.0948
 1416TIP3    H125807   1.286   6.205   0.815  0.1243  0.0746  2.2045
 1416TIP3    H225808   1.386   6.292   0.743 -1.1133 -1.3512 -1.4952
 1417TIP3   OH225809   6.545   0.488   7.581 -0.7397 -0.2801  0.2976
 1417TIP3    H125810   6.486   0.413   7.572 -0.1399 -0.7731  0.4082
 1417TIP3    H225811   6.513   0.534   7.659 -0.5214 -0.9732  0.8099
 1418TIP3   OH225812   6.236   2.381   7.887 -0.4056 -0.3778  0.2458
 1418TIP3    H125813   6.207   2.327   7.813 -0.2984 -0.1311  0.0241
 1418TIP3    H225814   6.227   2.471   7.856  0.4051 -0.2876  0.2464
 1419TIP3   OH225815   2.307   5.451   6.368 -0.1270  0.1594 -0.2411
 1419TIP3    H125816   2.381   5.435   6.426  0.7273 -0.3040 -1.4128
 1419TIP3    H225817   2.346   5.461   6.281 -1.3715  0.7380 -0.7601
 1420TIP3   OH225818   6.211   1.783   1.403 -0.0269 -0.4868  0.3882
 1420TIP3    H125819   6.145   1.756   1.338  0.7810 -1.6111  0.0016
 1420TIP3    H225820   6.178   1.748   1.486  0.0692 -1.0447  0.1956
 1421TIP3   OH225821   5.408   1.004   1.508  1.0243 -0.4595  0.2534
 1421TIP3    H125822   5.367   0.924   1.477  0.8122  0.0712 -0.9290
 1421TIP3    H225823   5.339   1.049   1.557  0.2505  0.2563 -1.4101
 1422TIP3   OH225824   4.833   2.170   6.303 -0.8357 -0.2978  1.2337
 1422TIP3    H125825   4.776   2.246   6.319 -0.6068  0.1858 -0.0983
 1422TIP3    H225826   4.894   2.201   6.236  0.2120 -1.2009  1.7606
 1423TIP3   OH225827   0.292   1.082   1.811 -0.3530 -0.0903  0.1473
 1423TIP3    H125828   0.235   1.125   1.875 -1.0806  1.3676 -1.3949
 1423TIP3    H225829   0.371   1.135   1.810 -0.3484 -0.1032 -0.1632
 1424TIP3   OH225830   6.768   2.259   7.035  0.8228 -0.0269 -0.5948
 1424TIP3    H125831   6.720   2.228   7.111  2.0531  0.9895  0.6645
 1424TIP3    H225832   6.705   2.312   6.986  0.0277 -0.6568 -0.2617
 1425TIP3   OH225833   0.545   5.695   6.924 -0.1923 -0.3344  0.3345
 1425TIP3    H125834   0.484   5.718   6.994 -0.2845  2.2425 -0.5158
 1425TIP3    H225835   0.489   5.652   6.858 -0.6611 -0.0755  0.5539
 1426TIP3   OH225836   1.584   2.117   7.731  0.5407  0.0193 -0.3322
 1426TIP3    H125837   1.670   2.104   7.769  0.6694 -1.3395 -1.0265
 1426TIP3    H225838   1.592   2.085   7.641 -0.8861 -0.8776 -0.1698
 1427TIP3   OH225839   5.213   3.004   1.699 -0.0156 -0.2858  0.1898
 1427TIP3    H125840   5.281   3.023   1.634  0.3191 -1.2878  0.2336
 1427TIP3    H225841   5.261   2.994   1.781 -0.6184  3.1548  1.1326
 1428TIP3   OH225842   2.383   2.601   0.387 -0.4107  0.3809 -0.2505
 1428TIP3    H125843   2.393   2.638   0.299  1.3064  1.4963  0.3703
 1428TIP3    H225844   2.463   2.551   0.401 -1.0488 -0.4994  0.3750
 1429TIP3   OH225845   2.661   6.096   7.799 -0.2374 -0.2411 -0.3237
 1429TIP3    H125846   2.703   6.015   7.771  3.0997  1.0259  0.5694
 1429TIP3    H225847   2.685   6.105   7.891  0.1797  2.1006 -0.5979
 1430TIP3   OH225848   2.342   2.688   0.829  0.4487  0.1542 -0.1577
 1430TIP3    H125849   2.264   2.633   0.842  0.4162 -0.0846 -1.2019
 1430TIP3    H225850   2.414   2.625   0.826  0.7159  0.3968  1.0352
 1431TIP3   OH225851   1.337   6.017   2.246 -0.5625  0.4047 -0.0862
 1431TIP3    H125852   1.400   6.009   2.175 -0.6483  1.9551 -0.3746
 1431TIP3    H225853   1.266   6.071   2.210 -0.7311  1.0030  1.0807
 1432TIP3   OH225854   5.550   2.940   1.037 -0.0276  0.2175 -0.0226
 1432TIP3    H125855   5.492   2.868   1.013 -0.3130  0.2170  0.6364
 1432TIP3    H225856   5.624   2.933   0.978 -0.5044 -0.0435 -0.5917
 1433TIP3   OH225857   3.777   2.229   0.809 -0.6635 -0.5151 -1.0410
 1433TIP3    H125858   3.762   2.135   0.804 -0.0346 -0.6996  0.2605
 1433TIP3    H225859   3.859   2.238   0.858 -1.7725  0.7590  0.6876
 1434TIP3   OH225860   4.149   2.806   6.153  0.8139  0.3074  0.0028
 1434TIP3    H125861   4.128   2.826   6.244  0.4443 -0.1799  0.0331
 1434TIP3    H225862   4.130   2.887   6.105 -1.5115 -0.1866 -0.0164
 1435TIP3   OH225863   2.742   4.094   6.236 -0.1111  0.3291  0.0275
 1435TIP3    H125864   2.691   4.068   6.312 -0.4314 -3.2270 -1.2191
 1435TIP3    H225865   2.686   4.076   6.161  1.7983 -0.7097 -1.2481
 1436TIP3   OH225866   6.869   4.637   5.865  0.6363  0.3488 -0.2970
 1436TIP3    H125867   6.875   4.720   5.913 -2.3298 -0.6057  1.9977
 1436TIP3    H225868   6.784   4.640   5.821 -1.0874 -2.5633  2.4134
 1437TIP3   OH225869   6.234   6.026   1.634  0.0950  0.2878  0.2840
 1437TIP3    H125870   6.304   5.999   1.574  0.3304  0.9625  0.2467
 1437TIP3    H225871   6.228   5.955   1.698  1.1461  0.4373  0.5662
 1438TIP3   OH225872   1.238   5.505   7.785 -0.7604 -0.1083  0.2681
 1438TIP3    H125873   1.253   5.567   7.857  0.2045  0.4806 -0.4164
 1438TIP3    H225874   1.162   5.454   7.813 -1.1642  0.9345  1.1553
 1439TIP3   OH225875   3.303   4.689   0.857  0.3469 -0.6247  0.3303
 1439TIP3    H125876   3.383   4.641   0.837  2.6804  1.6253  3.2942
 1439TIP3    H225877   3.256   4.633   0.920 -0.6189 -2.0052 -1.5141
 1440TIP3   OH225878   5.420   1.541   2.423 -0.3953 -0.1292  0.5969
 1440TIP3    H125879   5.379   1.460   2.451 -2.3216  0.1786 -1.0644
 1440TIP3    H225880   5.349   1.606   2.426 -0.1762  0.4011 -2.5118
 1441TIP3   OH225881   4.434   5.390   7.500  0.2420 -0.4039 -0.6514
 1441TIP3    H125882   4.386   5.365   7.421  0.1980 -2.3249 -0.0655
 1441TIP3    H225883   4.505   5.325   7.506  0.0669 -0.4700  1.0193
 1442TIP3   OH225884   1.857   1.875   6.277  0.3806 -0.4700 -0.4601
 1442TIP3    H125885   1.937   1.892   6.227  1.0742 -0.6607  0.5444
 1442TIP3    H225886   1.832   1.960   6.313  1.3134 -0.7301  0.8932
 1443TIP3   OH225887   0.387   3.457   7.534  0.3028 -0.3637 -0.4126
 1443TIP3    H125888   0.380   3.450   7.629 -1.2465 -1.1138 -0.5522
 1443TIP3    H225889   0.405   3.368   7.504  0.4655 -0.1928 -0.8422
 1444TIP3   OH225890   3.717   3.464   7.517  0.4371  0.0448  0.8740
 1444TIP3    H125891   3.738   3.381   7.475 -1.7657  0.1298 -0.5128
 1444TIP3    H225892   3.654   3.441   7.585 -1.1330  0.6858 -0.3267
 1445TIP3   OH225893   4.325   4.333   7.731 -0.3000 -0.2192 -0.2032
 1445TIP3    H125894   4.252   4.273   7.750  0.0660 -1.1059 -1.4365
 1445TIP3    H225895   4.313   4.406   7.792 -2.5995 -0.0270 -0.7909
 1446TIP3   OH225896   6.811   0.005   0.562 -0.6323  0.0700  0.5088
 1446TIP3    H125897   6.748   0.050   0.507 -0.4927  0.3267  0.5541
 1446TIP3    H225898   6.828  -0.078   0.518 -1.2524 -0.1461  0.6725
 1447TIP3   OH225899   1.539   6.619   7.804  0.3166 -0.2287 -0.1055
 1447TIP3    H125900   1.597   6.609   7.728  1.0674 -0.3243  0.4729
 1447TIP3    H225901   1.543   6.713   7.825  0.7120 -0.3395  0.2961
 1448TIP3   OH225902   7.073   3.169   7.738  0.5384  0.2915 -0.3071
 1448TIP3    H125903   7.167   3.181   7.750  0.6891 -1.3463  0.3742
 1448TIP3    H225904   7.038   3.158   7.827 -0.3746  1.3276 -0.5190
 1449TIP3   OH225905   6.751   3.833   6.500 -0.0805  0.0834  0.2889
 1449TIP3    H125906   6.741   3.801   6.410  0.6233 -0.1068  0.2691
 1449TIP3    H225907   6.746   3.928   6.492 -1.1010  0.0380  0.2002
 1450TIP3   OH225908   3.433   5.356   6.186  0.2919  0.2531  0.7531
 1450TIP3    H125909   3.338   5.353   6.197  0.0789  2.2486 -0.2018
 1450TIP3    H225910   3.468   5.328   6.270 -1.1147 -1.2192  0.8964
 1451TIP3   OH225911   4.735   6.626   1.182 -0.4650  0.0403  0.3075
 1451TIP3    H125912   4.727   6.640   1.277 -1.1388 -1.1826  0.4475
 1451TIP3    H225913   4.651   6.588   1.157 -0.3474  0.4986 -0.8247
 1452TIP3   OH225914   1.440   5.061   6.814  0.5452  0.6171 -0.1496
 1452TIP3    H125915   1.451   5.010   6.734  0.0493  2.6749 -1.6169
 1452TIP3    H225916   1.513   5.035   6.870  1.1742 -0.5444 -1.4671
 1453TIP3   OH225917   3.924   1.818   0.294  0.6338  0.2712  0.0095
 1453TIP3    H125918   3.933   1.908   0.263 -0.5536  0.0415 -1.0779
 1453TIP3    H225919   3.834   1.794   0.274  0.7195 -0.9263  0.9451
 1454TIP3   OH225920   2.403   3.185   7.921  0.3645 -0.1647  0.0707
 1454TIP3    H125921   2.498   3.195   7.923  0.3922 -0.4298  0.1505
 1454TIP3    H225922   2.384   3.148   7.835  0.1016  2.0692 -0.9123
 1455TIP3   OH225923   5.445   3.022   6.150 -0.0686  0.3890 -0.6566
 1455TIP3    H125924   5.434   3.033   6.055 -0.8176 -1.0506 -0.7518
 1455TIP3    H225925   5.472   3.109   6.180  0.6817  0.7537 -2.2508
 1456TIP3   OH225926   4.539   0.593   1.012 -0.1916 -0.0389  0.2909
 1456TIP3    H125927   4.456   0.560   0.977 -0.6282 -0.2099  1.4646
 1456TIP3    H225928   4.560   0.535   1.085  1.7435 -0.9225 -0.8839
 1457TIP3   OH225929   3.688   1.963   0.688 -0.4634 -0.0630 -0.3404
 1457TIP3    H125930   3.644   1.924   0.613  0.1167 -2.1702  0.3654
 1457TIP3    H225931   3.781   1.947   0.673 -0.3187 -0.2755  0.6914
 1458TIP3   OH225932   5.313   4.082   7.652 -0.0085  0.3050  0.3709
 1458TIP3    H125933   5.296   3.992   7.628 -1.1474  0.2180  1.4196
 1458TIP3    H225934   5.401   4.100   7.618  0.1824 -1.1489  0.0518
 1459TIP3   OH225935   1.790   5.098   6.577 -0.6737  0.2034 -0.2189
 1459TIP3    H125936   1.763   5.178   6.621  1.4708  1.1866 -0.5999
 1459TIP3    H225937   1.857   5.060   6.633  0.4510  0.2739 -1.4472
 1460TIP3   OH225938   5.823   4.151   6.309  0.0152  0.1922  0.3136
 1460TIP3    H125939   5.743   4.149   6.257  0.5455  0.8180 -0.5391
 1460TIP3    H225940   5.874   4.223   6.273  0.9995 -0.2395  0.7977
 1461TIP3   OH225941   5.749   4.775   6.084  0.1324 -0.1401  0.3691
 1461TIP3    H125942   5.809   4.755   6.012 -0.6607  2.5218 -1.1749
 1461TIP3    H225943   5.709   4.691   6.106  0.2499 -1.0450 -2.4652
 1462TIP3   OH225944   3.223   2.283   1.588  0.0539  0.0186 -0.4433
 1462TIP3    H125945   3.315   2.308   1.601 -0.0432  0.0328  0.2212
 1462TIP3    H225946   3.175   2.334   1.653 -0.1652 -1.8020  0.9078
 1463TIP3   OH225947   3.944   2.930   5.517 -0.2661  0.0334  0.5128
 1463TIP3    H125948   3.874   2.865   5.513 -0.8247  0.6716 -0.1696
 1463TIP3    H225949   4.024   2.878   5.508 -0.5840 -0.7835  2.0341
 1464TIP3   OH225950   4.599   1.713   1.428  0.0425 -0.2645  0.3877
 1464TIP3    H125951   4.664   1.779   1.450  1.0860 -1.2533  0.3461
 1464TIP3    H225952   4.593   1.658   1.507 -2.1501  0.8979  1.1140
 1465TIP3   OH225953   7.129   6.291   0.878  0.0382 -0.3929  0.0980
 1465TIP3    H125954   7.092   6.372   0.913 -0.7494  0.0715 -1.7012
 1465TIP3    H225955   7.099   6.223   0.938 -3.1715  0.0654 -0.7854
 1466TIP3   OH225956   6.181   5.772   0.857  0.1207 -0.1500  0.3056
 1466TIP3    H125957   6.237   5.716   0.804 -0.4265 -0.5491  0.1498
 1466TIP3    H225958   6.178   5.855   0.810  0.1017 -0.3177  0.0114
 1467TIP3   OH225959   4.220   0.694   0.780  0.4843 -0.3882 -0.1197
 1467TIP3    H125960   4.221   0.781   0.820  1.4098 -0.3492 -0.1929
 1467TIP3    H225961   4.254   0.708   0.692  1.2192 -0.9054  0.0706
 1468TIP3   OH225962   1.255   3.076   1.102  0.6864  0.4959 -0.5517
 1468TIP3    H125963   1.312   3.127   1.161 -0.3867  0.4254  0.6035
 1468TIP3    H225964   1.268   2.985   1.129  0.5177  0.4247 -0.7092
 1469TIP3   OH225965   3.461   3.526   5.784  0.0701 -0.4964  0.0719
 1469TIP3    H125966   3.444   3.574   5.703 -0.4688  1.9480  1.5394
 1469TIP3    H225967   3.375   3.514   5.823  0.4217 -0.7209  0.7848
 1470TIP3   OH225968   5.522   0.430   6.227 -0.0729  0.4400  0.3502
 1470TIP3    H125969   5.486   0.350   6.266 -1.2403  0.5924 -0.3711
 1470TIP3    H225970   5.506   0.420   6.133 -0.0692  1.4449  0.2345
 1471TIP3   OH225971   2.495   4.708   6.157 -0.0783 -0.3770  0.1381
 1471TIP3    H125972   2.558   4.738   6.222 -0.8896  0.6479  0.4750
 1471TIP3    H225973   2.548   4.686   6.080  0.7134  0.2001  0.5076
 1472TIP3   OH225974   0.167   2.396   7.551 -0.8278  0.5420 -0.0390
 1472TIP3    H125975   0.236   2.367   7.492 -0.5633  3.1051 -1.1307
 1472TIP3    H225976   0.125   2.316   7.580  2.7098 -1.1621  0.8810
 1473TIP3   OH225977   4.336   2.422   0.710 -0.6787 -0.5089 -0.1141
 1473TIP3    H125978   4.303   2.334   0.696  1.6199 -1.3971 -0.3130
 1473TIP3    H225979   4.406   2.412   0.775  0.4955  0.9335 -1.0725
 1474TIP3   OH225980   3.235   4.274   6.721 -0.0192  0.5448 -0.2941
 1474TIP3    H125981   3.255   4.252   6.812 -2.3674  2.5736  0.8370
 1474TIP3    H225982   3.154   4.226   6.702  2.2662 -2.8241 -2.7354
 1475TIP3   OH225983   3.798   4.750   7.764  0.2658  0.8455 -0.2231
 1475TIP3    H125984   3.727   4.700   7.804  0.5205  0.7887  0.1581
 1475TIP3    H225985   3.774   4.755   7.672 -0.5134  1.2905 -0.0067
 1476TIP3   OH225986   2.801   2.838   1.370 -0.4474 -0.2181  0.4542
 1476TIP3    H125987   2.740   2.870   1.304 -0.1478 -0.3133  0.1270
 1476TIP3    H225988   2.808   2.909   1.433  1.0112  0.8349 -0.7977
 1477TIP3   OH225989   5.057   4.063   1.120 -0.2292 -0.2596 -0.0511
 1477TIP3    H125990   5.031   4.109   1.200  1.0139 -0.3437  0.4223
 1477TIP3    H225991   5.021   4.116   1.049 -1.7196 -0.4113  0.5499
 1478TIP3   OH225992   0.605   1.020   6.675 -0.3870 -0.1365  0.3734
 1478TIP3    H125993   0.678   1.003   6.615 -1.5874  0.4037 -1.3113
 1478TIP3    H225994   0.589   0.936   6.718 -0.5050 -0.9913 -1.2556
 1479TIP3   OH225995   3.459   6.750   7.508  0.4040  0.2316 -1.1045
 1479TIP3    H125996   3.398   6.822   7.527 -0.7057 -0.4949 -1.8063
 1479TIP3    H225997   3.456   6.695   7.587  1.0388  0.7904 -0.6811
 1480TIP3   OH225998   4.418   2.804   7.537  0.5982 -0.3431  0.4293
 1480TIP3    H125999   4.358   2.843   7.600  0.6607 -1.2243  1.0510
 1480TIP3    H226000   4.462   2.878   7.496 -1.0942  0.3597 -0.2347
 1481TIP3   OH226001   5.311   6.248   0.616 -0.2931  0.0290  0.2559
 1481TIP3    H126002   5.348   6.221   0.701  1.1256 -0.3173 -0.4425
 1481TIP3    H226003   5.341   6.181   0.555 -3.5243 -1.2473 -0.1216
 1482TIP3   OH226004   4.470   0.465   6.517 -0.5515 -0.4286 -0.1617
 1482TIP3    H126005   4.498   0.557   6.518 -1.5295 -0.0995  1.4772
 1482TIP3    H226006   4.512   0.427   6.595  0.2353 -1.5267 -1.0830
 1483TIP3   OH226007   3.488   4.474   0.905 -0.1560 -0.2961  0.1538
 1483TIP3    H126008   3.516   4.447   0.993 -0.0684 -2.4350 -0.4913
 1483TIP3    H226009   3.403   4.432   0.893  0.3391 -0.9604 -1.1945
 1484TIP3   OH226010   4.740   1.596   6.684 -0.0535  0.0724 -0.1059
 1484TIP3    H126011   4.805   1.628   6.621  1.5753  0.3546  1.6290
 1484TIP3    H226012   4.722   1.506   6.655  0.5248  0.2546 -1.0821
 1485TIP3   OH226013   2.673   2.901   6.037 -0.2540  0.3199  0.1182
 1485TIP3    H126014   2.749   2.842   6.041 -1.0738 -0.6914  1.8498
 1485TIP3    H226015   2.703   2.981   6.081 -0.3772 -0.3327  1.4247
 1486TIP3   OH226016   0.397   3.247   1.112  0.6005 -0.1346 -0.2984
 1486TIP3    H126017   0.386   3.336   1.146 -1.4925 -0.5817  0.3596
 1486TIP3    H226018   0.318   3.231   1.061 -0.3445 -2.4560  1.6918
 1487TIP3   OH226019   0.365   2.130   1.386  0.0488 -0.0735 -0.6724
 1487TIP3    H126020   0.314   2.087   1.455 -1.5792 -2.6318 -3.1915
 1487TIP3    H226021   0.442   2.074   1.375  2.4503  2.4874  1.5117
 1488TIP3   OH226022   3.911   1.168   6.964 -0.0958  0.9875 -0.7177
 1488TIP3    H126023   3.973   1.229   6.924  1.3385 -0.7437 -1.2609
 1488TIP3    H226024   3.954   1.140   7.045 -0.1383 -0.2355 -1.0994
 1489TIP3   OH226025   6.563   1.481   6.858  0.1379  0.1693 -0.5341
 1489TIP3    H126026   6.575   1.387   6.870 -1.1856  0.0845  0.3497
 1489TIP3    H226027   6.649   1.519   6.876  0.3401 -0.7544  0.5511
 1490TIP3   OH226028   1.528   2.952   7.707  0.4469 -0.2322  0.4042
 1490TIP3    H126029   1.542   2.858   7.715 -0.2449 -0.4808 -0.9896
 1490TIP3    H226030   1.470   2.961   7.631 -0.4283  1.2446  1.2005
 1491TIP3   OH226031   5.488   2.208   0.785 -0.0064 -0.4221  0.1784
 1491TIP3    H126032   5.460   2.285   0.736  1.0193  0.1685  0.4937
 1491TIP3    H226033   5.560   2.172   0.734 -0.0431 -0.7884  0.3789
 1492TIP3   OH226034   4.462   2.234   2.099 -0.6338 -0.0142  0.0622
 1492TIP3    H126035   4.428   2.181   2.028 -1.4709  0.4702  0.0832
 1492TIP3    H226036   4.437   2.324   2.077  1.6059  0.5351 -0.4722
 1493TIP3   OH226037   3.531   0.913   6.610  0.5282 -0.3421 -0.2859
 1493TIP3    H126038   3.543   0.936   6.518  0.6259  0.6694 -0.0274
 1493TIP3    H226039   3.437   0.904   6.620  0.5297 -0.6598 -0.5285
 1494TIP3   OH226040   3.813   5.585   0.858 -0.0875  0.8540  0.2287
 1494TIP3    H126041   3.726   5.624   0.845  0.2835  1.8836  0.7831
 1494TIP3    H226042   3.866   5.620   0.786 -0.3226 -0.4221 -0.5992
 1495TIP3   OH226043   4.221   4.191   1.076 -0.0680  1.0134  0.4402
 1495TIP3    H126044   4.257   4.106   1.052  0.1642  0.7361  1.6993
 1495TIP3    H226045   4.176   4.175   1.159  1.1332  2.3890  1.3908
 1496TIP3   OH226046   2.524   1.955   1.621  0.4799 -0.0329 -0.8000
 1496TIP3    H126047   2.464   1.895   1.665 -0.2099  0.1645 -1.4435
 1496TIP3    H226048   2.475   2.037   1.616  1.9687  1.0959  1.4557
 1497TIP3   OH226049   6.511   5.532   7.317 -0.3745  0.0668  0.2268
 1497TIP3    H126050   6.426   5.568   7.293  0.1728  1.0062 -0.3772
 1497TIP3    H226051   6.573   5.602   7.296  0.5241 -0.5367  0.8298
 1498TIP3   OH226052   0.374   3.830   6.650  0.1527 -0.6016  0.2684
 1498TIP3    H126053   0.361   3.764   6.582  0.3714 -0.2710 -0.1027
 1498TIP3    H226054   0.415   3.783   6.722 -0.6075 -1.0796  0.3994
 1499TIP3   OH226055   0.208   3.150   1.505  0.1743 -0.2235 -0.5410
 1499TIP3    H126056   0.260   3.073   1.482  2.8148  1.5741 -1.0888
 1499TIP3    H226057   0.216   3.157   1.600 -0.1674 -0.6884 -0.4787
 1500TIP3   OH226058   2.166   1.330   7.881 -0.3486 -0.4697  0.4106
 1500TIP3    H126059   2.119   1.413   7.883  0.9615  0.6174 -3.5416
 1500TIP3    H226060   2.245   1.346   7.933 -1.0418 -0.0088  1.3596
 1501TIP3   OH226061   6.257   6.734   7.251  0.4979 -0.0329  0.3480
 1501TIP3    H126062   6.223   6.702   7.335  1.5891  0.0590  0.8319
 1501TIP3    H226063   6.296   6.819   7.271 -1.8016  1.4235 -0.8082
 1502TIP3   OH226064   2.046   0.148   6.211 -1.0592  0.0055  0.0298
 1502TIP3    H126065   2.044   0.239   6.180 -0.1956 -0.0454 -0.2155
 1502TIP3    H226066   2.138   0.123   6.203 -1.1902 -0.6982  0.6697
 1503TIP3   OH226067   1.886   1.989   0.788  0.4209  0.0352 -0.0213
 1503TIP3    H126068   1.953   1.975   0.721  0.7453  0.2701  0.2538
 1503TIP3    H226069   1.915   1.938   0.863  0.8951  1.0666  0.5029
 1504TIP3   OH226070   1.761   3.733   1.077 -0.6684 -0.0099  0.2713
 1504TIP3    H126071   1.804   3.787   1.143  1.4878  0.4009 -1.3599
 1504TIP3    H226072   1.700   3.793   1.034 -0.2148  0.4190  0.2132
 1505TIP3   OH226073   6.715   4.927   0.445 -0.3153 -0.4122 -0.1749
 1505TIP3    H126074   6.648   4.968   0.391 -0.0685 -0.8428 -0.8209
 1505TIP3    H226075   6.669   4.905   0.527 -0.2112  1.9954  0.5904
 1506TIP3   OH226076   1.692   0.684   5.864 -0.0490  0.2703 -0.1659
 1506TIP3    H126077   1.725   0.751   5.924  1.6833 -1.4623  0.9406
 1506TIP3    H226078   1.738   0.604   5.890  2.0560 -0.3003 -4.8238
 1507TIP3   OH226079   0.136   5.131   7.463 -0.3497 -0.0784  0.0095
 1507TIP3    H126080   0.045   5.149   7.489 -0.1775  1.4707 -0.3166
 1507TIP3    H226081   0.166   5.214   7.424  1.3251 -0.4340  0.4594
 1508TIP3   OH226082   0.811   3.902   1.392  0.6890  0.1292 -0.3674
 1508TIP3    H126083   0.757   3.934   1.464 -0.8785 -0.9121 -1.0186
 1508TIP3    H226084   0.751   3.900   1.317  1.2232 -2.3633 -0.8111
 1509TIP3   OH226085   2.061   1.892   0.320  0.4373 -0.0740 -0.1156
 1509TIP3    H126086   2.146   1.926   0.291  0.3938  2.0121  1.8835
 1509TIP3    H226087   2.000   1.963   0.300 -0.4781 -0.7527  0.2290
 1510TIP3   OH226088   6.001   5.386   6.722 -0.1303  0.8228 -0.3557
 1510TIP3    H126089   5.952   5.460   6.685 -0.8175  1.0061  0.8610
 1510TIP3    H226090   6.026   5.415   6.810 -1.4174 -0.7928  0.6024
 1511TIP3   OH226091   4.291   3.969   6.044 -0.3306  0.3103  1.3172
 1511TIP3    H126092   4.371   4.016   6.064 -0.2042  1.1779 -0.9356
 1511TIP3    H226093   4.304   3.936   5.955 -1.5734 -1.5350  1.7523
 1512TIP3   OH226094   5.826   1.620   7.859 -0.1188  0.8037 -0.3015
 1512TIP3    H126095   5.776   1.649   7.783  0.2466 -0.9749 -1.2885
 1512TIP3    H226096   5.781   1.541   7.889  0.3734  0.8704  0.6415
 1513TIP3   OH226097   6.585   4.635   7.360 -0.0874 -0.2176 -0.5459
 1513TIP3    H126098   6.616   4.563   7.416 -0.0286 -1.3508 -1.9539
 1513TIP3    H226099   6.642   4.709   7.382  0.4713 -0.8736  0.2892
 1514TIP3   OH226100   4.351   6.651   6.695 -0.4067  0.3276  0.0421
 1514TIP3    H126101   4.428   6.594   6.701 -1.4000 -0.9792  1.2750
 1514TIP3    H226102   4.277   6.591   6.692 -1.3855  1.4950 -2.9968
 1515TIP3   OH226103   3.391   3.660   7.813  0.7425 -0.1347  0.4399
 1515TIP3    H126104   3.382   3.611   7.732  1.4034  1.1297 -0.4262
 1515TIP3    H226105   3.315   3.634   7.865 -0.3250 -0.1099 -1.0417
 1516TIP3   OH226106   6.959   6.242   6.088  0.4921  0.3048 -0.0944
 1516TIP3    H126107   7.030   6.276   6.033  0.3841 -0.3657 -0.6680
 1516TIP3    H226108   6.925   6.166   6.039  0.8561 -0.7464  1.2298
 1517TIP3   OH226109   3.428   4.141   7.127  0.0484 -0.3889 -0.6261
 1517TIP3    H126110   3.437   4.080   7.054 -0.1168 -2.6668  1.1789
 1517TIP3    H226111   3.513   4.140   7.170 -0.3735 -0.4161  0.2200
 1518TIP3   OH226112   7.034   1.805   0.160  0.7184 -0.2976  0.3141
 1518TIP3    H126113   6.992   1.738   0.106 -0.7627 -0.1594  1.2040
 1518TIP3    H226114   6.963   1.835   0.218  1.7388  0.9630  0.9460
 1519TIP3   OH226115   0.043   5.612   7.997 -0.2869 -0.0731  0.1263
 1519TIP3    H126116  -0.002   5.619   7.913  0.3533  0.1016 -0.2086
 1519TIP3    H226117   0.034   5.520   8.021 -0.1798 -0.1999 -0.3031
 1520TIP3   OH226118   2.904   3.878   6.422 -0.1088  0.1440 -0.4025
 1520TIP3    H126119   3.000   3.883   6.429 -0.1628  0.3202  0.2776
 1520TIP3    H226120   2.875   3.969   6.427 -0.3445  0.0519 -0.0940
 1521TIP3   OH226121   1.693   1.360   1.262 -0.5737  0.3260  0.1101
 1521TIP3    H126122   1.602   1.383   1.241  0.0172  0.5180 -2.6672
 1521TIP3    H226123   1.720   1.304   1.189  0.8471 -1.7644  2.0947
 1522TIP3   OH226124   2.741   0.493   7.477  0.0290 -0.2600  0.1876
 1522TIP3    H126125   2.728   0.581   7.513  0.1041 -0.5430  0.9176
 1522TIP3    H226126   2.737   0.435   7.553 -1.6167 -1.0595 -0.4553
 1523TIP3   OH226127   5.002   3.522   5.781 -0.1016  0.1852 -0.6685
 1523TIP3    H126128   5.087   3.518   5.825 -0.6996  0.3275  0.5293
 1523TIP3    H226129   4.951   3.452   5.822 -1.1377  1.2370 -0.1277
 1524TIP3   OH226130   2.281   6.486   6.180  0.4261  0.1191  0.3079
 1524TIP3    H126131   2.337   6.438   6.119 -0.0925  0.2391 -0.2750
 1524TIP3    H226132   2.233   6.548   6.125  0.1291  0.4022  0.8738
 1525TIP3   OH226133   1.728   2.246   5.611  0.6100 -0.6073 -0.1954
 1525TIP3    H126134   1.672   2.185   5.563  1.7195 -0.5188 -1.7148
 1525TIP3    H226135   1.671   2.317   5.636 -0.1007 -0.8241 -1.1345
 1526TIP3   OH226136   5.052   3.223   1.004 -0.2185  0.0106 -0.4845
 1526TIP3    H126137   5.085   3.284   0.938 -1.2887  0.1144 -0.9443
 1526TIP3    H226138   4.976   3.181   0.963 -0.8996  0.0581  0.6522
 1527TIP3   OH226139   3.205   3.701   5.818  0.2704  0.5458  0.0454
 1527TIP3    H126140   3.280   3.743   5.775  1.0662 -0.8333  0.0273
 1527TIP3    H226141   3.142   3.772   5.830  0.2389  1.1596 -2.8366
 1528TIP3   OH226142   4.310   2.873   1.835 -0.0735 -0.4187  0.2274
 1528TIP3    H126143   4.386   2.870   1.894 -1.0658  0.1911  1.5946
 1528TIP3    H226144   4.291   2.781   1.816  1.3020 -0.5725 -0.5698
 1529TIP3   OH226145   3.871   3.741   8.026 -0.3604 -0.5758 -0.0594
 1529TIP3    H126146   3.792   3.693   8.001 -1.4578  0.0320  2.0161
 1529TIP3    H226147   3.925   3.677   8.072 -0.9951 -0.3236  1.0817
 1530TIP3   OH226148   0.533   3.718   7.021  0.2410  0.3009  0.4072
 1530TIP3    H126149   0.495   3.633   7.043  0.4972  0.0645 -0.0604
 1530TIP3    H226150   0.458   3.774   7.002  0.1121 -0.0928 -0.2569
 1531TIP3   OH226151   7.070   0.073   1.008  0.5801  0.0901  0.1970
 1531TIP3    H126152   7.033   0.038   0.926 -0.6161  1.2578  0.2047
 1531TIP3    H226153   7.164   0.066   0.996  0.4384  0.2674 -1.3131
 1532TIP3   OH226154   5.333   3.368   0.457  0.2941  0.0808  0.3961
 1532TIP3    H126155   5.316   3.291   0.512 -3.6584  0.6927  0.3593
 1532TIP3    H226156   5.248   3.388   0.418  1.7492  2.9680 -1.6678
 1533TIP3   OH226157   5.913   3.773   0.355  0.3598  0.0490  0.0251
 1533TIP3    H126158   5.904   3.752   0.262 -0.5997 -0.2000  0.1569
 1533TIP3    H226159   5.834   3.736   0.395  0.3941  0.8166  0.8250
 1534TIP3   OH226160   2.273   3.441   6.466  0.7995  0.1410 -0.0529
 1534TIP3    H126161   2.324   3.469   6.390 -0.3900  0.8581 -0.6246
 1534TIP3    H226162   2.335   3.442   6.538  1.5628  1.1316 -0.6959
 1535TIP3   OH226163   3.544   1.820   7.138  0.0673  0.1021  0.2813
 1535TIP3    H126164   3.575   1.732   7.121  2.3704  0.1635  3.2247
 1535TIP3    H226165   3.574   1.871   7.063 -0.9055 -1.4556 -1.2410
 1536TIP3   OH226166   1.050   4.422   1.080 -0.6731  0.3655 -0.1062
 1536TIP3    H126167   1.069   4.403   1.171 -0.7528 -1.4140 -0.4337
 1536TIP3    H226168   0.974   4.480   1.083  0.2362  1.5861  0.9645
 1537TIP3   OH226169   4.501   6.914   7.172 -0.2718  0.2137 -0.8344
 1537TIP3    H126170   4.538   6.836   7.213 -3.4810 -0.4869  1.1246
 1537TIP3    H226171   4.486   6.888   7.081  0.8173 -0.6375 -0.7913
 1538TIP3   OH226172   4.136   4.161   1.378 -0.0001 -0.5837  0.1734
 1538TIP3    H126173   4.065   4.181   1.439 -0.3408  0.1132 -0.4468
 1538TIP3    H226174   4.209   4.135   1.435 -0.3891 -0.1873  0.8667
 1539TIP3   OH226175   3.248   3.378   1.801  0.3949 -0.2806 -0.1212
 1539TIP3    H126176   3.197   3.297   1.807  1.3829 -1.2753 -2.9805
 1539TIP3    H226177   3.327   3.361   1.853  0.8441 -1.4318 -1.1292
 1540TIP3   OH226178   1.038   7.165   6.472 -0.1724 -0.9486  0.5178
 1540TIP3    H126179   1.080   7.162   6.558  1.2349 -2.2344 -0.1684
 1540TIP3    H226180   1.022   7.258   6.456 -0.5384 -0.6960  2.1814
 1541TIP3   OH226181   1.280   5.305   7.514  0.2903 -0.5377 -0.9599
 1541TIP3    H126182   1.347   5.288   7.447  0.7825 -0.3293 -0.5325
 1541TIP3    H226183   1.260   5.398   7.505  1.2912 -0.2061  0.0017
 1542TIP3   OH226184   5.213   3.170   6.484  0.2769  0.0358  0.2660
 1542TIP3    H126185   5.119   3.166   6.466  0.1516  1.5381  0.4553
 1542TIP3    H226186   5.254   3.124   6.411 -0.6192 -0.9090  0.3523
 1543TIP3   OH226187   0.766   6.940   0.940  0.2656 -0.2118 -0.4429
 1543TIP3    H126188   0.809   6.973   0.861 -1.3946  0.4356 -1.1273
 1543TIP3    H226189   0.813   6.981   1.012  0.5512  0.7779 -1.1639
 1544TIP3   OH226190   3.058   3.799   7.213 -0.3564  0.2257  0.2404
 1544TIP3    H126191   3.022   3.887   7.220  0.2046  0.5379 -0.6668
 1544TIP3    H226192   3.152   3.810   7.226 -0.2105 -0.1515 -0.4149
 1545TIP3   OH226193   0.641   3.039   7.296 -0.0796  0.1917 -0.0206
 1545TIP3    H126194   0.608   2.953   7.324  0.4635  0.2783  0.9603
 1545TIP3    H226195   0.713   3.057   7.357 -1.1378  2.0065  0.7666
 1546TIP3   OH226196   6.410   4.682   0.558 -0.0539 -0.3732  0.0807
 1546TIP3    H126197   6.437   4.723   0.640  0.5253  0.2335 -0.4004
 1546TIP3    H226198   6.335   4.733   0.529  0.6710  0.3919 -0.5215
 1547TIP3   OH226199   4.562   6.144   7.670 -0.6350 -0.7124  0.2480
 1547TIP3    H126200   4.567   6.229   7.713  0.9546  0.6144 -2.2917
 1547TIP3    H226201   4.494   6.155   7.603 -0.0173 -1.2107 -0.4832
 1548TIP3   OH226202   0.530   6.751   7.822 -0.2269  0.3189  0.2073
 1548TIP3    H126203   0.559   6.743   7.731 -1.3432  0.1600 -0.1402
 1548TIP3    H226204   0.510   6.661   7.849 -0.8231  0.4767  0.2972
 1549TIP3   OH226205   3.282   2.507   7.412  0.0669  0.1127 -0.1309
 1549TIP3    H126206   3.275   2.600   7.392 -0.5495  0.1626  0.2931
 1549TIP3    H226207   3.356   2.501   7.472  0.2240  0.3071 -0.3053
 1550TIP3   OH226208   2.074   2.493   0.151 -0.2999 -0.2504  0.7547
 1550TIP3    H126209   2.044   2.583   0.134  1.9860  0.4341 -0.0754
 1550TIP3    H226210   2.046   2.444   0.074 -0.5618  0.0163  0.6780
 1551TIP3   OH226211   3.543   5.000   7.295 -0.5542  0.0471 -0.2629
 1551TIP3    H126212   3.515   4.993   7.387  0.1669 -0.2158 -0.0619
 1551TIP3    H226213   3.467   4.970   7.245 -1.1467  0.6808  0.2192
 1552TIP3   OH226214   1.788   6.476   6.070  0.3934  0.0957  0.6585
 1552TIP3    H126215   1.871   6.495   6.113  0.5237  2.1488 -0.3767
 1552TIP3    H226216   1.791   6.525   5.988 -1.0950 -1.2649 -0.2824
 1553TIP3   OH226217   1.930   5.638   7.049 -0.3466  0.0517  0.5833
 1553TIP3    H126218   1.898   5.704   6.988  1.6642  1.9507  1.4437
 1553TIP3    H226219   1.936   5.558   6.997  1.0560  1.5122 -1.7119
 1554TIP3   OH226220   3.434   4.188   1.797 -0.1428  0.3883 -0.0481
 1554TIP3    H126221   3.493   4.120   1.764 -0.3060  0.0213  0.3940
 1554TIP3    H226222   3.490   4.263   1.813  0.2153  0.0293  0.4093
 1555TIP3   OH226223   1.523   6.391   6.856 -0.1079  0.3731 -0.0410
 1555TIP3    H126224   1.458   6.356   6.794 -1.3882  1.3796  0.6708
 1555TIP3    H226225   1.568   6.460   6.807  1.2900 -1.1060 -0.9194
 1556TIP3   OH226226   2.332   1.649   6.720  0.0412  0.4288  0.5345
 1556TIP3    H126227   2.268   1.695   6.776 -0.0384 -0.2718  1.0289
 1556TIP3    H226228   2.412   1.701   6.728 -0.1864  0.7567  0.7091
 1557TIP3   OH226229   3.696   4.028   0.384  0.1199  0.6493  0.0582
 1557TIP3    H126230   3.691   4.088   0.310  0.6829  0.2869 -0.2812
 1557TIP3    H226231   3.616   3.976   0.379 -1.1372  2.3411  1.2329
 1558TIP3   OH226232   7.037   4.016   7.805  0.0530 -0.4284  0.0144
 1558TIP3    H126233   7.079   4.056   7.729 -1.4389  1.4483  0.0796
 1558TIP3    H226234   7.075   3.929   7.811  1.8273  0.1751 -1.5409
 1559TIP3   OH226235   4.048   2.782   1.610 -0.0640 -0.0569 -0.0964
 1559TIP3    H126236   4.023   2.798   1.701 -2.9752  0.4571 -0.8937
 1559TIP3    H226237   3.978   2.727   1.575  1.1926 -0.5579 -1.9490
 1560TIP3   OH226238   6.093   6.426   6.724 -0.1241  0.1489 -0.0847
 1560TIP3    H126239   6.153   6.450   6.653 -1.4766 -1.0530 -1.7012
 1560TIP3    H226240   6.017   6.483   6.712 -0.4439 -0.1876  0.2986
 1561TIP3   OH226241   4.006   5.231   7.337 -0.0115 -0.1329  0.2210
 1561TIP3    H126242   3.946   5.219   7.263 -0.5690  0.8668  0.4914
 1561TIP3    H226243   4.021   5.143   7.370  0.0669 -0.5734 -0.9367
 1562TIP3   OH226244   2.091   1.864   6.450 -0.0374  0.2402  0.0670
 1562TIP3    H126245   2.155   1.934   6.464  0.6143 -0.7565  2.7328
 1562TIP3    H226246   2.100   1.841   6.358  2.8168  0.7787  0.1169
 1563TIP3   OH226247   6.391   1.821   6.424 -0.1525  0.5510 -0.4979
 1563TIP3    H126248   6.422   1.789   6.509 -1.6047 -0.4307 -0.3004
 1563TIP3    H226249   6.376   1.915   6.438 -3.2104 -0.0503  1.3210
 1564TIP3   OH226250   4.254   2.810   1.438  0.4434  0.1466  0.1758
 1564TIP3    H126251   4.189   2.815   1.508  0.0705 -1.3180 -0.0366
 1564TIP3    H226252   4.292   2.722   1.447  0.5466  0.0110 -1.3207
 1565TIP3   OH226253   2.394   6.786   2.164 -0.0718  1.0863  0.5518
 1565TIP3    H126254   2.469   6.777   2.222  0.2137  1.9354  0.3245
 1565TIP3    H226255   2.318   6.770   2.221  0.1940 -4.9448 -0.0693
 1566TIP3   OH226256   0.463   1.975   1.598  0.3101  0.1688  0.1604
 1566TIP3    H126257   0.453   1.946   1.688  0.2949 -0.5358 -0.0653
 1566TIP3    H226258   0.406   1.918   1.547 -0.4886  1.2451 -0.1755
 1567TIP3   OH226259   2.495   1.375   6.400  0.5817  0.0729  0.1912
 1567TIP3    H126260   2.575   1.426   6.416  0.3549  0.4732  0.0694
 1567TIP3    H226261   2.462   1.354   6.487  0.6204  0.2243  0.2436
 1568TIP3   OH226262   1.582   3.640   1.737  0.4229 -0.0096 -0.0595
 1568TIP3    H126263   1.614   3.550   1.746 -0.9762 -0.6380 -0.8197
 1568TIP3    H226264   1.534   3.657   1.818  0.4370 -0.0624 -0.0399
 1569TIP3   OH226265   0.091   2.806   2.234  0.2330 -0.8622 -0.1437
 1569TIP3    H126266   0.061   2.818   2.144 -0.2048 -0.8961 -0.0086
 1569TIP3    H226267   0.160   2.740   2.229  0.3428 -0.7205 -0.4760
 1570TIP3   OH226268   5.044   4.764   0.868 -0.0256 -0.1181  0.4566
 1570TIP3    H126269   4.968   4.758   0.811 -0.0901 -0.8564  0.6101
 1570TIP3    H226270   5.113   4.801   0.813 -0.0135 -1.0608 -0.1922
 1571TIP3   OH226271   2.733   2.792   0.999 -0.5754  0.1236 -0.0403
 1571TIP3    H126272   2.726   2.705   0.960  0.7712  0.4754 -1.1535
 1571TIP3    H226273   2.688   2.850   0.937 -2.3580  0.1410  1.1862
 1572TIP3   OH226274   6.232   2.363   1.344  0.1235 -0.6118  0.1616
 1572TIP3    H126275   6.203   2.442   1.391 -0.0048  0.0782 -1.0557
 1572TIP3    H226276   6.155   2.305   1.346  0.0157 -0.4606  0.5175
 1573TIP3   OH226277   2.104   3.152   7.196  0.1133 -0.2369 -0.2693
 1573TIP3    H126278   2.118   3.192   7.110  1.8002 -2.2200 -0.9985
 1573TIP3    H226279   2.121   3.222   7.259 -3.1334  1.8326 -1.4592
 1574TIP3   OH226280   4.309   1.756   1.475  0.2586  0.5798  0.2506
 1574TIP3    H126281   4.399   1.742   1.446  0.4553  0.2720  0.9861
 1574TIP3    H226282   4.316   1.776   1.568 -0.4837 -0.0541  0.4559
 1575TIP3   OH226283   0.642   2.287   7.585  0.1816 -0.7704  0.1805
 1575TIP3    H126284   0.726   2.333   7.592 -0.1974  0.1469 -0.8915
 1575TIP3    H226285   0.598   2.302   7.669  0.0504  0.9057 -0.1564
 1576TIP3   OH226286   2.219   3.753   1.637  0.3356 -0.2088 -0.3524
 1576TIP3    H126287   2.281   3.705   1.692 -0.4246  0.4913  1.1913
 1576TIP3    H226288   2.176   3.814   1.698 -2.3553 -1.1342 -1.1686
 1577TIP3   OH226289   3.021   4.141   0.557  0.1890 -0.6733 -0.4114
 1577TIP3    H126290   3.083   4.188   0.612  1.7560 -2.0593 -0.9080
 1577TIP3    H226291   3.014   4.195   0.478 -0.8458  0.5021  0.4266
 1578TIP3   OH226292   4.250   2.164   0.716  0.5395  0.1987 -0.4410
 1578TIP3    H126293   4.290   2.106   0.781 -0.9163  0.7212  1.0088
 1578TIP3    H226294   4.209   2.104   0.653  0.5344 -0.3590  0.0771
 1579TIP3   OH226295   3.156   2.693   6.049 -0.7263 -0.4693  0.0590
 1579TIP3    H126296   3.208   2.746   5.988  1.3044 -2.4885 -0.1094
 1579TIP3    H226297   3.193   2.712   6.135 -1.5958  0.1396  0.3103
 1580TIP3   OH226298   1.156   4.018   1.122  0.2622 -0.0840 -0.1027
 1580TIP3    H126299   1.075   4.068   1.119  0.2730 -0.0471 -3.1210
 1580TIP3    H226300   1.130   3.930   1.149 -1.2833 -0.7036 -3.1659
 1581TIP3   OH226301   5.251   5.767   7.906  0.3664  0.3613  0.6484
 1581TIP3    H126302   5.167   5.727   7.926  0.4804 -0.5069 -0.5274
 1581TIP3    H226303   5.294   5.778   7.992  0.2830 -1.9367  1.0336
 1582TIP3   OH226304   2.910   0.003   1.585  0.4494  0.2422  0.4836
 1582TIP3    H126305   2.925   0.079   1.641  1.8163 -1.0771  1.9874
 1582TIP3    H226306   2.922  -0.072   1.642 -0.9121 -1.1443 -0.9526
 1583TIP3   OH226307   0.310   3.987   7.063 -0.1084  0.2990  0.1969
 1583TIP3    H126308   0.277   3.899   7.047  1.0821  0.1386 -1.6895
 1583TIP3    H226309   0.260   4.042   7.003  0.5169  0.5970 -0.0566
 1584TIP3   OH226310   4.325   5.912   0.752  0.0721  0.0175  0.0100
 1584TIP3    H126311   4.274   5.832   0.736 -0.8804  0.6906 -0.3430
 1584TIP3    H226312   4.278   5.957   0.822  1.0340 -0.0833  0.7509
 1585TIP3   OH226313   0.398   4.088   6.712 -0.2923  0.6107  0.7787
 1585TIP3    H126314   0.455   4.105   6.637 -1.5273  0.8062 -0.1525
 1585TIP3    H226315   0.383   3.993   6.710 -0.5289  0.6498  0.6124
 1586TIP3   OH226316   0.986   3.200   1.456  0.1596 -0.0034  0.2558
 1586TIP3    H126317   0.966   3.134   1.522  1.6189 -0.1096  0.6381
 1586TIP3    H226318   0.919   3.189   1.389  0.4743 -2.0221  0.2097
 1587TIP3   OH226319   3.270   1.256   7.598  0.4131 -0.3786  0.2215
 1587TIP3    H126320   3.317   1.175   7.577 -0.2515 -0.5535 -0.6707
 1587TIP3    H226321   3.188   1.226   7.637  0.6084 -0.1069  0.8430
 1588TIP3   OH226322   0.232   1.799   0.873 -0.2559  0.4511  0.3762
 1588TIP3    H126323   0.309   1.778   0.821 -0.6617  0.0054 -0.0543
 1588TIP3    H226324   0.178   1.720   0.869 -0.0144  0.1771  1.9866
 1589TIP3   OH226325   3.335   3.363   1.169  0.3614 -0.0055  0.1937
 1589TIP3    H126326   3.413   3.393   1.121 -0.4589 -1.2199 -2.0555
 1589TIP3    H226327   3.359   3.276   1.202  0.6856  0.5388  1.4134
 1590TIP3   OH226328   4.626   2.762   0.966 -0.7960  0.0775  0.2890
 1590TIP3    H126329   4.683   2.703   1.017 -1.2059 -1.2905 -0.7656
 1590TIP3    H226330   4.550   2.775   1.022 -0.7851 -0.5651  0.4670
 1591TIP3   OH226331   1.443   1.947   0.841  0.5230 -0.2787  0.6035
 1591TIP3    H126332   1.422   1.900   0.761  0.1899 -0.5249  0.8329
 1591TIP3    H226333   1.486   2.027   0.811 -1.2168  0.5063  0.0687
 1592TIP3   OH226334   3.392   5.330   0.658  0.0986  0.1191 -0.0104
 1592TIP3    H126335   3.412   5.238   0.674 -1.8400 -0.1679  1.1403
 1592TIP3    H226336   3.405   5.373   0.743 -1.2244  0.4319  0.0596
 1593TIP3   OH226337   0.107   7.103   0.453  0.7510  0.3555 -0.1737
 1593TIP3    H126338   0.085   7.019   0.493  1.1254 -0.2748 -1.2344
 1593TIP3    H226339   0.159   7.149   0.518 -0.0782  0.0859  0.7050
 1594TIP3   OH226340   2.324   6.809   1.399 -0.0275  0.5874  0.0383
 1594TIP3    H126341   2.377   6.889   1.405 -1.7868  1.8054  0.1296
 1594TIP3    H226342   2.273   6.821   1.319  0.2118 -0.7972 -0.3331
 1595TIP3   OH226343   4.056   4.067   5.558 -0.8673 -0.3879  0.1391
 1595TIP3    H126344   4.118   4.127   5.599 -0.4046 -1.1476  0.5646
 1595TIP3    H226345   4.053   3.991   5.617 -1.4477 -0.7819 -0.3867
 1596TIP3   OH226346   3.751   5.525   5.806  0.5122  0.2183  0.1038
 1596TIP3    H126347   3.839   5.489   5.802  1.0633  1.5523 -0.0374
 1596TIP3    H226348   3.698   5.463   5.756  0.9203 -1.7787  1.9841
 1597TIP3   OH226349   2.649   2.202   1.310  0.0851 -0.3895 -0.4569
 1597TIP3    H126350   2.686   2.259   1.378  0.3555 -1.0133 -0.0768
 1597TIP3    H226351   2.662   2.251   1.229  0.6901 -0.0811 -0.1862
 1598TIP3   OH226352   3.040   0.472   7.408 -0.0195  0.8188 -0.6364
 1598TIP3    H126353   3.048   0.423   7.490  0.0564  1.2050 -0.4122
 1598TIP3    H226354   2.976   0.422   7.356 -0.0175  0.5397 -0.3701
 1599TIP3   OH226355   4.067   4.112   0.801 -0.8034  0.0403 -0.4159
 1599TIP3    H126356   4.053   4.185   0.861 -2.1929 -1.5655  1.3651
 1599TIP3    H226357   4.141   4.065   0.838 -1.6808 -0.9708  0.1174
 1600TIP3   OH226358   4.084   1.375   1.668 -0.4716 -0.8665 -0.7762
 1600TIP3    H126359   4.034   1.447   1.706  0.4838  0.6921 -2.3060
 1600TIP3    H226360   4.037   1.296   1.695  0.9263 -0.1839  4.9059
 1601TIP3   OH226361   0.859   4.926   1.637  0.1611  0.3136  0.2814
 1601TIP3    H126362   0.943   4.903   1.596  0.3008  0.3891  0.5228
 1601TIP3    H226363   0.801   4.853   1.614  0.9759 -1.0140  2.1904
 1602TIP3   OH226364   6.178   3.509   0.077 -0.3508 -0.0192  0.1759
 1602TIP3    H126365   6.241   3.443   0.046 -0.1173 -0.4190  1.4206
 1602TIP3    H226366   6.232   3.584   0.100  0.0094 -1.0388  3.1090
 1603TIP3   OH226367   6.103   4.480   1.654 -0.4816  0.5047 -0.0151
 1603TIP3    H126368   6.188   4.519   1.634 -0.4099  1.2366  1.6269
 1603TIP3    H226369   6.109   4.454   1.745 -2.4770  1.8413  0.5645
 1604TIP3   OH226370   1.409   0.724   0.757 -0.1711 -0.4596  0.2770
 1604TIP3    H126371   1.366   0.742   0.840 -0.4027 -2.1723  0.5501
 1604TIP3    H226372   1.488   0.675   0.780 -0.7424 -1.8175 -0.5566
 1605TIP3   OH226373   2.513   2.249   5.689 -0.5438  0.1465 -0.0581
 1605TIP3    H126374   2.450   2.304   5.734  2.3054  1.4057  2.7960
 1605TIP3    H226375   2.497   2.161   5.723  0.5710  0.8332  2.4789
 1606TIP3   OH226376   1.213   0.488   0.688 -0.0930 -0.2222 -0.3873
 1606TIP3    H126377   1.259   0.404   0.681 -0.0662 -0.1362 -1.3654
 1606TIP3    H226378   1.282   0.552   0.707  0.0775 -0.2254 -0.9813
 1607TIP3   OH226379   5.227   5.505   1.005  0.4728  0.0467  0.0807
 1607TIP3    H126380   5.144   5.531   1.045  0.9200  0.9683  0.4412
 1607TIP3    H226381   5.263   5.585   0.969  2.1501  0.1048  1.6987
 1608TIP3   OH226382   0.893   3.537   7.644 -0.7721  0.5289  0.4579
 1608TIP3    H126383   0.823   3.602   7.646 -1.5393 -0.2256 -0.4508
 1608TIP3    H226384   0.936   3.545   7.729 -0.8570  2.1763  0.3777
 1609TIP3   OH226385   5.672   0.671   7.356  0.0066 -0.6628 -0.6254
 1609TIP3    H126386   5.596   0.675   7.414  0.4103 -1.9256  0.0342
 1609TIP3    H226387   5.715   0.588   7.379  2.7838  0.9437  0.5388
 1610TIP3   OH226388   3.367   5.302   6.743  0.9490  0.0430  0.3195
 1610TIP3    H126389   3.355   5.360   6.667 -1.2262  1.7367  1.8260
 1610TIP3    H226390   3.382   5.361   6.817 -0.8179 -1.2875  1.8435
 1611TIP3   OH226391   2.453   5.143   1.308  0.6193 -0.0469  0.2766
 1611TIP3    H126392   2.395   5.083   1.355 -0.2436  1.1091  0.7420
 1611TIP3    H226393   2.427   5.230   1.338  3.3704  0.4945  1.3702
 1612TIP3   OH226394   2.590   0.072   7.191 -0.1830  0.3867  0.6418
 1612TIP3    H126395   2.643   0.010   7.241 -1.0147 -0.2293  0.7870
 1612TIP3    H226396   2.557   0.021   7.117  0.3098  1.0568 -0.0493
 1613TIP3   OH226397   3.002   3.145   0.299 -0.0043 -0.6245 -0.1393
 1613TIP3    H126398   3.069   3.093   0.254 -0.0522 -3.7795  2.9039
 1613TIP3    H226399   2.927   3.143   0.240  1.3161 -0.4505 -1.9113
 1614TIP3   OH226400   6.061   5.758   6.441  0.0555 -0.2281  0.2733
 1614TIP3    H126401   6.030   5.848   6.450 -0.4733 -0.4772  1.0603
 1614TIP3    H226402   6.086   5.732   6.529  1.6694 -0.3513 -0.1883
 1615TIP3   OH226403   1.449   6.417   0.626 -0.2002 -0.0379 -0.3891
 1615TIP3    H126404   1.413   6.497   0.585  0.3574  0.3140 -0.1983
 1615TIP3    H226405   1.519   6.449   0.682  0.3363 -0.7167 -0.6692
 1616TIP3   OH226406   0.316   3.760   5.748  0.3640 -0.0128  0.0331
 1616TIP3    H126407   0.221   3.747   5.745  0.3835  0.0248 -1.4337
 1616TIP3    H226408   0.352   3.684   5.705  0.9769  0.2511  0.0720
 1617TIP3   OH226409   6.179   3.226   7.321 -0.4441 -0.0396 -0.3604
 1617TIP3    H126410   6.099   3.279   7.315  0.8472  1.8583 -2.5485
 1617TIP3    H226411   6.176   3.169   7.244  0.4569  0.3150 -0.6693
 1618TIP3   OH226412   3.362   5.679   5.619 -0.2626 -0.1780  0.0033
 1618TIP3    H126413   3.374   5.773   5.605 -0.1696 -0.3928 -1.5247
 1618TIP3    H226414   3.435   5.653   5.674  0.4840  0.4092 -0.6931
 1619TIP3   OH226415   5.153   1.367   7.771 -0.0959 -0.2238  0.2905
 1619TIP3    H126416   5.223   1.310   7.803 -0.9254 -0.6836  1.3671
 1619TIP3    H226417   5.072   1.327   7.803 -0.8834  0.1994 -1.0722
 1620TIP3   OH226418   1.426   0.513   1.275  0.1639  0.0283 -0.0106
 1620TIP3    H126419   1.494   0.465   1.322 -0.5631 -1.2440 -0.2250
 1620TIP3    H226420   1.437   0.488   1.184 -0.0538  0.4922 -0.1687
 1621TIP3   OH226421   7.051   1.052   8.022 -0.1329 -0.8666 -0.4438
 1621TIP3    H126422   7.024   1.138   8.053  0.3927 -1.0937  0.7079
 1621TIP3    H226423   7.146   1.050   8.039  0.1944 -0.9966 -2.1293
 1622TIP3   OH226424   5.141   5.241   6.118 -0.1437 -0.6782 -0.1931
 1622TIP3    H126425   5.222   5.227   6.069  0.4004 -2.1514  1.0253
 1622TIP3    H226426   5.076   5.187   6.073 -0.4477  0.4187 -1.1065
 1623TIP3   OH226427   1.941   0.716   0.680  0.0001 -0.4385  0.1119
 1623TIP3    H126428   1.996   0.750   0.610 -0.1387  1.6243  0.9231
 1623TIP3    H226429   1.998   0.658   0.730  0.2869 -1.4003 -1.2895
 1624TIP3   OH226430   4.402   1.015   0.991  0.3473 -0.1156  0.7065
 1624TIP3    H126431   4.376   1.029   1.082 -0.9942 -0.1049  0.3448
 1624TIP3    H226432   4.321   0.994   0.945  0.9147  0.3736 -0.5931
 1625TIP3   OH226433   5.488   0.241   0.270  0.0362 -0.0483 -0.0148
 1625TIP3    H126434   5.445   0.318   0.308 -0.7793 -0.5508  0.0995
 1625TIP3    H226435   5.573   0.238   0.313 -0.2969  0.2446  0.6834
 1626TIP3   OH226436   0.430   3.167   6.269  0.8698 -0.6034  0.1127
 1626TIP3    H126437   0.479   3.089   6.294 -1.8037 -2.1906  0.8339
 1626TIP3    H226438   0.441   3.174   6.174  2.7027 -0.6587  0.2898
 1627TIP3   OH226439   5.098   6.498   7.635 -0.2825  0.0895 -0.0131
 1627TIP3    H126440   5.147   6.538   7.564  0.9752  1.7397  1.6679
 1627TIP3    H226441   5.008   6.527   7.622  0.0390  0.8505 -0.6014
 1628TIP3   OH226442   5.934   6.969   6.492 -0.2082  0.1260  0.4021
 1628TIP3    H126443   5.848   6.932   6.510  0.2209 -1.4271 -0.5950
 1628TIP3    H226444   5.917   7.037   6.427 -0.6257 -0.5980 -0.2602
 1629TIP3   OH226445   6.808   1.063   6.370 -0.3400  0.1656  0.1666
 1629TIP3    H126446   6.853   1.036   6.289 -1.2102  0.6365 -0.4947
 1629TIP3    H226447   6.875   1.056   6.438  0.9529  1.5083 -0.9055
 1630TIP3   OH226448   2.522   5.324   7.036  0.2643  0.3934 -0.4716
 1630TIP3    H126449   2.445   5.274   7.009 -0.5761  0.5116  1.5662
 1630TIP3    H226450   2.488   5.394   7.092  1.6817  1.6657 -1.1078
 1631TIP3   OH226451   2.277   2.703   6.378 -0.7482 -0.2674 -0.6864
 1631TIP3    H126452   2.191   2.739   6.398  0.0836  0.5771  1.8795
 1631TIP3    H226453   2.266   2.608   6.380 -1.9216 -0.1927 -2.1858
 1632TIP3   OH226454   7.088   0.272   6.601  0.1044  0.1266  0.2259
 1632TIP3    H126455   7.135   0.351   6.574  2.0834 -1.2204 -0.5357
 1632TIP3    H226456   7.073   0.224   6.519 -0.5025 -0.5730  0.7359
 1633TIP3   OH226457   3.146   5.520   0.828 -0.0328  0.3377 -0.1376
 1633TIP3    H126458   3.080   5.455   0.851  1.4202 -0.0661  3.6062
 1633TIP3    H226459   3.097   5.591   0.787 -2.4346 -0.9419  0.3645
 1634TIP3   OH226460   0.335   2.919   7.403  0.4145 -0.0865  0.0449
 1634TIP3    H126461   0.408   2.867   7.369  1.5609  1.7245 -0.3699
 1634TIP3    H226462   0.258   2.886   7.356  1.5227  0.3921 -2.2156
 1635TIP3   OH226463   0.802   2.269   7.989  0.1146  0.0281 -0.2312
 1635TIP3    H126464   0.771   2.300   7.904  0.1469 -0.6800 -0.5138
 1635TIP3    H226465   0.723   2.258   8.041  0.0791  0.2846 -0.2296
 1636TIP3   OH226466   5.360   0.274   0.016  0.1799  0.4745  0.2382
 1636TIP3    H126467   5.397   0.211   0.078 -2.3923 -2.0511 -0.5731
 1636TIP3    H226468   5.301   0.328   0.069 -1.8625 -1.5468  0.1737
 1637TIP3   OH226469   0.973   6.056   7.913 -0.1739 -0.4338 -0.0703
 1637TIP3    H126470   1.039   6.122   7.890 -1.0419  0.6412  0.4319
 1637TIP3    H226471   1.021   5.973   7.912  1.3024  0.3630  0.7703
 1638TIP3   OH226472   6.410   2.984   6.566  0.2744 -0.1274  0.5952
 1638TIP3    H126473   6.330   3.033   6.587  1.2300  1.5455  0.5221
 1638TIP3    H226474   6.460   2.983   6.648 -0.3765 -2.3822  1.0347
 1639TIP3   OH226475   3.780   0.844   7.643  0.5618  0.3084  0.0249
 1639TIP3    H126476   3.799   0.765   7.694  1.8773  0.2963 -0.4392
 1639TIP3    H226477   3.824   0.829   7.560 -0.9854  0.6214 -0.8890
 1640TIP3   OH226478   2.203   0.019   1.954  0.3190  0.3266 -0.0153
 1640TIP3    H126479   2.271   0.082   1.979 -1.3410  2.2499 -0.0559
 1640TIP3    H226480   2.192   0.032   1.860  0.1511 -0.2715 -0.0842
 1641TIP3   OH226481   3.879   3.125   7.721 -0.0669  0.5261  0.1228
 1641TIP3    H126482   3.882   3.034   7.750  2.2845  0.4851 -0.0652
 1641TIP3    H226483   3.951   3.168   7.768 -2.7045  2.9836  2.2324
 1642TIP3   OH226484   6.590   6.513   7.891  0.4184 -0.0975 -0.2967
 1642TIP3    H126485   6.662   6.549   7.944  1.0905  0.3128 -1.4426
 1642TIP3    H226486   6.631   6.493   7.807 -0.4389 -1.5159 -0.4047
 1643TIP3   OH226487   1.087   1.880   5.766  0.1032  0.6001 -0.6533
 1643TIP3    H126488   1.151   1.817   5.732  0.1385 -0.5005  1.3407
 1643TIP3    H226489   1.129   1.965   5.756  0.9292  0.1130 -1.4424
 1644TIP3   OH226490   3.802   5.257   6.284 -0.4898  0.0323  0.0186
 1644TIP3    H126491   3.782   5.275   6.192  1.4889 -1.3425 -0.7411
 1644TIP3    H226492   3.877   5.312   6.304 -0.0072 -0.7289  0.3546
 1645TIP3   OH226493   4.785   0.137   6.784 -0.2129  0.0472  0.0858
 1645TIP3    H126494   4.754   0.171   6.868  1.7755  1.0773  0.4723
 1645TIP3    H226495   4.849   0.070   6.807  0.8170  0.7724 -0.5634
 1646TIP3   OH226496   0.442   6.949   6.525 -0.5267 -0.3285 -0.2117
 1646TIP3    H126497   0.411   6.964   6.436 -2.4060 -2.4275  0.0069
 1646TIP3    H226498   0.400   7.018   6.577 -0.3309  0.2160 -0.7718
 1647TIP3   OH226499   0.560   4.504   6.135 -0.2881 -0.0699  0.5813
 1647TIP3    H126500   0.492   4.482   6.199 -1.9294  2.0663 -0.2838
 1647TIP3    H226501   0.532   4.461   6.055 -1.7966  2.3360 -0.2859
 1648TIP3   OH226502   2.127   3.314   6.981 -0.0351 -0.0899  0.2483
 1648TIP3    H126503   2.115   3.404   7.011  1.5689 -0.0446  0.8210
 1648TIP3    H226504   2.083   3.312   6.896 -0.5822  1.0704  0.4772
 1649TIP3   OH226505   4.611   2.512   6.990  0.5886 -0.1268  0.2911
 1649TIP3    H126506   4.536   2.534   6.935 -0.4419 -3.7944 -0.0783
 1649TIP3    H226507   4.585   2.536   7.079  0.7992  2.5126 -0.2934
 1650TIP3   OH226508   6.242   2.697   5.520  0.1329 -0.0423  0.5514
 1650TIP3    H126509   6.175   2.685   5.453  0.3376  0.3285  0.2764
 1650TIP3    H226510   6.270   2.608   5.542  1.2701 -0.1351 -1.0947
 1651TIP3   OH226511   3.000   0.969   6.433 -0.3580  0.3356  0.0975
 1651TIP3    H126512   3.007   0.881   6.396  0.3158  0.6483 -0.5442
 1651TIP3    H226513   2.952   0.957   6.515 -0.8138 -0.5396 -0.2913
 1652TIP3   OH226514   5.343   2.753   1.708 -0.2015 -0.5482 -0.5372
 1652TIP3    H126515   5.257   2.733   1.744  1.0274 -1.2757  2.2888
 1652TIP3    H226516   5.359   2.844   1.732  0.3050 -0.7862  0.0367
 1653TIP3   OH226517   4.638   1.642   0.420  0.2977 -0.0779  0.2133
 1653TIP3    H126518   4.708   1.671   0.479  0.6207 -1.0604  0.3396
 1653TIP3    H226519   4.649   1.547   0.416 -2.1957 -0.5368  1.7538
 1654TIP3   OH226520   1.848   3.863   7.989  0.0950 -0.2612 -0.3698
 1654TIP3    H126521   1.880   3.829   7.905 -0.6666  2.0010 -1.6469
 1654TIP3    H226522   1.880   3.953   7.992 -0.8298  0.0422  1.2804
 1655TIP3   OH226523   4.920   3.967   0.359 -0.0872 -0.1683  0.6221
 1655TIP3    H126524   5.000   3.977   0.307 -0.2480 -2.9496 -0.3286
 1655TIP3    H226525   4.937   4.017   0.439  2.5114 -0.4690  0.3487
 1656TIP3   OH226526   3.468   2.221   7.020  0.1382 -0.7060 -0.2683
 1656TIP3    H126527   3.468   2.310   7.056  1.3391 -0.5138 -0.6869
 1656TIP3    H226528   3.377   2.205   6.996 -0.1674  0.2516  0.1938
 1657TIP3   OH226529   0.454   6.206   7.480 -0.0658 -0.2081 -0.4553
 1657TIP3    H126530   0.444   6.206   7.576  0.2089  3.0517 -0.3178
 1657TIP3    H226531   0.366   6.225   7.448  0.2994  1.1765 -0.6843
 1658TIP3   OH226532   1.011   1.049   7.954  0.1859 -0.0010  0.1107
 1658TIP3    H126533   0.971   1.107   7.889 -1.6956 -1.0847  0.2249
 1658TIP3    H226534   1.093   1.022   7.914 -0.4482  0.1522 -1.3855
 1659TIP3   OH226535   4.607   4.809   1.395 -0.4599  0.3317 -0.0862
 1659TIP3    H126536   4.636   4.747   1.462 -1.4361  0.6363  0.6428
 1659TIP3    H226537   4.688   4.840   1.354  0.1530  0.1655  0.9649
 1660TIP3   OH226538   0.696   2.851   7.062  0.1088 -1.0392  0.2714
 1660TIP3    H126539   0.744   2.777   7.098  1.6172  0.0995  0.7383
 1660TIP3    H226540   0.669   2.902   7.139 -0.1013 -0.6351 -0.0652
 1661TIP3   OH226541   6.114   2.120   6.251 -1.0093 -0.0433  0.5989
 1661TIP3    H126542   6.148   2.067   6.179  0.9050 -0.0809  1.4605
 1661TIP3    H226543   6.087   2.202   6.210 -0.5954 -0.3244 -0.2469
 1662TIP3   OH226544   7.027   6.582   6.396 -0.1021  0.1287 -0.0098
 1662TIP3    H126545   7.121   6.594   6.410  0.2087 -2.7391  0.9974
 1662TIP3    H226546   6.991   6.565   6.483 -1.4551  0.4582 -0.4663
 1663TIP3   OH226547   6.344   4.443   6.841  0.0669  0.1682 -0.0802
 1663TIP3    H126548   6.268   4.501   6.840  0.0712  0.1700 -0.3495
 1663TIP3    H226549   6.319   4.372   6.900  0.1094  0.5073  0.3429
 1664TIP3   OH226550   1.703   3.114   0.530  0.5815  0.3103  0.2694
 1664TIP3    H126551   1.625   3.127   0.475  0.2710  0.8091  0.8276
 1664TIP3    H226552   1.767   3.073   0.471 -0.5446 -1.3606  0.1448
 1665TIP3   OH226553   5.528   6.247   0.010  0.7545 -0.6199 -0.1019
 1665TIP3    H126554   5.604   6.236  -0.047  1.2951  0.2504  0.4201
 1665TIP3    H226555   5.488   6.160   0.014 -0.7066 -0.2585 -3.6695
 1666TIP3   OH226556   2.134   2.461   7.261  0.1342  0.2454  0.2141
 1666TIP3    H126557   2.222   2.436   7.290 -0.8060 -1.5421  1.7622
 1666TIP3    H226558   2.132   2.439   7.168  1.4111  0.6737  0.0616
 1667TIP3   OH226559   6.405   7.069   7.586  0.2631 -0.8019 -0.0929
 1667TIP3    H126560   6.411   7.031   7.498  0.0810 -0.4354 -0.2634
 1667TIP3    H226561   6.313   7.062   7.609 -0.2396  1.6877 -1.0967
 1668TIP3   OH226562   6.645   0.576   1.312 -0.2246 -0.3524  0.1405
 1668TIP3    H126563   6.614   0.663   1.338 -0.6629 -0.6007  0.4686
 1668TIP3    H226564   6.682   0.589   1.224 -0.8401  0.0492 -0.0672
 1669TIP3   OH226565   2.307   2.920   0.965 -0.7212  0.2872 -0.2230
 1669TIP3    H126566   2.235   2.956   0.913 -0.2321  1.4628 -0.1195
 1669TIP3    H226567   2.336   2.843   0.916  0.0818  1.6560 -2.0144
 1670TIP3   OH226568   3.742   2.842   6.912 -0.3270  0.4424  0.6310
 1670TIP3    H126569   3.663   2.891   6.936 -2.3431 -1.4297 -1.7385
 1670TIP3    H226570   3.750   2.853   6.818  1.1203 -1.0275  0.5389
 1671TIP3   OH226571   4.403   4.661   6.827  0.2125 -0.1175 -0.6540
 1671TIP3    H126572   4.374   4.737   6.777  1.9395  0.8494 -0.2864
 1671TIP3    H226573   4.489   4.687   6.861 -0.7923 -0.7563  2.7383
 1672TIP3   OH226574   6.907   1.180   0.620  0.1876  0.3460 -0.8098
 1672TIP3    H126575   6.837   1.231   0.580 -0.3340  0.8687  0.7173
 1672TIP3    H226576   6.909   1.098   0.569 -0.5589  0.9089 -1.7671
 1673TIP3   OH226577   1.536   5.900   0.787  0.1248  0.3398  0.0271
 1673TIP3    H126578   1.553   5.814   0.751  1.6024  1.1126 -1.2108
 1673TIP3    H226579   1.603   5.957   0.749 -1.1130  2.1525  0.3764
 1674TIP3   OH226580   4.317   0.499   0.922  0.2141 -0.4094 -0.4541
 1674TIP3    H126581   4.282   0.577   0.878 -0.8410  1.0650  2.6768
 1674TIP3    H226582   4.241   0.462   0.967  1.7878  0.4870  3.2391
 1675TIP3   OH226583   4.981   4.135   1.370 -0.4335 -0.0776 -0.1237
 1675TIP3    H126584   5.032   4.084   1.433 -0.5471  1.4776  1.2990
 1675TIP3    H226585   4.913   4.177   1.422 -0.9539  0.7312 -1.3972
 1676TIP3   OH226586   1.369   5.914   6.735 -0.5698 -0.0501  0.0727
 1676TIP3    H126587   1.385   5.886   6.645  0.6902 -1.6211  0.7364
 1676TIP3    H226588   1.425   5.991   6.746 -0.1550 -0.2955 -0.2731
 1677TIP3   OH226589   6.661   3.117   0.024 -0.8016 -0.1800 -0.4064
 1677TIP3    H126590   6.656   3.209   0.049 -2.2525 -0.2473 -0.3521
 1677TIP3    H226591   6.623   3.069   0.098  2.2593 -1.1056  0.7246
 1678TIP3   OH226592   3.974   6.892   1.586  0.1847  0.2805  0.1395
 1678TIP3    H126593   3.895   6.840   1.594 -0.1730  0.6068 -1.0838
 1678TIP3    H226594   4.031   6.860   1.656  0.1793 -2.1058 -0.8508
 1679TIP3   OH226595   3.426   4.450   6.654  0.0224  0.2224 -0.3307
 1679TIP3    H126596   3.356   4.391   6.681  0.6452 -0.9539 -1.1849
 1679TIP3    H226597   3.470   4.404   6.582  0.8976  1.4753 -0.6345
 1680TIP3   OH226598   3.901   1.634   1.781 -0.4027 -0.0709  0.1516
 1680TIP3    H126599   3.813   1.633   1.742  0.3419  1.4814 -1.7246
 1680TIP3    H226600   3.952   1.690   1.723  2.2220 -2.0469  0.4134
 1681TIP3   OH226601   4.696   5.040   6.215 -1.0322  0.0286  0.0738
 1681TIP3    H126602   4.702   5.049   6.310  0.1263 -1.7251  0.2098
 1681TIP3    H226603   4.667   5.126   6.185 -0.6661  0.8604  1.9312
 1682TIP3   OH226604   2.432   6.340   6.021  0.0794 -0.3171 -0.2346
 1682TIP3    H126605   2.470   6.401   5.957 -0.1121  0.3114  0.2343
 1682TIP3    H226606   2.451   6.253   5.986 -2.7863 -0.0502 -2.7940
 1683TIP3   OH226607   3.832   0.799   6.518 -0.7609 -0.6661  0.2322
 1683TIP3    H126608   3.799   0.882   6.484  2.7295  0.5806 -0.5584
 1683TIP3    H226609   3.859   0.819   6.607 -1.5554 -1.4666  0.6596
 1684TIP3   OH226610   2.851   3.093   0.055  0.1114  0.0387  0.3209
 1684TIP3    H126611   2.768   3.053   0.082  0.4939 -0.0835  1.3314
 1684TIP3    H226612   2.888   3.030  -0.008 -0.4058 -0.0581  0.1060
 1685TIP3   OH226613   0.489   1.347   1.823 -0.2901 -0.9145  0.1955
 1685TIP3    H126614   0.482   1.424   1.880 -0.0483 -0.1606 -0.7553
 1685TIP3    H226615   0.569   1.303   1.851  0.7897  0.4129 -0.6793
 1686TIP3   OH226616   4.502   6.799   0.537  0.1696  0.6768  0.0368
 1686TIP3    H126617   4.524   6.706   0.546 -1.0804  0.4364  0.8537
 1686TIP3    H226618   4.585   6.845   0.553  0.9414 -0.2929 -1.0008
 1687TIP3   OH226619   5.904   3.109   7.183  0.5127 -0.4425  0.1865
 1687TIP3    H126620   5.864   3.196   7.185  0.0197 -0.6620  0.1057
 1687TIP3    H226621   5.838   3.051   7.222  0.0270 -1.0870 -1.4581
 1688TIP3   OH226622   1.912   1.793   6.639  0.1626 -0.8520  0.1013
 1688TIP3    H126623   1.969   1.828   6.571 -0.8609 -0.1678 -0.4367
 1688TIP3    H226624   1.941   1.837   6.719  0.6106 -0.7693 -0.1040
 1689TIP3   OH226625   3.188   3.307   6.344  0.0754 -0.1804 -0.4718
 1689TIP3    H126626   3.242   3.315   6.266  1.8270  0.3939  0.7438
 1689TIP3    H226627   3.213   3.222   6.382  0.9751  0.5611  0.6684
 1690TIP3   OH226628   3.586   2.892   0.149 -0.5767 -0.3752 -0.4238
 1690TIP3    H126629   3.502   2.848   0.134 -1.5428  1.1997  0.0655
 1690TIP3    H226630   3.592   2.901   0.244 -0.3518  0.3953 -0.4999
 1691TIP3   OH226631   6.234   1.863   2.068 -0.4561 -0.2600  0.0560
 1691TIP3    H126632   6.263   1.816   1.989 -0.7835 -0.6696  0.1754
 1691TIP3    H226633   6.310   1.862   2.126 -0.3257 -0.2657 -0.1144
 1692TIP3   OH226634   0.658   3.894   7.433 -0.3076  0.4455  0.1836
 1692TIP3    H126635   0.752   3.898   7.416 -0.0380  1.2533  1.6975
 1692TIP3    H226636   0.651   3.881   7.528 -1.7205 -0.2844  0.0018
 1693TIP3   OH226637   3.291   2.159   0.107  0.3825 -0.3290 -0.4847
 1693TIP3    H126638   3.376   2.199   0.089  1.0638 -0.7110  1.5655
 1693TIP3    H226639   3.307   2.102   0.182 -1.8205  0.0101  0.3213
 1694TIP3   OH226640   5.321   4.250   6.275  0.0546  0.3238 -0.2801
 1694TIP3    H126641   5.323   4.338   6.311 -0.1187  0.3805 -0.4073
 1694TIP3    H226642   5.295   4.262   6.183  0.7618  0.2083 -0.4980
 1695TIP3   OH226643   4.767   6.931   6.962  0.2554 -0.4064  0.5414
 1695TIP3    H126644   4.681   6.956   6.995  0.4577  2.4305 -0.7995
 1695TIP3    H226645   4.759   6.936   6.867  2.2629  1.5963  0.3812
 1696TIP3   OH226646   6.410   3.130   6.140  0.2977 -0.0560 -0.7916
 1696TIP3    H126647   6.368   3.182   6.208 -0.1708 -0.9341 -0.3939
 1696TIP3    H226648   6.388   3.174   6.058 -2.8420 -1.3377 -0.7919
 1697TIP3   OH226649   3.594   4.230   6.546  0.4125 -0.2550  0.2469
 1697TIP3    H126650   3.651   4.297   6.507  2.0234 -1.3499  0.6095
 1697TIP3    H226651   3.562   4.180   6.470 -0.3981  0.5780  0.0143
 1698TIP3   OH226652   5.026   3.206   0.660  0.6964 -0.1751 -0.7770
 1698TIP3    H126653   4.963   3.195   0.732  0.3347 -0.3814 -1.1198
 1698TIP3    H226654   5.040   3.301   0.655 -0.6981  0.0220 -1.6183
 1699TIP3   OH226655   2.532   2.485   5.511  0.2579  0.0853 -0.2845
 1699TIP3    H126656   2.515   2.406   5.563  0.5345 -0.1901 -0.6117
 1699TIP3    H226657   2.622   2.475   5.480  1.1713  1.6347  1.6085
 1700TIP3   OH226658   2.176   3.422   7.540 -0.2169 -0.1920 -0.7209
 1700TIP3    H126659   2.137   3.405   7.454  0.5082 -2.7898 -0.6155
 1700TIP3    H226660   2.257   3.469   7.521  0.9232 -2.4179 -1.7036
 1701TIP3   OH226661   0.389   3.509   6.738 -0.1172 -0.6134  0.1468
 1701TIP3    H126662   0.391   3.420   6.773 -1.7376 -0.9395 -0.5262
 1701TIP3    H226663   0.304   3.544   6.765  0.6484  0.8838  0.7346
 1702TIP3   OH226664   4.222   3.113   7.809  0.2065  0.1525 -0.3759
 1702TIP3    H126665   4.305   3.086   7.771  0.3508 -0.0559  0.0800
 1702TIP3    H226666   4.215   3.206   7.789  0.3299  0.0720 -0.8100
 1703TIP3   OH226667   5.144   1.250   1.978 -0.5056 -0.1993 -0.6169
 1703TIP3    H126668   5.053   1.278   1.992 -0.4351 -0.4562  0.3858
 1703TIP3    H226669   5.195   1.331   1.984 -0.5259 -0.2418  0.1980
 1704TIP3   OH226670   2.926   0.503   6.113  0.2236 -0.0618 -0.1769
 1704TIP3    H126671   2.861   0.527   6.048  0.2554 -2.5391 -1.2479
 1704TIP3    H226672   3.011   0.517   6.070  0.2667 -0.8621 -0.3661
 1705TIP3   OH226673   7.116   6.214   7.281 -0.2782 -0.2117  0.3904
 1705TIP3    H126674   7.058   6.148   7.241  0.2451 -3.0076  3.8130
 1705TIP3    H226675   7.056   6.278   7.319 -1.1079 -1.5769  1.4841
 1706TIP3   OH226676   1.054   0.598   7.526 -0.4013  0.6611 -0.0139
 1706TIP3    H126677   1.143   0.630   7.536  0.1527 -1.2615  2.0917
 1706TIP3    H226678   1.045   0.581   7.432  1.7586  0.0725 -0.1624
 1707TIP3   OH226679   6.680   5.397   1.560  0.0279  0.2045  0.2974
 1707TIP3    H126680   6.745   5.363   1.621  0.4218 -1.7151 -1.0721
 1707TIP3    H226681   6.724   5.398   1.475 -1.3207  0.0822 -0.4465
 1708TIP3   OH226682   1.375   4.603   7.126 -0.0421 -0.4370  0.6219
 1708TIP3    H126683   1.323   4.610   7.206 -0.4103  1.7284  0.2673
 1708TIP3    H226684   1.383   4.694   7.095  1.8640 -0.9841 -0.6761
 1709TIP3   OH226685   5.662   1.209   6.309 -0.2534  0.2761  0.0864
 1709TIP3    H126686   5.756   1.194   6.296 -0.1973  1.2323 -0.8089
 1709TIP3    H226687   5.657   1.263   6.389  0.2350  2.6240 -1.3632
 1710TIP3   OH226688   3.173   6.460   0.374  0.5038  0.1780 -0.2587
 1710TIP3    H126689   3.243   6.524   0.381  1.0743 -0.5225  0.8144
 1710TIP3    H226690   3.169   6.419   0.460  1.7526 -2.8345 -1.5019
 1711TIP3   OH226691   3.184   3.289   7.225  0.5580 -0.3190  0.4967
 1711TIP3    H126692   3.168   3.195   7.229  1.5671 -0.4559  2.0024
 1711TIP3    H226693   3.096   3.328   7.227 -0.0150 -1.2192 -2.5512
 1712TIP3   OH226694   5.006   2.770   6.281 -0.2685 -0.1784 -0.1996
 1712TIP3    H126695   5.006   2.837   6.213 -3.5904 -0.8426 -1.0549
 1712TIP3    H226696   4.992   2.688   6.233  0.4360 -1.0681  1.0696
 1713TIP3   OH226697   6.723   1.811   0.151 -0.0175 -0.5520  0.0827
 1713TIP3    H126698   6.788   1.757   0.196  1.5642  0.6027 -0.7294
 1713TIP3    H226699   6.766   1.837   0.070 -1.0077  1.3036  0.1031
 1714TIP3   OH226700   2.854   1.854   7.393  0.1171  0.0678 -0.2947
 1714TIP3    H126701   2.769   1.809   7.389 -0.4295  1.0953 -0.7866
 1714TIP3    H226702   2.842   1.920   7.461  0.3481  0.5440 -0.7112
 1715TIP3   OH226703   3.376   0.185   0.526 -0.0761  0.5574 -0.2384
 1715TIP3    H126704   3.332   0.157   0.605 -0.0589  1.1682 -0.0071
 1715TIP3    H226705   3.398   0.104   0.480 -0.5012  0.2206  0.1523
 1716TIP3   OH226706   5.117   0.852   6.289  0.3913  0.1145  0.2258
 1716TIP3    H126707   5.079   0.877   6.205 -1.8462 -0.7621  0.8853
 1716TIP3    H226708   5.068   0.904   6.354 -0.0682 -1.3911  1.1563
 1717TIP3   OH226709   3.688   6.736   1.613 -0.0894 -0.1068  0.6245
 1717TIP3    H126710   3.612   6.689   1.648 -0.4955  0.3785  0.4053
 1717TIP3    H226711   3.760   6.673   1.619 -0.0252  0.1016  2.7562
 1718TIP3   OH226712   4.464   0.189   7.098  0.1469 -0.6489 -0.1062
 1718TIP3    H126713   4.383   0.234   7.120 -0.5377 -2.3876  1.1550
 1718TIP3    H226714   4.454   0.165   7.006 -1.3863 -1.9473  0.3460
 1719TIP3   OH226715   3.734   1.015   6.388 -0.2172 -0.5400  0.0289
 1719TIP3    H126716   3.656   1.067   6.409 -0.7360 -0.6544 -1.4976
 1719TIP3    H226717   3.780   1.067   6.321  1.2668 -0.2694  1.2023
 1720TIP3   OH226718   2.861   6.626   7.940  0.0109 -0.1348 -0.1684
 1720TIP3    H126719   2.921   6.636   7.865  1.0043  0.2891  0.6641
 1720TIP3    H226720   2.863   6.533   7.960  1.2520  0.0089  0.5117
 1721TIP3   OH226721   3.241   4.794   0.527 -0.1795  0.2771 -0.3036
 1721TIP3    H126722   3.161   4.794   0.579  0.5707  0.0413  0.9045
 1721TIP3    H226723   3.291   4.719   0.561  0.8105  0.7843 -0.6028
 1722TIP3   OH226724   1.108   4.350   1.346 -0.0202 -0.0165  0.1089
 1722TIP3    H126725   1.043   4.279   1.343 -0.4680  0.3478  0.7537
 1722TIP3    H226726   1.142   4.347   1.435  0.1302  0.4262  0.0674
 1723TIP3   OH226727   0.726   4.109   6.228  0.9514  0.2658 -0.1808
 1723TIP3    H126728   0.789   4.133   6.159  2.3992  0.2971  1.0899
 1723TIP3    H226729   0.640   4.123   6.189  1.7322  0.2812 -1.9771
 1724TIP3   OH226730   4.093   2.312   7.377  0.2799 -0.2799  0.2081
 1724TIP3    H126731   4.166   2.346   7.325  0.3288  0.0558  0.4935
 1724TIP3    H226732   4.055   2.389   7.419  0.7113 -0.6205  1.2733
 1725TIP3   OH226733   6.304   3.380   6.247 -0.3465  0.0866 -0.4397
 1725TIP3    H126734   6.225   3.361   6.197 -0.8276 -0.6534  0.5550
 1725TIP3    H226735   6.273   3.392   6.337  0.7835 -1.5876  0.2295
 1726TIP3   OH226736   6.176   4.726   6.921  0.3737 -0.2564 -0.3467
 1726TIP3    H126737   6.119   4.715   6.846 -0.1694  1.0016 -0.1454
 1726TIP3    H226738   6.119   4.712   6.997 -0.1424  2.6396 -0.1029
 1727TIP3   OH226739   4.832   6.039   1.227 -0.7672  0.0543 -0.0196
 1727TIP3    H126740   4.800   6.122   1.262  1.1268  0.4775  0.8847
 1727TIP3    H226741   4.767   6.012   1.162 -1.0252  2.6384 -0.9210
 1728TIP3   OH226742   5.235   0.352   7.833  0.7836  0.1605  0.0264
 1728TIP3    H126743   5.283   0.300   7.897 -0.6275 -1.5008 -0.1906
 1728TIP3    H226744   5.163   0.390   7.882  0.2742 -0.3027 -0.3432
 1729TIP3   OH226745   6.045   4.805   1.384 -0.2539  0.0008 -0.1878
 1729TIP3    H126746   5.966   4.831   1.336 -0.3521  1.7493  0.8333
 1729TIP3    H226747   6.032   4.712   1.402 -2.9008  0.5406  1.3310
 1730TIP3   OH226748   0.934   1.607   5.910 -0.6774 -0.2205 -0.1829
 1730TIP3    H126749   1.009   1.547   5.908 -1.4270 -1.2884  1.2619
 1730TIP3    H226750   0.858   1.550   5.895 -1.4288  0.2809  1.4479
 1731TIP3   OH226751   1.008   6.956   0.782 -0.6831 -0.2160 -0.7465
 1731TIP3    H126752   1.078   6.892   0.795  0.0672  0.4078 -1.5836
 1731TIP3    H226753   1.035   7.032   0.834 -0.8224 -0.0288 -0.9468
 1732TIP3   OH226754   1.650   4.485   1.305 -0.1839 -0.5651  0.3156
 1732TIP3    H126755   1.699   4.522   1.232 -1.4339  1.5476  0.4807
 1732TIP3    H226756   1.585   4.428   1.265  0.7502 -1.4257 -0.0295
 1733TIP3   OH226757   1.996   3.187   6.504  0.0508 -0.7380 -0.6735
 1733TIP3    H126758   1.910   3.230   6.506 -0.0719 -1.0052  0.6100
 1733TIP3    H226759   1.982   3.104   6.550  0.6991 -1.3738 -1.5964
 1734TIP3   OH226760   7.032   1.494   6.805  0.3500 -0.1550 -0.4820
 1734TIP3    H126761   7.105   1.496   6.867 -0.5001 -0.4040  0.5485
 1734TIP3    H226762   6.977   1.421   6.835 -0.4933  0.2326 -1.0430
 1735TIP3   OH226763   1.839   5.575   0.800  0.0688  0.1595  0.5819
 1735TIP3    H126764   1.910   5.588   0.736 -0.2249 -1.9802 -0.2659
 1735TIP3    H226765   1.760   5.570   0.747 -0.1475 -1.9575  1.0209
 1736TIP3   OH226766   1.501   2.464   6.476  0.3959 -0.3542 -0.3401
 1736TIP3    H126767   1.502   2.560   6.473  1.1424 -0.3433  0.0854
 1736TIP3    H226768   1.412   2.442   6.501  0.0926  0.2160 -0.8891
 1737TIP3   OH226769   5.901   3.786   1.630  0.6194  0.0130 -0.7882
 1737TIP3    H126770   5.812   3.753   1.639  0.7219 -0.3302 -1.0294
 1737TIP3    H226771   5.896   3.852   1.561  0.5377  0.0561 -0.7413
 1738TIP3   OH226772   1.540   3.500   6.266  0.6317 -0.6741  0.2454
 1738TIP3    H126773   1.636   3.503   6.257  0.4461 -0.0247 -1.9627
 1738TIP3    H226774   1.517   3.410   6.244  0.6357 -0.4370 -0.7927
 1739TIP3   OH226775   4.833   6.814   0.668 -0.9390 -0.4210  0.0527
 1739TIP3    H126776   4.925   6.826   0.688 -0.7610  1.8767 -1.7640
 1739TIP3    H226777   4.786   6.847   0.745 -0.2647 -0.1711  0.3615
 1740TIP3   OH226778   0.860   4.165   1.333  0.4633 -0.2890 -0.3249
 1740TIP3    H126779   0.772   4.196   1.317 -0.4659 -2.6811 -0.2767
 1740TIP3    H226780   0.851   4.070   1.344  2.9400 -0.5326  0.3589
 1741TIP3   OH226781   5.600   0.700   1.218  0.3825 -0.2697  0.0510
 1741TIP3    H126782   5.537   0.704   1.289  0.6328  0.8131  0.2408
 1741TIP3    H226783   5.559   0.646   1.151 -1.8728  2.3285 -0.8637
 1742TIP3   OH226784   3.247   2.795   7.874 -0.1028  0.3555 -0.0608
 1742TIP3    H126785   3.152   2.791   7.870 -0.4188  2.5112  2.3315
 1742TIP3    H226786   3.277   2.740   7.802 -3.1440  0.1508 -1.3155
 1743TIP3   OH226787   0.022   1.655   0.375 -0.0208 -0.0636 -0.2596
 1743TIP3    H126788  -0.030   1.613   0.306  0.0915 -3.1411  1.4078
 1743TIP3    H226789  -0.042   1.681   0.441  0.1054  0.8629 -0.4793
 1744TIP3   OH226790   1.741   2.954   0.261  0.5004  0.2366 -0.3942
 1744TIP3    H126791   1.764   2.925   0.349 -0.8343  0.5594  0.0792
 1744TIP3    H226792   1.774   2.884   0.204  2.4633  0.6023  0.2216
 1745TIP3   OH226793   2.149   5.581   7.598  0.5068 -0.3103  0.4329
 1745TIP3    H126794   2.107   5.667   7.598 -0.3128 -0.7012 -0.1106
 1745TIP3    H226795   2.192   5.575   7.683 -0.5386  0.1166  1.0080
 1746TIP3   OH226796   0.954   3.297   7.190  0.1216  0.2592 -0.5031
 1746TIP3    H126797   0.867   3.292   7.149  0.0778  0.1467 -0.3937
 1746TIP3    H226798   0.997   3.370   7.145 -0.2648  0.7374 -0.1047
 1747TIP3   OH226799   3.820   5.515   1.796 -0.2600 -0.3743  0.0373
 1747TIP3    H126800   3.765   5.479   1.726 -1.8998  0.4866  0.8249
 1747TIP3    H226801   3.901   5.464   1.792 -1.3644 -2.1571 -0.7520
 1748TIP3   OH226802   6.449   6.907   0.843 -0.8423  0.4114 -0.2706
 1748TIP3    H126803   6.394   6.834   0.870 -0.7091 -1.6838 -4.8185
 1748TIP3    H226804   6.412   6.936   0.760  2.8127  1.1307 -1.8611
 1749TIP3   OH226805   1.597   3.163   1.485  0.5094 -0.3613 -0.3922
 1749TIP3    H126806   1.682   3.165   1.442  0.2079  2.9107 -1.0560
 1749TIP3    H226807   1.617   3.151   1.578  1.5501 -1.2937 -0.7138
 1750TIP3   OH226808   4.302   2.477   0.349  0.2577 -0.4860 -0.5501
 1750TIP3    H126809   4.284   2.396   0.397 -0.5349 -0.3191 -0.5684
 1750TIP3    H226810   4.342   2.534   0.414 -3.1462  0.7024  0.7040
 1751TIP3   OH226811   5.263   0.922   0.985  0.1729  0.2894  0.3114
 1751TIP3    H126812   5.210   0.913   1.064  0.5722  2.2181  0.8549
 1751TIP3    H226813   5.213   0.877   0.917 -2.1208  1.9153  0.8277
 1752TIP3   OH226814   5.353   5.898   1.423 -0.2292  0.1479  0.2646
 1752TIP3    H126815   5.317   5.878   1.509 -0.6234  0.2780  0.1314
 1752TIP3    H226816   5.278   5.892   1.363 -0.4248  2.1348  0.2376
 1753TIP3   OH226817   5.719   2.418   5.697 -0.2679  0.1353 -0.4801
 1753TIP3    H126818   5.770   2.372   5.630 -0.4595  0.4903 -0.8751
 1753TIP3    H226819   5.753   2.508   5.694  0.1131  0.0267  0.2919
 1754TIP3   OH226820   6.029   2.813   5.721  0.6216  0.3321  0.8135
 1754TIP3    H126821   6.066   2.808   5.632  0.7160  3.0088  0.6130
 1754TIP3    H226822   5.952   2.756   5.718 -0.0343  1.2125 -1.3916
 1755TIP3   OH226823   5.778   2.040   7.790  0.5173  0.0076  0.0899
 1755TIP3    H126824   5.858   2.005   7.752  0.0323 -1.3685  0.2949
 1755TIP3    H226825   5.741   2.096   7.722  1.2760  0.0772 -0.2725
 1756TIP3   OH226826   0.511   3.973   1.030 -0.0683  0.3058 -0.3765
 1756TIP3    H126827   0.530   3.965   0.937  1.8471  0.3390 -0.0244
 1756TIP3    H226828   0.582   3.927   1.074 -0.1603  1.4800  1.1118
 1757TIP3   OH226829   1.116   6.308   7.641  0.0283  0.2816  0.0153
 1757TIP3    H126830   1.104   6.332   7.549 -0.6495  1.3963  0.3750
 1757TIP3    H226831   1.210   6.288   7.648  0.0509 -0.0390 -0.9502
 1758TIP3   OH226832   0.139   4.925   5.835 -0.1341 -0.0862 -0.2749
 1758TIP3    H126833   0.153   4.941   5.928 -0.9854  0.4606 -0.2181
 1758TIP3    H226834   0.082   4.848   5.832 -0.6639  0.3003 -0.3056
 1759TIP3   OH226835   5.849   6.920   1.710  0.3353  0.3114  0.2443
 1759TIP3    H126836   5.768   6.886   1.672 -0.4553 -0.0304  2.0932
 1759TIP3    H226837   5.869   6.859   1.781  1.7470  0.8744  0.3620
 1760TIP3   OH226838   2.362   5.237   0.054  0.8249  0.3686 -0.7603
 1760TIP3    H126839   2.324   5.264   0.138 -0.4792  0.8454 -1.4922
 1760TIP3    H226840   2.416   5.161   0.076  0.9502  0.8168  0.5957
 1761TIP3   OH226841   3.337   5.880   6.205  0.5610  0.1092 -0.0850
 1761TIP3    H126842   3.310   5.951   6.147  1.0249  0.5412  0.2129
 1761TIP3    H226843   3.369   5.925   6.284  1.4781 -0.3956 -0.1519
 1762TIP3   OH226844   3.758   4.459   0.127 -0.1798 -0.3088 -0.1633
 1762TIP3    H126845   3.740   4.552   0.137 -0.2451 -0.0978 -2.0008
 1762TIP3    H226846   3.800   4.434   0.210  0.6509  1.5393  0.0263
 1763TIP3   OH226847   6.797   6.631   7.996  0.5157 -0.6981 -0.6955
 1763TIP3    H126848   6.779   6.715   7.954 -2.5913 -1.8119 -1.9105
 1763TIP3    H226849   6.855   6.652   8.069 -1.5843  2.8484  0.1887
 1764TIP3   OH226850   7.116   4.261   7.066  0.2417 -0.0689 -0.3370
 1764TIP3    H126851   7.205   4.276   7.032  0.1314  0.9414 -0.2101
 1764TIP3    H226852   7.127   4.191   7.130  0.5870 -1.4809 -1.8588
 1765TIP3   OH226853   6.145   2.399   7.050  0.7643 -0.0984  0.1541
 1765TIP3    H126854   6.229   2.353   7.052  1.4320  1.0959  0.3888
 1765TIP3    H226855   6.132   2.421   6.957  0.7450 -0.2172  0.1284
 1766TIP3   OH226856   4.670   3.240   7.044 -0.1863 -0.5510  0.8729
 1766TIP3    H126857   4.683   3.325   7.002  1.1662  0.3184  2.8825
 1766TIP3    H226858   4.639   3.183   6.974 -0.1467  1.3303 -0.7627
 1767TIP3   OH226859   5.943   0.865   6.922 -0.4857  0.6154  0.1267
 1767TIP3    H126860   5.895   0.897   6.999 -0.0689 -1.4806  1.3336
 1767TIP3    H226861   5.903   0.912   6.848  1.3173  5.3437  1.7610
 1768TIP3   OH226862   5.678   3.456   6.320  0.7208  0.2786  0.0233
 1768TIP3    H126863   5.696   3.476   6.228  2.4734  1.4059  0.5518
 1768TIP3    H226864   5.730   3.520   6.369 -0.9073  0.3358  1.8141
 1769TIP3   OH226865   1.565   0.170   7.933  0.3785 -0.0056 -0.0255
 1769TIP3    H126866   1.651   0.186   7.895  0.5405  0.0909  0.3803
 1769TIP3    H226867   1.503   0.204   7.868  0.6550  0.1832 -0.1883
 1770TIP3   OH226868   1.658   0.463   7.770 -0.1247  0.2877 -0.8265
 1770TIP3    H126869   1.602   0.394   7.736  1.7612 -1.0468 -1.3841
 1770TIP3    H226870   1.737   0.418   7.801 -0.4082  1.7509  2.5268
 1771TIP3   OH226871   6.444   4.055   7.372  0.5860 -0.3128  0.4825
 1771TIP3    H126872   6.495   4.100   7.440 -0.4127  1.4587  0.1084
 1771TIP3    H226873   6.359   4.040   7.413 -0.3054  1.5089 -0.5668
 1772TIP3   OH226874   0.081   3.213   6.231  0.0418  0.0881 -0.2437
 1772TIP3    H126875   0.120   3.227   6.145 -1.7004 -1.9313 -1.4489
 1772TIP3    H226876   0.002   3.268   6.230 -0.5422 -0.7458 -0.3631
 1773TIP3   OH226877   5.176   5.925   0.472 -0.1302  0.9376 -0.4391
 1773TIP3    H126878   5.247   5.948   0.532  1.1113  0.2080 -1.5716
 1773TIP3    H226879   5.102   5.906   0.529  1.2243 -0.5325  0.9510
 1774TIP3   OH226880   6.401   0.200   1.081 -0.6452 -0.0882 -0.5105
 1774TIP3    H126881   6.447   0.282   1.062 -0.2588 -0.3091 -0.5257
 1774TIP3    H226882   6.469   0.141   1.113 -1.0014 -0.2678 -0.0887
 1775TIP3   OH226883   2.760   4.851   7.183  0.2147 -0.5323 -0.2239
 1775TIP3    H126884   2.817   4.845   7.259 -1.1661  1.2322  1.0663
 1775TIP3    H226885   2.687   4.906   7.213 -0.0466  0.8117 -3.0167
 1776TIP3   OH226886   2.902   5.162   0.409 -0.2611  0.7230  0.1794
 1776TIP3    H126887   2.923   5.117   0.490 -0.5617 -1.1859 -0.7614
 1776TIP3    H226888   2.823   5.119   0.377 -0.2357  1.5407 -1.0503
 1777TIP3   OH226889   6.614   3.130   1.362  0.1673 -0.2981 -0.3440
 1777TIP3    H126890   6.538   3.163   1.314 -0.4259  0.8530  1.3080
 1777TIP3    H226891   6.685   3.190   1.338  0.2259 -0.5573 -0.8318
 1778TIP3   OH226892   6.039   5.426   7.795 -1.1129  0.1873  0.6545
 1778TIP3    H126893   6.050   5.480   7.717 -0.5316 -0.1679  0.4862
 1778TIP3    H226894   5.963   5.372   7.777 -0.3407 -0.6655 -0.1210
 1779TIP3   OH226895   6.949   3.027   2.241  0.6072  0.4064 -0.2189
 1779TIP3    H126896   6.877   3.023   2.304  2.3082 -1.9569  1.7612
 1779TIP3    H226897   6.934   2.952   2.183  0.5341  1.0030 -1.0038
 1780TIP3   OH226898   2.734   5.937   6.620  0.3290 -0.4437  0.2890
 1780TIP3    H126899   2.670   6.002   6.591  0.1265 -0.7902 -0.0471
 1780TIP3    H226900   2.740   5.950   6.715 -0.2973 -0.4591  0.3342
 1781TIP3   OH226901   2.608   4.200   6.495 -0.2711  0.7007 -0.0496
 1781TIP3    H126902   2.579   4.291   6.491 -0.4595  0.6818  0.6150
 1781TIP3    H226903   2.531   4.149   6.469  0.0414  0.7475 -1.1068
 1782TIP3   OH226904   1.674   6.257   7.058 -0.1139 -0.3995 -0.1435
 1782TIP3    H126905   1.652   6.296   7.143 -0.6628 -1.9526  0.4628
 1782TIP3    H226906   1.613   6.299   6.997  0.2777  0.7243  0.2066
 1783TIP3   OH226907   1.171   2.391   7.136  0.4635  0.6951 -0.0770
 1783TIP3    H126908   1.180   2.378   7.230 -0.3952  1.9284  0.1945
 1783TIP3    H226909   1.133   2.478   7.127 -0.5349  0.1453 -1.5188
 1784TIP3   OH226910   0.421   5.757   0.189  0.1656  0.3963 -0.1205
 1784TIP3    H126911   0.508   5.717   0.191 -0.6040 -1.3459  0.0568
 1784TIP3    H226912   0.378   5.724   0.268 -0.5236  1.5663  0.0046
 1785TIP3   OH226913   0.851   2.581   1.700 -0.2727 -0.0718 -0.4509
 1785TIP3    H126914   0.806   2.617   1.776 -1.5118 -1.8955 -0.2495
 1785TIP3    H226915   0.815   2.493   1.691  0.8579 -0.3890 -2.3332
 1786TIP3   OH226916   4.693   6.316   6.282 -0.5795  0.2473 -0.3517
 1786TIP3    H126917   4.691   6.369   6.361  1.5802 -1.9671  1.3721
 1786TIP3    H226918   4.605   6.279   6.276 -0.3878 -0.8274  2.0829
 1787TIP3   OH226919   6.291   2.445   0.633 -0.2013 -0.1121 -0.0746
 1787TIP3    H126920   6.386   2.433   0.625 -0.5161 -3.1440 -0.3097
 1787TIP3    H226921   6.279   2.540   0.629  2.8970  0.4548  1.1648
 1788TIP3   OH226922   0.439   5.535   7.424  0.4660 -0.7528 -0.4502
 1788TIP3    H126923   0.487   5.562   7.346 -0.7900  3.0024 -0.1150
 1788TIP3    H226924   0.493   5.567   7.497 -0.2062 -0.8011  0.0697
 1789TIP3   OH226925   3.220   2.889   6.681 -0.4830  0.2275 -0.8414
 1789TIP3    H126926   3.149   2.886   6.745 -1.5108  1.7138 -1.8481
 1789TIP3    H226927   3.247   2.797   6.672 -0.1742  0.0001  1.7944
 1790TIP3   OH226928   1.016   1.077   1.380 -0.4508  0.0068 -0.3207
 1790TIP3    H126929   0.922   1.069   1.366 -0.4416 -1.1477  0.1412
 1790TIP3    H226930   1.034   1.020   1.455  0.6751 -0.1301 -0.6703
 1791TIP3   OH226931   1.239   5.488   6.002  0.0530  0.7796 -0.3793
 1791TIP3    H126932   1.146   5.502   5.983  0.5297  1.1842 -2.7324
 1791TIP3    H226933   1.284   5.556   5.952  1.6565  0.1617  0.1740
 1792TIP3   OH226934   5.880   5.998   0.090 -0.3251  0.0022 -0.0722
 1792TIP3    H126935   5.808   5.937   0.070  0.1738 -1.3984  2.0754
 1792TIP3    H226936   5.923   6.012   0.006  0.2888 -3.6557 -0.5443
 1793TIP3   OH226937   5.365   1.728   2.098 -0.5486 -0.2399 -0.2708
 1793TIP3    H126938   5.308   1.738   2.175  0.4223 -0.2230  0.4714
 1793TIP3    H226939   5.333   1.792   2.036 -1.8201 -0.7461 -0.1780
 1794TIP3   OH226940   1.315   7.114   0.379  0.0806 -0.5515 -0.2890
 1794TIP3    H126941   1.288   7.058   0.451 -0.6481  0.7282  0.4613
 1794TIP3    H226942   1.402   7.144   0.404 -0.4379  0.4151  0.3941
 1795TIP3   OH226943   6.497   2.613   7.773 -0.4027  0.0124 -0.5115
 1795TIP3    H126944   6.421   2.669   7.756  0.1772  0.9743 -0.0472
 1795TIP3    H226945   6.541   2.606   7.688  0.1830  1.3039 -0.3453
 1796TIP3   OH226946   5.458   0.173   1.170  0.8974 -0.6073  0.1495
 1796TIP3    H126947   5.384   0.196   1.115  1.0793  1.0327  0.5319
 1796TIP3    H226948   5.420   0.140   1.251  0.5485  0.5146  0.4622
 1797TIP3   OH226949   0.178   5.664   0.659 -0.4226 -0.5940 -0.1736
 1797TIP3    H126950   0.267   5.655   0.694  0.1673 -0.8465 -1.6332
 1797TIP3    H226951   0.148   5.750   0.690  0.2711 -0.5756  0.4634
 1798TIP3   OH226952   0.742   3.804   1.115  0.4708  0.4814  0.1262
 1798TIP3    H126953   0.823   3.789   1.164 -1.1040  0.0897  2.7875
 1798TIP3    H226954   0.685   3.732   1.140 -1.1230  1.3699 -0.7829
 1799TIP3   OH226955   7.098   1.927   6.656  0.0003  0.0707 -0.4121
 1799TIP3    H126956   7.082   1.988   6.728 -0.4991  0.2007 -0.6272
 1799TIP3    H226957   7.174   1.963   6.610  1.7611 -1.2199  1.3448
 1800TIP3   OH226958   5.499   4.174   0.502  0.3670 -0.3191  0.5860
 1800TIP3    H126959   5.568   4.146   0.442 -0.1960 -2.7451  0.9602
 1800TIP3    H226960   5.500   4.110   0.573 -1.8947 -0.1325  0.8878
 1801TIP3   OH226961   4.872   5.774   1.347 -0.2335 -0.2394 -0.1613
 1801TIP3    H126962   4.794   5.728   1.379 -0.7315  1.3882  1.1134
 1801TIP3    H226963   4.841   5.861   1.321  0.8215 -0.2657 -1.6502
 1802TIP3   OH226964   1.674   5.803   0.199 -0.0204  0.0407  0.2433
 1802TIP3    H126965   1.619   5.729   0.225  0.4972  0.2254  2.0272
 1802TIP3    H226966   1.742   5.765   0.145  1.0000 -1.0696  2.1994
 1803TIP3   OH226967   3.501   4.291   0.622  0.3465 -0.3522  0.3206
 1803TIP3    H126968   3.544   4.227   0.565  1.3861  1.0753 -0.5866
 1803TIP3    H226969   3.574   4.335   0.667 -0.0887  1.8982 -0.9989
 1804TIP3   OH226970   5.941   4.298   7.950  0.4616  0.3939  0.1453
 1804TIP3    H126971   5.861   4.247   7.962  1.9362 -1.9127  0.8959
 1804TIP3    H226972   5.968   4.280   7.860  0.3438  0.9174 -0.0029
 1805TIP3   OH226973   6.801   4.054   6.763  0.0385  0.1368 -0.0743
 1805TIP3    H126974   6.847   4.014   6.689 -0.3621 -0.8047  0.1741
 1805TIP3    H226975   6.861   4.122   6.794  1.0647 -0.7398 -0.0616
 1806TIP3   OH226976   1.215   0.647   1.060  0.4414  0.1326  0.4935
 1806TIP3    H126977   1.273   0.583   1.102 -0.2572  0.4360  2.0006
 1806TIP3    H226978   1.145   0.661   1.124 -1.2427 -0.1060 -1.1852
 1807TIP3   OH226979   1.013   6.372   7.889 -0.0022 -0.1740 -0.1533
 1807TIP3    H126980   1.012   6.336   7.800  2.8147  1.8587 -1.1715
 1807TIP3    H226981   1.074   6.316   7.937  0.4171  0.1895 -0.2541
 1808TIP3   OH226982   4.586   6.974   0.216  0.2993  0.4314  0.1509
 1808TIP3    H126983   4.627   6.931   0.291 -1.1059  1.6931  1.7172
 1808TIP3    H226984   4.546   6.903   0.166 -1.6333 -0.2533  2.4525
 1809TIP3   OH226985   0.007   3.010   1.129 -0.0457 -0.5135 -0.4207
 1809TIP3    H126986   0.066   2.975   1.062 -0.7991  0.0289 -1.4001
 1809TIP3    H226987   0.004   3.104   1.112 -0.9188 -0.4857 -0.1827
 1810TIP3   OH226988   3.024   6.973   7.495 -0.3449  0.1097  0.4245
 1810TIP3    H126989   3.035   6.948   7.403 -1.8592 -0.9635  0.4878
 1810TIP3    H226990   3.005   6.890   7.539 -0.1905  0.6950  1.6185
 1811TIP3   OH226991   4.127   2.681   6.857  0.0242 -0.2545  0.5602
 1811TIP3    H126992   4.208   2.636   6.880  0.1870 -0.6985 -0.7537
 1811TIP3    H226993   4.062   2.610   6.849  0.0487 -0.1799 -0.5391
 1812TIP3   OH226994   4.785   0.256   6.060  0.5116 -0.0959 -0.2043
 1812TIP3    H126995   4.856   0.224   6.005 -1.5955 -3.6812 -1.2146
 1812TIP3    H226996   4.746   0.176   6.097 -5.7688  0.7990 -3.4010
 1813TIP3   OH226997   6.436   6.787   6.373  0.0288 -0.0995  0.2228
 1813TIP3    H126998   6.376   6.823   6.438  0.0898  1.0379 -0.3257
 1813TIP3    H226999   6.386   6.788   6.291  0.9674  1.5295 -0.3921
 1814TIP3   OH227000   0.874   1.785   1.546  0.1734 -0.1677  0.6832
 1814TIP3    H127001   0.925   1.801   1.625  1.6787  1.4669 -0.5348
 1814TIP3    H227002   0.828   1.868   1.530 -0.4843 -0.6280  0.0826
 1815TIP3   OH227003   1.442   0.292   7.720 -0.1270  0.5203  0.2765
 1815TIP3    H127004   1.347   0.302   7.730 -0.5474 -3.5397  2.5181
 1815TIP3    H227005   1.453   0.252   7.634 -0.2199  2.3207 -0.6124
 1816TIP3   OH227006   3.671   5.310   1.540  0.4249 -0.4050  0.7296
 1816TIP3    H127007   3.766   5.318   1.532  0.2625  2.3429  0.6417
 1816TIP3    H227008   3.636   5.355   1.463 -0.9879 -2.4717  0.0840
 1817TIP3   OH227009   1.838   6.074   1.051 -0.4436  0.2561 -0.3183
 1817TIP3    H127010   1.824   5.981   1.033  0.8698 -0.6718  2.7987
 1817TIP3    H227011   1.779   6.120   0.991 -0.3195 -2.4935 -2.7540
 1818TIP3   OH227012   6.610   4.630   5.786  0.0416  0.0974 -0.0447
 1818TIP3    H127013   6.563   4.547   5.793  1.1729 -0.6106 -0.5652
 1818TIP3    H227014   6.542   4.695   5.767 -0.5248 -1.2002 -2.8819
 1819TIP3   OH227015   1.958   6.519   1.769  0.7175 -0.3993  0.3408
 1819TIP3    H127016   1.964   6.601   1.818 -0.0767  0.5771 -1.1426
 1819TIP3    H227017   1.901   6.464   1.824  0.1954  0.5055  0.7417
 1820TIP3   OH227018   1.347   4.504   1.107  0.3391  0.5143  0.1453
 1820TIP3    H127019   1.377   4.427   1.155  0.7810  0.4887 -0.1594
 1820TIP3    H227020   1.252   4.494   1.100  0.5377 -0.7536 -1.1454
 1821TIP3   OH227021   4.869   3.681   7.312  0.1878 -0.4543  0.8861
 1821TIP3    H127022   4.859   3.599   7.360  1.4779 -0.7632  0.6728
 1821TIP3    H227023   4.963   3.688   7.298 -0.0550  0.2846 -0.4679
 1822TIP3   OH227024   2.104   1.051   6.848  0.3964  0.1825 -0.3479
 1822TIP3    H127025   2.151   0.983   6.896  1.1467 -0.2392 -1.6296
 1822TIP3    H227026   2.052   1.004   6.783  1.5306  0.8077 -1.7784
 1823TIP3   OH227027   7.061   0.653   0.511 -0.7397 -0.2937 -0.9587
 1823TIP3    H127028   7.003   0.669   0.437  0.5428  1.1045 -1.7197
 1823TIP3    H227029   7.143   0.623   0.472  0.3614  1.6184 -0.2527
 1824TIP3   OH227030   4.060   4.258   0.061  0.0210 -0.9625 -0.0292
 1824TIP3    H127031   3.983   4.232   0.009 -0.2581 -0.5239  0.1529
 1824TIP3    H227032   4.117   4.182   0.060 -0.1651 -1.1003 -0.6399
 1825TIP3   OH227033   6.110   5.646   7.291  0.0193 -0.0549 -0.0822
 1825TIP3    H127034   6.067   5.732   7.288  2.9189  1.7098  2.4208
 1825TIP3    H227035   6.182   5.654   7.228  1.0254 -0.1517  1.0319
 1826TIP3   OH227036   6.968   3.895   1.080 -0.0128  0.6806 -0.7494
 1826TIP3    H127037   6.946   3.804   1.057  0.4241  0.2360  0.4918
 1826TIP3    H227038   6.932   3.906   1.168  1.7291  1.0334 -0.0464
 1827TIP3   OH227039   1.692   2.123   7.450 -0.1207  0.0165  0.0557
 1827TIP3    H127040   1.657   2.047   7.403  0.6827 -0.9521  0.9452
 1827TIP3    H227041   1.767   2.151   7.397  1.6337 -1.9231  1.3405
 1828TIP3   OH227042   0.272   3.181   0.674 -0.4120  0.3744 -0.0126
 1828TIP3    H127043   0.260   3.180   0.579  0.0206  1.3168 -0.0854
 1828TIP3    H227044   0.314   3.096   0.693 -0.9892 -0.0480 -0.5841
 1829TIP3   OH227045   5.153   5.324   7.274  0.3805 -0.3561  0.6826
 1829TIP3    H127046   5.103   5.319   7.192 -2.8594 -2.1326  2.5462
 1829TIP3    H227047   5.202   5.242   7.277  0.0225 -0.5717  0.7628
 1830TIP3   OH227048   2.840   5.719   6.508  0.0627  0.1867 -0.4676
 1830TIP3    H127049   2.796   5.796   6.543  0.5985  0.5694 -0.6299
 1830TIP3    H227050   2.853   5.738   6.415  2.0760  0.8174 -0.1056
 1831TIP3   OH227051   0.721   5.416   1.440 -0.2205 -0.2646  0.6337
 1831TIP3    H127052   0.783   5.376   1.500  0.4768  0.7856  0.6449
 1831TIP3    H227053   0.722   5.360   1.362  0.6065 -0.3596  0.7071
 1832TIP3   OH227054   4.269   2.841   0.236 -0.6304 -0.6856  0.1229
 1832TIP3    H127055   4.321   2.883   0.305  0.0781 -0.9229 -0.2606
 1832TIP3    H227056   4.230   2.915   0.188  0.0958 -0.4686 -0.1513
 1833TIP3   OH227057   4.390   3.572   0.003 -0.3675 -0.6079 -0.0177
 1833TIP3    H127058   4.317   3.632  -0.014  0.3832  0.2851 -0.1388
 1833TIP3    H227059   4.443   3.616   0.069  1.5690  0.0866 -1.9294
 1834TIP3   OH227060   3.073   1.894   7.726  0.0557 -0.0357 -0.2012
 1834TIP3    H127061   3.102   1.985   7.725  3.8743 -1.0745  0.1613
 1834TIP3    H227062   3.068   1.872   7.819  0.8437 -0.6426 -0.2996
 1835TIP3   OH227063   0.727   2.550   6.034 -0.1448 -0.1791 -0.0865
 1835TIP3    H127064   0.794   2.614   6.011  0.7357 -0.8850  0.4226
 1835TIP3    H227065   0.662   2.599   6.084  0.4627  0.3422  0.2045
 1836TIP3   OH227066   3.818   0.928   1.059  0.6783  0.2725 -0.4709
 1836TIP3    H127067   3.802   0.910   0.966 -2.4082 -3.2292  0.4920
 1836TIP3    H227068   3.742   0.979   1.087  0.1758 -1.0011  0.5923
 1837TIP3   OH227069   1.542   3.832   1.301 -0.0456  0.0016 -0.0433
 1837TIP3    H127070   1.636   3.852   1.298  0.2189 -1.2679 -1.1616
 1837TIP3    H227071   1.528   3.773   1.227 -2.0337  1.3305 -0.7982
 1838TIP3   OH227072   2.997   3.642   6.976  0.3605  0.1763  0.1165
 1838TIP3    H127073   3.040   3.659   7.060  0.6019 -1.4350  0.3431
 1838TIP3    H227074   3.065   3.661   6.911  0.1450  1.5198  0.2422
 1839TIP3   OH227075   3.440   4.850   1.167  0.5382  0.1553  0.2350
 1839TIP3    H127076   3.499   4.883   1.099  0.9787 -0.1301  0.4775
 1839TIP3    H227077   3.491   4.856   1.248  0.5289 -0.8591  0.3278
 1840TIP3   OH227078   3.371   6.054   0.185  0.0062 -0.2670  0.4589
 1840TIP3    H127079   3.419   6.013   0.257  3.2550  2.4982  0.1019
 1840TIP3    H227080   3.400   6.006   0.107  1.4392  0.6554  0.3817
 1841TIP3   OH227081   5.053   1.492   7.226  0.4541  0.2786  0.4718
 1841TIP3    H127082   5.132   1.546   7.226  0.4929  0.2331  1.4103
 1841TIP3    H227083   5.044   1.465   7.135 -0.0285  2.5290 -0.2235
 1842TIP3   OH227084   2.221   1.276   0.919  0.3602  0.4565 -0.3348
 1842TIP3    H127085   2.292   1.289   0.856  0.0016  2.7097 -0.3701
 1842TIP3    H227086   2.265   1.270   1.004  0.6797  0.0473 -0.5226
 1843TIP3   OH227087   5.584   6.901   1.936 -0.2645  0.3176 -0.4588
 1843TIP3    H127088   5.594   6.868   1.847  0.3555 -0.6201 -0.0666
 1843TIP3    H227089   5.573   6.995   1.926 -2.0653  0.0222 -1.6311
 1844TIP3   OH227090   5.635   4.821   0.585  0.1735  0.5989  0.1575
 1844TIP3    H127091   5.598   4.735   0.565 -0.2438  0.9025 -0.4069
 1844TIP3    H227092   5.729   4.808   0.584  0.1107  0.1179  0.2206
 1845TIP3   OH227093   1.707   3.489   6.525  0.4728  0.3620  0.3448
 1845TIP3    H127094   1.635   3.466   6.584 -1.3445 -2.7356 -2.6498
 1845TIP3    H227095   1.675   3.564   6.476 -0.1256 -0.0617  0.0689
 1846TIP3   OH227096   5.302   4.901   1.675  0.1924  0.1719 -0.1571
 1846TIP3    H127097   5.232   4.958   1.643 -0.3015  0.1053  0.7640
 1846TIP3    H227098   5.266   4.863   1.755  1.5917  0.7769  0.7916
 1847TIP3   OH227099   2.753   5.662   0.860 -0.5025 -0.0284  0.1428
 1847TIP3    H127100   2.702   5.607   0.919  1.0893  0.5896  2.1986
 1847TIP3    H227101   2.712   5.748   0.865  0.1006  0.2229  1.0279
 1848TIP3   OH227102   6.427   6.257   7.827 -0.1568  0.1911 -0.3071
 1848TIP3    H127103   6.336   6.233   7.845 -0.0599 -0.6587 -0.9116
 1848TIP3    H227104   6.421   6.327   7.762 -0.3558 -1.4391 -2.1182
 1849TIP3   OH227105   5.917   2.125   6.024 -0.1952  0.0274  0.3348
 1849TIP3    H127106   5.941   2.033   6.030 -0.0460  0.1576  2.6550
 1849TIP3    H227107   6.000   2.172   6.016 -0.2894 -0.0306 -1.1998
 1850TIP3   OH227108   6.181   5.526   0.398  0.3313 -0.2190  0.6986
 1850TIP3    H127109   6.142   5.496   0.480  1.6241  0.2602  1.5086
 1850TIP3    H227110   6.136   5.607   0.378  0.3019 -0.1181  1.1671
 1851TIP3   OH227111   2.072   1.356   7.501 -0.0433  0.3688  0.3247
 1851TIP3    H127112   1.995   1.349   7.557  0.3825 -0.2811  0.8394
 1851TIP3    H227113   2.137   1.401   7.554 -0.0589  0.9264 -0.1143
 1852TIP3   OH227114   5.878   5.686   7.055  0.4363 -0.2719 -0.0112
 1852TIP3    H127115   5.811   5.754   7.059 -0.0187 -0.5580 -1.6815
 1852TIP3    H227116   5.865   5.634   7.134  0.1244  0.9767  0.7725
 1853TIP3   OH227117   3.300   6.569   6.997 -0.2025 -0.0869  0.0558
 1853TIP3    H127118   3.255   6.506   6.941 -1.3773 -0.5023  1.4048
 1853TIP3    H227119   3.254   6.563   7.081  0.6838  1.4337  0.6819
 1854TIP3   OH227120   4.653   6.933   7.625  0.2462  0.7034  0.5870
 1854TIP3    H127121   4.586   6.896   7.683 -0.3506  1.0475  0.1279
 1854TIP3    H227122   4.720   6.966   7.685 -0.1879  0.7201  1.0762
 1855TIP3   OH227123   6.360   0.243   0.208  0.3728 -0.2094 -0.2684
 1855TIP3    H127124   6.432   0.275   0.263  0.3399  1.1689 -0.9967
 1855TIP3    H227125   6.399   0.230   0.122 -0.0983 -0.1088 -0.4994
 1856TIP3   OH227126   7.078   2.867   7.850  0.3672  0.5663 -0.1667
 1856TIP3    H127127   7.050   2.952   7.883  1.2864  0.8380 -0.0541
 1856TIP3    H227128   7.030   2.804   7.904 -0.9503  0.9860 -0.8009
 1857TIP3   OH227129   1.770   6.773   6.964  0.3797 -0.7045 -0.0665
 1857TIP3    H127130   1.702   6.838   6.946 -3.4683 -3.7876  1.7816
 1857TIP3    H227131   1.796   6.741   6.877 -1.6378 -0.4167 -0.8300
 1858TIP3   OH227132   4.754   4.724   0.851 -0.7775 -0.3261 -0.1496
 1858TIP3    H127133   4.721   4.773   0.925  0.5528 -0.7777  0.7858
 1858TIP3    H227134   4.781   4.640   0.888 -0.2708 -0.6323 -1.1717
 1859TIP3   OH227135   1.943   1.815   1.002 -0.2888  0.2651  0.3301
 1859TIP3    H127136   1.910   1.779   1.084 -2.2342 -0.7695 -0.8276
 1859TIP3    H227137   2.002   1.748   0.968 -0.6167  0.0409  0.1990
 1860TIP3   OH227138   4.562   3.075   6.842  0.1356 -0.2811 -0.0180
 1860TIP3    H127139   4.556   2.980   6.849 -2.2033 -0.1404  1.0481
 1860TIP3    H227140   4.630   3.091   6.777  0.1599 -2.6923 -0.6644
 1861TIP3   OH227141   1.208   2.042   1.197  0.0635 -0.5956 -0.5289
 1861TIP3    H127142   1.147   2.009   1.263 -0.0657 -0.0462 -0.3669
 1861TIP3    H227143   1.239   2.125   1.233 -0.5379  0.0592 -1.4621
 1862TIP3   OH227144   2.210   0.225   6.785  0.8575  0.0875 -0.0365
 1862TIP3    H127145   2.130   0.190   6.825  1.6887 -1.9666 -0.0677
 1862TIP3    H227146   2.263   0.253   6.859  0.4147  0.8401  0.0131
 1863TIP3   OH227147   5.967   4.114   5.410  0.1763 -0.4283  0.1915
 1863TIP3    H127148   5.918   4.102   5.492 -0.6426 -1.5653 -0.4439
 1863TIP3    H227149   5.979   4.209   5.403 -0.2801 -0.2686  1.3068
 1864TIP3   OH227150   4.232   3.937   6.410 -0.3603 -0.4322 -0.0724
 1864TIP3    H127151   4.185   3.974   6.485 -1.6990 -0.2422 -0.9757
 1864TIP3    H227152   4.164   3.923   6.344  0.7250 -1.0220 -1.0909
 1865TIP3   OH227153   6.316   3.294   0.886  0.2993 -0.2136  0.3096
 1865TIP3    H127154   6.360   3.231   0.943 -2.2213 -2.0283  0.4071
 1865TIP3    H227155   6.251   3.336   0.943  1.1043  1.6491 -0.0677
 1866TIP3   OH227156   3.904   4.745   6.128 -0.0284 -0.1273 -0.3011
 1866TIP3    H127157   3.932   4.791   6.049 -3.2703  1.5521 -0.6715
 1866TIP3    H227158   3.931   4.802   6.200 -0.2830  0.2110 -0.4704
 1867TIP3   OH227159   1.488   4.146   1.515 -0.2552 -0.0323  0.0005
 1867TIP3    H127160   1.461   4.115   1.428 -1.0875 -1.3756  0.6964
 1867TIP3    H227161   1.474   4.070   1.572  2.4166  0.0981  0.9341
 1868TIP3   OH227162   0.611   0.762   0.347 -0.3112  0.9660  0.3676
 1868TIP3    H127163   0.647   0.739   0.262  0.2433  0.2675  0.7730
 1868TIP3    H227164   0.576   0.679   0.382 -1.5732  1.4675  0.3402
 1869TIP3   OH227165   3.859   3.933   7.034  0.0086 -0.3062  0.0903
 1869TIP3    H127166   3.791   3.874   6.999  0.6045  0.0580 -1.8106
 1869TIP3    H227167   3.941   3.895   7.004  0.4169  1.3684 -1.0316
 1870TIP3   OH227168   1.512   4.323   7.320 -0.1155  0.4472  0.6068
 1870TIP3    H127169   1.599   4.355   7.300 -0.2794  0.4739 -0.1150
 1870TIP3    H227170   1.463   4.333   7.238  0.0867 -2.5322  0.0025
 1871TIP3   OH227171   0.604   3.275   0.923 -0.1601  0.3507 -0.4269
 1871TIP3    H127172   0.609   3.212   0.851  0.8220  0.3776 -0.3857
 1871TIP3    H227173   0.546   3.234   0.987 -1.6501  0.6436 -1.5379
 1872TIP3   OH227174   4.415   0.455   5.999 -0.2928  0.6122  0.0613
 1872TIP3    H127175   4.445   0.374   5.957 -1.6426  0.0589  0.1161
 1872TIP3    H227176   4.428   0.441   6.092 -3.1479 -0.7666  0.3580
 1873TIP3   OH227177   0.089   6.519   1.366  0.0584  0.0313 -0.2150
 1873TIP3    H127178   0.052   6.564   1.290  1.2822  2.1131  0.3314
 1873TIP3    H227179   0.095   6.587   1.433  1.9984 -0.9470  0.6736
 1874TIP3   OH227180   5.719   1.910   1.497 -0.1571 -0.3357  0.2023
 1874TIP3    H127181   5.682   1.832   1.539 -0.2220 -0.0659  0.6564
 1874TIP3    H227182   5.666   1.983   1.530  0.9635  0.0982  1.1323
 1875TIP3   OH227183   6.829   0.496   1.663 -0.1674 -0.5119 -0.1065
 1875TIP3    H127184   6.878   0.440   1.724 -1.0915 -1.0620  0.1411
 1875TIP3    H227185   6.794   0.436   1.598  0.5086  0.0324 -1.0038
 1876TIP3   OH227186   5.668   4.414   7.676 -0.4601  0.4187 -0.2171
 1876TIP3    H127187   5.651   4.425   7.582  0.3534 -0.7109 -0.5093
 1876TIP3    H227188   5.738   4.476   7.695 -0.0102  0.0239 -0.5592
 1877TIP3   OH227189   3.540   2.044   7.859  0.5920 -0.1850  0.2416
 1877TIP3    H127190   3.557   2.120   7.915  0.7421  0.2284 -0.3567
 1877TIP3    H227191   3.531   2.081   7.771  0.9570 -0.9003 -0.0961
 1878TIP3   OH227192   2.905   4.362   7.652 -0.6910 -0.0079 -0.7726
 1878TIP3    H127193   2.921   4.449   7.691  0.0476 -0.1716 -0.7049
 1878TIP3    H227194   2.839   4.378   7.585 -2.5071  0.1856  0.9522
 1879TIP3   OH227195   2.141   3.616   6.723  0.3519 -0.3835 -0.0180
 1879TIP3    H127196   2.129   3.526   6.693  0.4201 -0.1777 -0.6764
 1879TIP3    H227197   2.175   3.663   6.646 -1.1211  0.5473 -0.1391
 1880TIP3   OH227198   6.866   2.532   6.830  0.5026 -0.3217  0.1107
 1880TIP3    H127199   6.813   2.534   6.910 -0.3320  3.6857 -0.3049
 1880TIP3    H227200   6.839   2.452   6.786 -3.8996  0.4154  0.8964
 1881TIP3   OH227201   6.925   7.150   6.627  0.0392  0.3623  0.1171
 1881TIP3    H127202   6.878   7.227   6.593  1.5055  1.2443 -0.0227
 1881TIP3    H227203   6.909   7.081   6.562  0.2708  1.1256 -0.7804
 1882TIP3   OH227204   0.777   0.464   6.570 -0.0194 -0.1846 -0.4592
 1882TIP3    H127205   0.685   0.449   6.594  0.1536 -0.9349 -0.2591
 1882TIP3    H227206   0.808   0.530   6.632 -0.5948  0.5517 -0.9267
 1883TIP3   OH227207   2.596   6.600   6.779  0.0611 -0.4669 -0.6006
 1883TIP3    H127208   2.547   6.527   6.740  1.4830 -1.2506 -0.9939
 1883TIP3    H227209   2.621   6.655   6.705 -0.2494 -0.0449 -0.3975
 1884TIP3   OH227210   6.874   3.816   1.817 -0.5590 -0.1468  0.2822
 1884TIP3    H127211   6.931   3.887   1.847 -0.2014 -0.1109 -0.4593
 1884TIP3    H227212   6.872   3.826   1.722 -0.8024 -0.9104  0.2037
 1885TIP3   OH227213   5.515   0.539   7.119 -0.1175 -0.4243 -0.7831
 1885TIP3    H127214   5.564   0.621   7.110 -0.3187 -0.3428 -1.1460
 1885TIP3    H227215   5.436   0.562   7.167 -1.1792  0.0199 -2.6375
 1886TIP3   OH227216   1.812   3.580   0.377 -0.4413  0.0942 -1.0238
 1886TIP3    H127217   1.840   3.510   0.318  0.5089  0.4767 -1.0479
 1886TIP3    H227218   1.886   3.641   0.379 -0.9335  0.6917 -0.3727
 1887TIP3   OH227219   1.821   4.498   7.828  0.3418  0.3535  0.7785
 1887TIP3    H127220   1.795   4.590   7.833 -2.2757 -0.2478 -0.3717
 1887TIP3    H227221   1.873   4.491   7.748  0.1345  0.7189  0.6157
 1888TIP3   OH227222   3.245   7.046   1.671  0.0079  0.3978 -0.2070
 1888TIP3    H127223   3.329   7.083   1.699 -0.1304  1.5664 -1.2822
 1888TIP3    H227224   3.259   6.951   1.673  1.1814  0.5648  0.1351
 1889TIP3   OH227225   4.808   2.904   6.687 -0.3757  0.1627 -0.5948
 1889TIP3    H127226   4.830   2.985   6.732  0.4922  0.4672 -1.5114
 1889TIP3    H227227   4.888   2.852   6.689 -0.3922  0.0743 -1.5324
 1890TIP3   OH227228   6.989   0.699   1.643  0.5131 -0.2650  0.1693
 1890TIP3    H127229   6.928   0.637   1.684 -0.5076  1.2434  1.0540
 1890TIP3    H227230   6.933   0.771   1.614  1.5198 -0.2384 -1.8624
 1891TIP3   OH227231   1.303   6.567   0.951 -0.0275  0.3754  0.3968
 1891TIP3    H127232   1.318   6.533   1.039  0.1158  1.6500  0.8878
 1891TIP3    H227233   1.386   6.553   0.905 -0.7061 -2.1564 -0.2340
 1892TIP3   OH227234   0.704   2.755   6.813  0.2607 -0.0202  0.0094
 1892TIP3    H127235   0.645   2.787   6.745 -0.3796 -0.4539  0.3476
 1892TIP3    H227236   0.703   2.823   6.881 -0.8187 -0.5578  0.5656
 1893TIP3   OH227237   3.707   1.954   1.094 -0.0687  0.1583  0.1144
 1893TIP3    H127238   3.683   1.911   1.176  1.5422 -0.3103  0.3710
 1893TIP3    H227239   3.766   1.893   1.050  0.6340  1.2229 -0.4812
 1894TIP3   OH227240   0.181   5.021   6.998  0.2613 -0.4379 -0.0360
 1894TIP3    H127241   0.185   4.976   7.082  1.3965 -0.8272 -0.2804
 1894TIP3    H227242   0.262   5.071   6.993  1.2400 -2.0522 -1.7693
 1895TIP3   OH227243   5.814   6.572   7.442 -0.2415 -0.1626 -0.0445
 1895TIP3    H127244   5.749   6.639   7.420  0.7993  0.4606 -1.4204
 1895TIP3    H227245   5.879   6.578   7.372  2.1114  0.3031  2.0205
 1896TIP3   OH227246   1.512   2.488   6.174 -0.0178  0.0723 -0.2678
 1896TIP3    H127247   1.527   2.446   6.089  0.9489 -1.3660  0.5741
 1896TIP3    H227248   1.446   2.434   6.216  1.5830 -0.9657  1.0257
 1897TIP3   OH227249   3.013   4.544   0.132 -0.3272 -0.5643 -0.2057
 1897TIP3    H127250   3.064   4.505   0.203 -0.5070  1.8591  1.3767
 1897TIP3    H227251   3.041   4.636   0.130 -0.6879 -0.4239 -2.9862
 1898TIP3   OH227252   6.092   4.185   0.423 -0.5836 -0.3836  0.0327
 1898TIP3    H127253   6.134   4.108   0.384 -1.3264  0.3539 -2.4018
 1898TIP3    H227254   6.006   4.189   0.381 -0.8550  1.3635  0.6774
 1899TIP3   OH227255   6.037   2.033   2.069 -0.4357  0.5313 -0.8478
 1899TIP3    H127256   6.100   1.962   2.079  1.4143  2.3762  2.2794
 1899TIP3    H227257   6.082   2.097   2.013  0.0351  1.3109  0.3799
 1900TIP3   OH227258   2.331   3.732   0.347  0.0122 -0.1734  0.0941
 1900TIP3    H127259   2.368   3.818   0.369 -1.3833  0.8026 -1.2167
 1900TIP3    H227260   2.405   3.683   0.311  0.3012  1.4270 -1.6550
 1901TIP3   OH227261   0.200   5.242   2.194  0.7997  0.3301  0.1794
 1901TIP3    H127262   0.121   5.275   2.238  0.5702  0.1128 -0.0704
 1901TIP3    H227263   0.256   5.212   2.265  0.7083  0.5962  0.3657
 1902TIP3   OH227264   1.380   3.090   1.336  0.6658 -0.1508  0.1373
 1902TIP3    H127265   1.316   3.049   1.395  1.4472  0.3989  1.4311
 1902TIP3    H227266   1.447   3.125   1.395  1.0996  1.1088 -1.0436
 1903TIP3   OH227267   6.679   3.329   7.105  0.2194  0.6438  0.4268
 1903TIP3    H127268   6.748   3.303   7.044 -1.0475 -1.2316 -0.3040
 1903TIP3    H227269   6.662   3.251   7.157 -0.6019  1.3990  1.3440
 1904TIP3   OH227270   4.776   2.581   7.827 -0.0690 -0.3351  0.4945
 1904TIP3    H127271   4.741   2.493   7.817  1.8463 -1.5624  3.3006
 1904TIP3    H227272   4.702   2.632   7.860 -0.9805 -1.0585 -0.3601
 1905TIP3   OH227273   5.600   0.414   7.808 -0.0221 -0.0959 -0.7523
 1905TIP3    H127274   5.554   0.331   7.801 -1.1176  0.5448 -1.3991
 1905TIP3    H227275   5.578   0.446   7.896  1.4000 -1.0285 -0.0113
 1906TIP3   OH227276   2.260   0.249   7.087 -0.1345 -1.0059  0.5726
 1906TIP3    H127277   2.188   0.193   7.116 -0.4447  0.2744  2.4774
 1906TIP3    H227278   2.295   0.286   7.168  1.8987 -0.6510 -0.4049
 1907TIP3   OH227279   3.401   1.243   6.992 -0.0263 -0.4563  0.3253
 1907TIP3    H127280   3.495   1.241   6.972  0.0936  1.1706  0.5681
 1907TIP3    H227281   3.380   1.337   6.995 -1.5003 -0.7921  1.0069
 1908TIP3   OH227282   5.035   6.945   7.594  0.5392  0.4386 -0.9786
 1908TIP3    H127283   5.006   7.036   7.586  1.0953  0.6776 -0.4011
 1908TIP3    H227284   4.985   6.910   7.668  1.3875  0.7301 -0.2433
 1909TIP3   OH227285   1.035   3.236   0.466  0.0729 -0.6731 -0.7443
 1909TIP3    H127286   1.098   3.308   0.466  1.3360 -1.7610 -0.5658
 1909TIP3    H227287   1.052   3.190   0.384 -0.1573 -1.2689 -0.4580
 1910TIP3   OH227288   2.120   4.911   6.989 -0.4023  0.6784 -0.2198
 1910TIP3    H127289   2.035   4.923   7.032  0.7157  0.8056  2.0695
 1910TIP3    H227290   2.136   4.817   6.994  1.4731  1.0084  3.4237
 1911TIP3   OH227291   2.359   1.373   0.722  0.2394  0.0857 -0.3936
 1911TIP3    H127292   2.369   1.461   0.759  2.2725 -0.7465  1.2850
 1911TIP3    H227293   2.447   1.349   0.693 -0.0603 -1.7294  0.0501
 1912TIP3   OH227294   5.618   4.499   0.703 -0.0607  0.2759 -0.2636
 1912TIP3    H127295   5.706   4.519   0.735  0.6587 -1.8490 -0.7825
 1912TIP3    H227296   5.593   4.419   0.748 -1.0235 -0.1086 -1.4136
 1913TIP3   OH227297   6.641   4.672   0.860  0.1755 -0.5144 -0.2218
 1913TIP3    H127298   6.553   4.650   0.890  0.1472  0.4233  0.4348
 1913TIP3    H227299   6.629   4.748   0.804  0.5963 -0.2091  0.1006
 1914TIP3   OH227300   3.258   3.681   1.168  0.2191 -0.1228  0.3588
 1914TIP3    H127301   3.303   3.648   1.090  2.5465  1.1515  1.0739
 1914TIP3    H227302   3.256   3.776   1.157 -1.2859 -0.0563  0.9281
 1915TIP3   OH227303   4.995   5.981   7.867  0.1990  0.5626  0.5920
 1915TIP3    H127304   4.999   6.040   7.792 -0.2189  1.1357  1.0119
 1915TIP3    H227305   5.021   5.896   7.832 -0.2164  0.7711 -0.2465
 1916TIP3   OH227306   6.715   3.060   5.867 -0.6978  0.2107  0.0886
 1916TIP3    H127307   6.706   3.130   5.932 -1.3498  0.8374 -0.6388
 1916TIP3    H227308   6.707   3.106   5.783  0.4011 -0.5402 -0.4457
 1917TIP3   OH227309   0.473   1.187   7.449 -0.0221 -0.6021 -0.1284
 1917TIP3    H127310   0.427   1.105   7.463 -0.1114 -0.3633  1.0707
 1917TIP3    H227311   0.534   1.168   7.378 -1.1697 -1.2324 -0.9884
 1918TIP3   OH227312   3.270   1.083   0.169 -0.2399 -0.0776 -0.4169
 1918TIP3    H127313   3.275   1.068   0.263 -0.2628 -0.1906 -0.4335
 1918TIP3    H227314   3.329   1.018   0.131 -0.2888 -0.0824 -0.4858
 1919TIP3   OH227315   6.775   0.579   6.737 -0.0633 -0.1406 -0.2503
 1919TIP3    H127316   6.733   0.556   6.820  1.3975  2.3319  1.2869
 1919TIP3    H227317   6.703   0.610   6.681 -0.7680  0.5375  0.9931
 1920TIP3   OH227318   0.519   6.355   6.744 -0.1676 -0.8998  0.1821
 1920TIP3    H127319   0.436   6.316   6.715 -0.8844  0.6892 -0.0270
 1920TIP3    H227320   0.566   6.283   6.786 -1.1111 -2.1400 -0.8034
 1921TIP3   OH227321   5.138   4.745   1.345 -0.1260 -0.6023  0.2824
 1921TIP3    H127322   5.049   4.768   1.321 -0.8514 -3.4586 -0.0850
 1921TIP3    H227323   5.133   4.720   1.437  0.3209 -0.6779  0.2920
 1922TIP3   OH227324   5.940   2.591   6.536 -0.1339  0.3782 -0.0386
 1922TIP3    H127325   5.974   2.600   6.625  2.0830 -0.6925 -0.7034
 1922TIP3    H227326   5.845   2.603   6.545 -0.0474 -0.2550  2.5381
 1923TIP3   OH227327   6.697   5.329   7.256  0.4317  0.0195  0.5633
 1923TIP3    H127328   6.630   5.394   7.277  0.6183  0.2427  0.4658
 1923TIP3    H227329   6.686   5.312   7.163  2.1257  1.9260 -0.0709
 1924TIP3   OH227330   6.914   0.295   7.243 -0.1861  0.1701  0.3195
 1924TIP3    H127331   6.849   0.227   7.224 -1.2795  1.7123 -1.9179
 1924TIP3    H227332   6.874   0.348   7.312 -0.1339 -0.3638  0.7711
 1925TIP3   OH227333   2.629   4.692   1.122  0.4139 -0.4103 -0.6683
 1925TIP3    H127334   2.704   4.736   1.160 -0.3827  1.3744 -1.0849
 1925TIP3    H227335   2.667   4.624   1.066  1.6369 -1.1189  0.9316
 1926TIP3   OH227336   0.983   2.550   0.378  0.2056 -0.1271  0.4457
 1926TIP3    H127337   0.890   2.563   0.365  0.6058  1.9312 -0.7542
 1926TIP3    H227338   1.023   2.571   0.294  2.1077  4.0612  2.0783
 1927TIP3   OH227339   3.425   1.118   6.409 -0.3615  0.5134 -0.6871
 1927TIP3    H127340   3.359   1.119   6.339 -0.0966  0.1784 -0.9469
 1927TIP3    H227341   3.469   1.202   6.401 -0.4919  0.5745 -0.7706
 1928TIP3   OH227342   6.233   0.920   6.840 -0.1126 -0.2270 -0.0693
 1928TIP3    H127343   6.227   0.932   6.745 -0.9924 -2.1547 -0.2885
 1928TIP3    H227344   6.149   0.951   6.874 -1.2966 -2.8356 -0.3629
 1929TIP3   OH227345   5.587   5.747   1.750  0.2041  0.0904  0.1577
 1929TIP3    H127346   5.679   5.775   1.750  0.5411 -0.8767  1.9410
 1929TIP3    H227347   5.538   5.827   1.734  1.3427  0.5559 -1.2752
 1930TIP3   OH227348   5.852   0.549   8.025 -0.3162 -0.2018  0.0650
 1930TIP3    H127349   5.830   0.606   7.951  0.0167 -0.3907 -0.1862
 1930TIP3    H227350   5.768   0.516   8.056 -0.3752 -1.3213 -1.2004
 1931TIP3   OH227351   4.692   1.344   6.540 -0.6183 -0.3196 -0.5116
 1931TIP3    H127352   4.635   1.335   6.464  0.6164  0.8180 -1.6429
 1931TIP3    H227353   4.771   1.294   6.517 -0.1067  0.2843 -0.1116
 1932TIP3   OH227354   3.542   6.498   0.595 -0.5086  0.5274 -0.2708
 1932TIP3    H127355   3.615   6.460   0.643 -0.6627 -1.0513 -1.2142
 1932TIP3    H227356   3.465   6.475   0.647 -0.5812 -0.3236 -0.7328
 1933TIP3   OH227357   1.776   2.578   0.690  0.1937  0.1771 -0.5830
 1933TIP3    H127358   1.814   2.535   0.614 -0.6583  1.0071 -1.4994
 1933TIP3    H227359   1.810   2.668   0.686  1.4208 -0.1711  0.9336
 1934TIP3   OH227360   3.235   1.178   6.201  0.1266  0.3210 -0.0503
 1934TIP3    H127361   3.191   1.246   6.253 -1.3794 -0.2051 -0.5831
 1934TIP3    H227362   3.174   1.160   6.129  1.4259 -0.1599 -1.0574
 1935TIP3   OH227363   1.888   3.630   7.196  0.5321  0.7906  0.5795
 1935TIP3    H127364   1.817   3.664   7.250 -0.8355  0.8803 -1.1966
 1935TIP3    H227365   1.894   3.691   7.123  2.7302  1.0006  0.8653
 1936TIP3   OH227366   5.937   6.022   6.419 -0.3992  0.0321  0.0598
 1936TIP3    H127367   6.001   6.045   6.352  1.0664 -0.8992  1.0709
 1936TIP3    H227368   5.894   6.104   6.441  0.6302  0.7386 -0.4808
 1937TIP3   OH227369   1.760   0.447   7.404  0.2728 -0.1652  0.2145
 1937TIP3    H127370   1.827   0.392   7.446  0.4327 -0.3856 -0.3237
 1937TIP3    H227371   1.701   0.384   7.362  0.8714  0.0722 -1.0412
 1938TIP3   OH227372   0.849   0.748   7.837 -0.9039 -0.1356  0.3244
 1938TIP3    H127373   0.888   0.817   7.784 -0.9004 -0.7906 -0.5446
 1938TIP3    H227374   0.922   0.711   7.886 -0.5247 -0.9162 -0.7962
 1939TIP3   OH227375   5.444   5.280   6.648 -0.3454  0.5874 -0.1014
 1939TIP3    H127376   5.414   5.313   6.733 -0.1768  0.3547  0.0520
 1939TIP3    H227377   5.384   5.319   6.584 -2.6036 -1.7690  0.3828
 1940TIP3   OH227378   0.329   6.422   6.218 -0.3868 -0.9892 -0.0258
 1940TIP3    H127379   0.378   6.397   6.297  4.2265  0.7986 -1.9502
 1940TIP3    H227380   0.359   6.362   6.151 -0.0888  0.7685 -1.5344
 1941TIP3   OH227381   2.137   6.331   1.213 -0.0112  0.0126  0.2017
 1941TIP3    H127382   2.188   6.315   1.292  0.4087 -2.2847 -0.4483
 1941TIP3    H227383   2.160   6.420   1.187  1.8738 -0.1260  1.2143
 1942TIP3   OH227384   0.158   5.455   1.832 -0.2002  0.1433 -0.1451
 1942TIP3    H127385   0.145   5.363   1.854  0.4432  0.0513 -0.1183
 1942TIP3    H227386   0.133   5.503   1.911  2.2348 -0.1911  0.9261
 1943TIP3   OH227387   6.797   1.998   6.958 -0.3611  0.0741 -0.1035
 1943TIP3    H127388   6.797   2.085   6.999  0.5319 -0.1187  0.3230
 1943TIP3    H227389   6.853   1.945   7.014  0.6850 -0.2750 -1.4421
 1944TIP3   OH227390   4.613   1.255   1.930 -0.2739  0.2203  0.2577
 1944TIP3    H127391   4.539   1.197   1.917 -0.4522  0.3706  0.5911
 1944TIP3    H227392   4.576   1.343   1.931  0.2845  0.6309 -2.9734
 1945TIP3   OH227393   4.256   2.331   6.521  0.2693  0.4560  0.4208
 1945TIP3    H127394   4.346   2.302   6.505 -0.1950 -1.0201  0.3313
 1945TIP3    H227395   4.245   2.323   6.616 -0.5368 -1.9310  0.2052
 1946TIP3   OH227396   6.415   2.316   6.259 -0.4887 -0.5890  0.1982
 1946TIP3    H127397   6.469   2.358   6.325 -1.6905 -0.7329  1.2985
 1946TIP3    H227398   6.330   2.360   6.263 -0.9967 -1.4615 -0.3342
 1947TIP3   OH227399   0.692   3.561   7.423  0.3570  0.5736 -0.2997
 1947TIP3    H127400   0.754   3.630   7.398 -0.8117  1.2765 -1.3321
 1947TIP3    H227401   0.629   3.604   7.479 -0.4704  0.4055 -1.0733
 1948TIP3   OH227402   1.834   0.498   1.298 -0.1525 -1.0483 -0.7179
 1948TIP3    H127403   1.788   0.569   1.343  0.6909 -1.4177  0.7946
 1948TIP3    H227404   1.789   0.418   1.325  0.9593 -1.3598  0.3335
 1949TIP3   OH227405   1.958   3.877   7.707 -0.2847  0.0633 -0.4392
 1949TIP3    H127406   2.036   3.821   7.710 -0.6423 -0.4167  0.3054
 1949TIP3    H227407   1.987   3.956   7.662  0.8043  0.1651  0.3935
 1950TIP3   OH227408   1.621   5.635   0.637  0.1825 -0.3117  0.1221
 1950TIP3    H127409   1.528   5.634   0.615  0.3417 -0.3437 -0.5882
 1950TIP3    H227410   1.658   5.702   0.580  0.5471 -0.1052  0.5994
 1951TIP3   OH227411   1.247   1.338   1.039  0.0964 -0.3921  0.2982
 1951TIP3    H127412   1.228   1.296   0.955  0.1468 -0.0825  0.1300
 1951TIP3    H227413   1.182   1.302   1.099 -0.7126  0.2798 -0.1523
 1952TIP3   OH227414   5.024   5.866   7.592  0.1083 -0.2456 -0.0920
 1952TIP3    H127415   5.105   5.911   7.569  0.5324  0.4771  2.4320
 1952TIP3    H227416   4.958   5.936   7.596 -0.1186 -0.4632  0.0305
 1953TIP3   OH227417   7.015   0.644   1.169 -0.2267 -0.1300 -0.3481
 1953TIP3    H127418   7.052   0.605   1.249 -2.8999  0.6765  1.3992
 1953TIP3    H227419   7.025   0.575   1.103  0.7604 -1.3886  1.0309
 1954TIP3   OH227420   4.329   4.057   1.554  0.1379  0.1919  0.3025
 1954TIP3    H127421   4.330   4.061   1.650  0.3832  0.5461  0.2852
 1954TIP3    H227422   4.418   4.033   1.530  0.0127 -0.1572  0.1681
 1955TIP3   OH227423   7.099   3.897   0.212 -0.4107 -0.0806 -0.3336
 1955TIP3    H127424   7.086   3.961   0.142  0.7162 -0.5126 -0.9686
 1955TIP3    H227425   7.175   3.931   0.260 -0.9349  0.0049  0.4549
 1956TIP3   OH227426   0.768   1.218   6.391  0.1325  0.0516  0.0196
 1956TIP3    H127427   0.700   1.272   6.432 -1.0146  0.7564 -2.5910
 1956TIP3    H227428   0.829   1.281   6.353  0.3758 -0.5346 -0.5784
 1957TIP3   OH227429   1.603   5.654   1.956  0.4715  0.0864  0.1481
 1957TIP3    H127430   1.635   5.578   1.907  3.8742  0.9076  0.8415
 1957TIP3    H227431   1.631   5.730   1.905 -0.5683  0.9166  0.7700
 1958TIP3   OH227432   2.883   5.956   7.445 -0.3094 -0.1137  0.1906
 1958TIP3    H127433   2.928   5.892   7.501  0.4076 -0.5987 -0.9121
 1958TIP3    H227434   2.929   6.038   7.459 -0.1165 -0.2393  0.2889
 1959TIP3   OH227435   2.001   4.107   7.933  0.2567 -0.1393 -0.1639
 1959TIP3    H127436   1.992   4.200   7.951 -0.9882  0.3711 -2.8495
 1959TIP3    H227437   2.045   4.103   7.848 -0.8058 -1.9006 -0.7038
 1960TIP3   OH227438   4.492   5.067   5.665 -0.0384  0.1308  0.4685
 1960TIP3    H127439   4.445   5.043   5.586  0.5224 -0.7348  0.3900
 1960TIP3    H227440   4.512   4.984   5.709 -0.5239  0.5995  1.6299
 1961TIP3   OH227441   1.661   4.100   0.321 -0.6342 -0.6847 -0.2049
 1961TIP3    H127442   1.681   4.181   0.275 -0.3520 -0.2682  0.6348
 1961TIP3    H227443   1.721   4.036   0.283 -0.1492 -0.2612 -0.1679
 1962TIP3   OH227444   1.054   2.802   7.526  0.3002  0.1011  0.2974
 1962TIP3    H127445   1.010   2.733   7.476  1.7993 -0.1816 -0.7224
 1962TIP3    H227446   1.142   2.805   7.489  0.0624  3.1602 -0.2587
 1963TIP3   OH227447   3.252   2.407   1.887  0.5082  0.0607 -0.3630
 1963TIP3    H127448   3.332   2.453   1.864  1.2515 -2.1535 -2.5836
 1963TIP3    H227449   3.194   2.419   1.812 -0.5087  0.0044  0.3858
 1964TIP3   OH227450   1.280   1.582   1.402 -0.2677  0.0592  0.5619
 1964TIP3    H127451   1.265   1.619   1.315 -0.0892  0.7257  0.8067
 1964TIP3    H227452   1.374   1.563   1.403  0.0764  1.6082  1.1758
 1965TIP3   OH227453   1.602   5.633   6.250 -0.0752  0.6708 -0.0812
 1965TIP3    H127454   1.639   5.686   6.320  0.8817 -1.6424  1.2913
 1965TIP3    H227455   1.512   5.614   6.280  0.6614 -1.1874  1.1630
 1966TIP3   OH227456   3.884   3.998   7.767  0.4544  0.3748 -0.0510
 1966TIP3    H127457   3.955   3.993   7.831 -0.2541  2.5174  0.9906
 1966TIP3    H227458   3.810   3.956   7.810  0.3451  0.5808 -0.0412
 1967TIP3   OH227459   3.711   1.889   6.378 -0.8278 -0.4819 -0.6359
 1967TIP3    H127460   3.793   1.926   6.346  0.0485 -2.4311 -0.8376
 1967TIP3    H227461   3.666   1.962   6.420  1.5991  0.4092  0.6243
 1968TIP3   OH227462   6.526   5.143   7.445 -0.2045  0.4335 -0.5346
 1968TIP3    H127463   6.449   5.170   7.395  0.2422 -1.5343 -2.4091
 1968TIP3    H227464   6.598   5.194   7.408 -0.5031  2.2229  1.1723
 1969TIP3   OH227465   6.329   0.245   1.545  0.1129  0.3310 -0.2971
 1969TIP3    H127466   6.275   0.195   1.606 -0.2900  0.9998 -0.1015
 1969TIP3    H227467   6.357   0.322   1.594 -1.7421  1.8539 -1.4631
 1970TIP3   OH227468   5.093   1.887   7.016 -0.1834  0.0967  0.0201
 1970TIP3    H127469   5.068   1.856   6.929 -0.0202 -1.1842  0.4070
 1970TIP3    H227470   5.035   1.962   7.033 -2.6932 -1.7756  0.2369
 1971TIP3   OH227471   1.273   1.978   1.649  0.0787  0.0510  0.4170
 1971TIP3    H127472   1.304   2.026   1.725  1.3263 -0.1823  0.0861
 1971TIP3    H227473   1.248   2.046   1.586  0.4624  0.2639  0.4884
 1972TIP3   OH227474   3.546   0.493   0.359 -0.2305 -0.2491 -0.1058
 1972TIP3    H127475   3.591   0.412   0.334 -1.3169 -1.2854  1.1247
 1972TIP3    H227476   3.466   0.493   0.305 -0.1429  0.1134 -0.2379
 1973TIP3   OH227477   2.064   3.726   1.419 -0.1219  0.1908  0.7413
 1973TIP3    H127478   2.107   3.741   1.504  3.2886 -0.2389 -0.7234
 1973TIP3    H227479   2.002   3.656   1.436  1.9571 -1.3731  2.5525
 1974TIP3   OH227480   6.512   6.431   0.653 -0.7100  0.4583 -0.4980
 1974TIP3    H127481   6.541   6.412   0.564  2.9900  0.5414  0.5139
 1974TIP3    H227482   6.488   6.524   0.651  0.4340  0.7675 -1.2213
 1975TIP3   OH227483   7.098   1.188   7.574  0.0332 -0.0291  0.3613
 1975TIP3    H127484   7.160   1.209   7.504  0.5858  0.1481  0.8890
 1975TIP3    H227485   7.126   1.102   7.606 -0.7989 -0.5415 -0.2515
 1976TIP3   OH227486   2.520   6.314   0.061  0.1368 -0.3502  0.0728
 1976TIP3    H127487   2.427   6.338   0.066  0.5065  1.3710 -0.6584
 1976TIP3    H227488   2.545   6.333  -0.029  1.2058 -0.8309  0.2495
 1977TIP3   OH227489   0.309   2.494   8.035 -0.8256 -0.2790 -0.7622
 1977TIP3    H127490   0.378   2.555   8.011  0.5169 -0.5508  1.9858
 1977TIP3    H227491   0.229   2.534   8.003 -0.0435  3.1073  1.0405
 1978TIP3   OH227492   3.641   0.034   6.399 -0.1131  0.3692 -0.8965
 1978TIP3    H127493   3.722   0.073   6.432 -1.5656  3.3542 -0.5920
 1978TIP3    H227494   3.595   0.004   6.477 -0.3026  0.7259 -0.8720
 1979TIP3   OH227495   1.688   4.335   0.196  1.1520 -0.5440  0.2577
 1979TIP3    H127496   1.640   4.417   0.199  1.6899 -0.2517  1.3219
 1979TIP3    H227497   1.768   4.355   0.147 -0.0321 -1.1878 -2.0887
 1980TIP3   OH227498   6.833   2.248   6.709  0.0163 -0.1754  0.2123
 1980TIP3    H127499   6.766   2.185   6.737 -1.9820  0.7975 -2.0275
 1980TIP3    H227500   6.861   2.217   6.622 -0.6448  1.6683 -0.7161
 1981TIP3   OH227501   3.063   6.310   7.444  0.6407 -0.4084 -0.5687
 1981TIP3    H127502   2.995   6.273   7.501 -2.1251  0.4707 -3.0665
 1981TIP3    H227503   3.117   6.235   7.419 -0.3252 -1.4224  0.2878
 1982TIP3   OH227504   3.611   1.118   0.271  0.0911 -0.6358 -0.1602
 1982TIP3    H127505   3.654   1.170   0.339  0.5214 -2.0283  0.6805
 1982TIP3    H227506   3.607   1.176   0.195  0.3474  0.6831  0.8008
 1983TIP3   OH227507   3.626   3.124   7.561  0.6040 -0.5387  0.1513
 1983TIP3    H127508   3.670   3.130   7.476 -0.3045  0.3725 -0.2700
 1983TIP3    H227509   3.535   3.104   7.540 -0.9105  4.6606  0.4830
 1984TIP3   OH227510   5.189   6.093   6.305  0.3050 -0.3975  0.3023
 1984TIP3    H127511   5.165   6.032   6.374  0.5555 -1.1901 -0.2983
 1984TIP3    H227512   5.111   6.147   6.292 -0.1893 -1.1019  0.3062
 1985TIP3   OH227513   3.128   2.518   6.397 -0.3615 -0.0116  0.1843
 1985TIP3    H127514   3.140   2.429   6.428 -3.4497 -0.6597 -0.2255
 1985TIP3    H227515   3.171   2.519   6.312 -0.7116 -1.2746 -0.0291
 1986TIP3   OH227516   2.378   5.704   1.019 -0.2809 -0.4257 -0.7585
 1986TIP3    H127517   2.353   5.755   1.096 -0.1897  0.8779 -1.5657
 1986TIP3    H227518   2.312   5.726   0.953  0.6964 -0.0599 -1.6414
 1987TIP3   OH227519   1.417   6.606   7.260  0.0083  0.1637  0.1010
 1987TIP3    H127520   1.406   6.650   7.344  0.4351 -0.4837  0.5047
 1987TIP3    H227521   1.508   6.576   7.259 -0.1018 -0.1827 -0.4161
 1988TIP3   OH227522   0.721   3.783   6.557 -0.4047 -0.2063  0.0311
 1988TIP3    H127523   0.674   3.711   6.514 -0.2819 -0.0766 -0.3209
 1988TIP3    H227524   0.719   3.760   6.650  1.6503 -1.8868 -0.2570
 1989TIP3   OH227525   0.615   6.620   6.735  0.0349 -0.7351 -0.1197
 1989TIP3    H127526   0.572   6.535   6.728 -1.4601  0.0549 -1.1715
 1989TIP3    H227527   0.698   6.609   6.689 -0.8983 -1.1898 -1.7755
 1990TIP3   OH227528   2.211   7.101   7.581  0.2446  0.1642  0.4280
 1990TIP3    H127529   2.155   7.118   7.505  0.5958  2.6143  0.6110
 1990TIP3    H227530   2.154   7.114   7.656  0.0593 -1.6045  0.6256
 1991TIP3   OH227531   3.075   1.264   7.224 -0.0043 -0.3045  0.7422
 1991TIP3    H127532   3.027   1.264   7.142  1.5895  0.4968 -0.2309
 1991TIP3    H227533   3.014   1.301   7.288 -1.4805 -1.5079  0.1081
 1992TIP3   OH227534   4.072   6.525   7.539 -0.4341 -0.0230  0.2214
 1992TIP3    H127535   4.046   6.434   7.525 -3.7139  1.0979 -2.2400
 1992TIP3    H227536   4.006   6.560   7.599  1.2930  0.6338  1.8498
 1993TIP3   OH227537   5.245   4.246   6.027  0.1791  0.3340 -0.3895
 1993TIP3    H127538   5.226   4.321   5.971 -0.8376 -0.6531 -1.4245
 1993TIP3    H227539   5.301   4.190   5.974 -1.2918 -0.9069 -0.7194
 1994TIP3   OH227540   1.969   5.503   1.370  0.0206  0.1662  0.6563
 1994TIP3    H127541   1.924   5.512   1.286  3.4125 -0.6260 -1.4688
 1994TIP3    H227542   1.957   5.587   1.413 -0.6071  1.1664 -1.3297
 1995TIP3   OH227543   2.818   4.483   6.364 -0.3174 -0.0369 -0.0040
 1995TIP3    H127544   2.858   4.489   6.450 -0.9003  1.5655  0.1897
 1995TIP3    H227545   2.768   4.564   6.355 -1.8491 -1.0446 -1.0648
 1996TIP3   OH227546   0.292   2.026   6.856  0.8231 -0.3619  0.6720
 1996TIP3    H127547   0.364   1.993   6.910  2.7676 -0.6005 -1.8704
 1996TIP3    H227548   0.213   1.998   6.902  2.3521 -3.5103  1.6339
 1997TIP3   OH227549   0.684   4.564   6.798 -0.2285  0.1116  0.4798
 1997TIP3    H127550   0.634   4.536   6.875  0.3935  0.0851  0.8795
 1997TIP3    H227551   0.715   4.483   6.758 -0.8214  0.1105  0.0103
 1998TIP3   OH227552   4.796   2.254   7.282 -0.2337  0.0867  0.2559
 1998TIP3    H127553   4.866   2.190   7.269  1.8341  2.4789 -1.4500
 1998TIP3    H227554   4.830   2.315   7.347 -0.9739  0.9797 -0.1644
 1999TIP3   OH227555   3.084   0.927   6.982  0.1668  0.5928  0.2846
 1999TIP3    H127556   3.132   0.959   7.059 -2.0938 -0.3097  2.2171
 1999TIP3    H227557   2.994   0.919   7.013 -0.6019 -1.0549 -2.1262
 2000TIP3   OH227558   3.440   2.699   0.458 -0.2360 -0.0180 -0.0497
 2000TIP3    H127559   3.456   2.701   0.552 -1.7340  2.0090  0.2348
 2000TIP3    H227560   3.478   2.781   0.425 -0.3922 -0.3412 -1.0796
 2001TIP3   OH227561   3.006   0.369   0.979  0.4611 -0.5974 -0.3008
 2001TIP3    H127562   2.913   0.351   0.970  0.3826 -1.0668  1.1976
 2001TIP3    H227563   3.014   0.412   1.064  1.4290  0.8966 -1.0950
 2002TIP3   OH227564   1.346   4.650   7.633 -0.1568 -0.1325  0.3100
 2002TIP3    H127565   1.408   4.582   7.608 -0.7838 -0.5171 -0.2259
 2002TIP3    H227566   1.282   4.652   7.562  0.5613  1.9207 -0.3465
 2003TIP3   OH227567   5.129   5.127   0.503 -0.2977 -0.1935  0.1494
 2003TIP3    H127568   5.047   5.091   0.538 -0.3678  0.1882  0.3794
 2003TIP3    H227569   5.131   5.097   0.412 -1.5130  1.1653 -0.3579
 2004TIP3   OH227570   2.694   5.442   6.859  0.1363 -0.0087  0.3713
 2004TIP3    H127571   2.635   5.416   6.929  2.1021 -1.5662  1.5595
 2004TIP3    H227572   2.715   5.361   6.812 -2.6882  1.1968 -3.5021
 2005TIP3   OH227573   1.079   6.267   1.541  0.3021  0.0490  0.1266
 2005TIP3    H127574   1.101   6.275   1.633 -1.3783  1.4648  0.4524
 2005TIP3    H227575   1.161   6.241   1.499  0.8967 -1.4836  2.0982
 2006TIP3   OH227576   4.889   2.098   7.028 -0.0880  0.0238 -0.0566
 2006TIP3    H127577   4.836   2.054   7.094 -1.0416  1.2202  0.0093
 2006TIP3    H227578   4.842   2.179   7.009  1.6645  1.1033 -0.0619
 2007TIP3   OH227579   3.001   6.168   6.779 -0.1537 -0.2901 -0.0126
 2007TIP3    H127580   3.000   6.144   6.686  0.6372  2.1456 -0.7136
 2007TIP3    H227581   2.965   6.091   6.823  0.9933 -2.2131 -2.1566
 2008TIP3   OH227582   1.752   2.829   0.864  0.0341  0.1042 -0.4395
 2008TIP3    H127583   1.839   2.838   0.825 -0.1557  1.8293 -0.5509
 2008TIP3    H227584   1.768   2.827   0.958  0.2641 -0.9425 -0.4822
 2009TIP3   OH227585   4.808   1.153   7.706 -0.6340  0.0987 -1.0992
 2009TIP3    H127586   4.717   1.180   7.714 -0.6416 -0.1729 -0.1675
 2009TIP3    H227587   4.838   1.141   7.797  0.1243 -0.4865 -1.4167
 2010TIP3   OH227588   5.158   5.169   7.981 -0.4632  0.2747 -0.2760
 2010TIP3    H127589   5.098   5.148   7.910 -1.2640  2.3624 -0.2840
 2010TIP3    H227590   5.160   5.265   7.983  0.3785  0.2641  1.8186
 2011TIP3   OH227591   6.252   5.020   6.013  0.6579 -0.1458  0.2122
 2011TIP3    H127592   6.227   4.928   6.009  0.3920 -0.1981  2.1827
 2011TIP3    H227593   6.241   5.052   5.923  0.7620 -2.0215 -0.5024
 2012TIP3   OH227594   3.307   1.105   2.079 -0.8746 -0.3286 -0.0246
 2012TIP3    H127595   3.227   1.157   2.077 -0.2591  0.6450 -0.0047
 2012TIP3    H227596   3.277   1.014   2.081 -2.0470  0.0018  2.8230
 2013TIP3   OH227597   2.515   5.056   1.069 -0.5011 -0.3394 -0.6372
 2013TIP3    H127598   2.595   5.008   1.090 -0.9365 -0.8406 -0.0940
 2013TIP3    H227599   2.490   5.098   1.151  0.6274  2.0145 -1.4074
 2014TIP3   OH227600   3.358   0.692   1.157  0.3124 -0.2975 -0.3251
 2014TIP3    H127601   3.313   0.672   1.074 -0.9702  0.6829  0.0884
 2014TIP3    H227602   3.450   0.698   1.133  0.0745 -0.9713 -1.5060
 2015TIP3   OH227603   4.739   7.032   7.383  0.3056 -0.2649 -0.0415
 2015TIP3    H127604   4.682   7.096   7.341  0.5162 -1.3461 -2.1046
 2015TIP3    H227605   4.686   6.995   7.453 -1.2773 -0.6736 -1.4038
 2016TIP3   OH227606   2.928   2.790   0.714  0.1454  0.0762  0.4945
 2016TIP3    H127607   2.897   2.878   0.690  1.0620  0.4668  0.6688
 2016TIP3    H227608   2.958   2.752   0.632 -0.1005 -0.0065  0.4439
 2017TIP3   OH227609   1.998   5.239   1.629 -0.0953 -0.2539  0.1418
 2017TIP3    H127610   2.019   5.319   1.677 -0.5441 -0.2017  0.2599
 2017TIP3    H227611   1.906   5.222   1.651 -0.4994  0.1020 -1.1730
 2018TIP3   OH227612   5.142   0.842   7.552  0.3450 -0.7646 -0.2931
 2018TIP3    H127613   5.126   0.830   7.458  0.8931  2.3339 -0.8717
 2018TIP3    H227614   5.061   0.879   7.586  1.1768  1.0839 -0.2314
 2019TIP3   OH227615   1.885   4.750   6.125  0.3940 -0.4968  0.1708
 2019TIP3    H127616   1.949   4.767   6.055  0.9452  0.6802  0.9242
 2019TIP3    H227617   1.824   4.687   6.087 -1.8382  3.1063 -3.0188
 2020TIP3   OH227618   6.534   4.060   6.792  0.4689 -0.2792 -0.1502
 2020TIP3    H127619   6.561   4.076   6.882  0.1432 -0.8942  0.0665
 2020TIP3    H227620   6.615   4.039   6.746  0.7574  0.9280 -0.2148
 2021TIP3   OH227621   6.167   3.708   7.090  0.0829  0.8526  0.0996
 2021TIP3    H127622   6.219   3.703   7.010 -1.2889 -1.1645 -0.7323
 2021TIP3    H227623   6.078   3.686   7.063 -0.2871 -0.7023  2.3033
 2022TIP3   OH227624   6.913   6.932   7.017  0.5610  0.4723 -0.2622
 2022TIP3    H127625   6.925   6.847   7.059  0.6093  1.4131  1.7332
 2022TIP3    H227626   6.832   6.923   6.967  0.4925 -0.7003  0.0254
 2023TIP3   OH227627   1.357   5.151   1.062 -0.5531 -0.2526  0.0598
 2023TIP3    H127628   1.290   5.085   1.082 -0.6281 -0.1690  0.0821
 2023TIP3    H227629   1.351   5.214   1.133 -2.3670  1.2834 -1.3674
 2024TIP3   OH227630   3.016   0.749   6.263 -0.3839  0.1494 -0.0123
 2024TIP3    H127631   2.968   0.812   6.209  0.6454  1.2173  0.2592
 2024TIP3    H227632   2.986   0.663   6.232 -2.8408  0.7326  0.5302
 2025TIP3   OH227633   3.796   4.173   6.744  0.0405  0.8240  0.3602
 2025TIP3    H127634   3.767   4.187   6.834 -0.0966 -0.4465  0.5355
 2025TIP3    H227635   3.717   4.183   6.691 -0.7154 -2.0461  0.7781
 2026TIP3   OH227636   5.090   5.608   7.663 -0.4471  0.2408  0.1042
 2026TIP3    H127637   5.067   5.700   7.650  2.6934  0.9848 -1.0250
 2026TIP3    H227638   5.125   5.581   7.578  1.6700 -1.0005  1.3172
 2027TIP3   OH227639   4.325   4.572   0.486 -0.3258  0.2048  0.3442
 2027TIP3    H127640   4.324   4.483   0.521  1.3590  0.3564  0.8662
 2027TIP3    H227641   4.355   4.626   0.559 -1.2826  1.2120  0.0168
 2028TIP3   OH227642   2.036   0.706   7.014  0.6398  0.5106 -0.5307
 2028TIP3    H127643   1.977   0.775   6.983  1.4010  0.9071 -1.1188
 2028TIP3    H227644   1.993   0.672   7.092 -2.3318 -1.7405 -2.8610
 2029TIP3   OH227645   6.412   1.693   6.949  0.3190 -0.2211  0.1755
 2029TIP3    H127646   6.440   1.604   6.927 -0.3267 -0.1496 -1.0429
 2029TIP3    H227647   6.493   1.745   6.945  0.6834 -0.7323  0.7982
 2030TIP3   OH227648   3.505   2.105   7.590 -0.1504  0.2189  0.1396
 2030TIP3    H127649   3.477   2.020   7.554  0.5277 -0.6493  1.5664
 2030TIP3    H227650   3.599   2.109   7.572  0.0127  0.1990  0.9546
 2031TIP3   OH227651   2.487   2.820   6.510  0.2919 -0.4800 -0.2326
 2031TIP3    H127652   2.563   2.768   6.485  1.0168  1.2056 -1.7768
 2031TIP3    H227653   2.413   2.778   6.467  0.8159 -0.4266 -1.2034
 2032TIP3   OH227654   1.246   6.340   1.243 -0.3762 -0.1608  0.5411
 2032TIP3    H127655   1.270   6.282   1.315 -1.8820 -1.4640  0.0460
 2032TIP3    H227656   1.243   6.283   1.166  1.7801  1.3094 -0.7198
 2033TIP3   OH227657   6.179   5.701   7.574 -0.2762 -0.2982 -0.6552
 2033TIP3    H127658   6.185   5.714   7.480  1.2812  1.5965 -0.3568
 2033TIP3    H227659   6.124   5.773   7.605  1.4554  0.7720  0.1229
 2034TIP3   OH227660   3.357   6.589   1.277 -0.1575 -0.0245  0.0997
 2034TIP3    H127661   3.411   6.638   1.214  0.2884  0.1335  0.5907
 2034TIP3    H227662   3.420   6.556   1.341 -0.8499  2.2680  2.1158
 2035TIP3   OH227663   3.784   1.510   0.114  0.3413  0.0597  0.2887
 2035TIP3    H127664   3.854   1.458   0.151  1.0751 -0.1564 -1.3050
 2035TIP3    H227665   3.755   1.460   0.038 -2.0999 -0.2470  1.3234
 2036TIP3   OH227666   4.220   5.025   7.705 -0.1807  0.0015 -0.5450
 2036TIP3    H127667   4.237   4.967   7.631  1.8524 -0.9131  0.5491
 2036TIP3    H227668   4.175   4.971   7.770  2.5731 -0.7718  0.8671
 2037TIP3   OH227669   5.405   1.562   6.832  0.1519 -0.3545  0.0170
 2037TIP3    H127670   5.483   1.506   6.825  0.7766  0.1996  1.8108
 2037TIP3    H227671   5.346   1.530   6.764  1.0846 -2.2220  0.0071
 2038TIP3   OH227672   6.877   4.114   0.549  0.4709  0.0286 -0.0234
 2038TIP3    H127673   6.786   4.113   0.578  0.0628  1.5322 -1.1758
 2038TIP3    H227674   6.927   4.140   0.627 -0.1381 -0.1707  0.4415
 2039TIP3   OH227675   2.692   4.211   5.870  0.8208 -0.0106 -0.1403
 2039TIP3    H127676   2.631   4.186   5.940 -0.3748 -0.2071 -1.2158
 2039TIP3    H227677   2.737   4.129   5.848 -0.2818 -0.4276 -0.9704
 2040TIP3   OH227678   5.852   4.815   6.575  0.0805 -0.4745  0.5972
 2040TIP3    H127679   5.873   4.816   6.668  0.9437 -2.9118  0.5044
 2040TIP3    H227680   5.916   4.874   6.536  1.2368 -1.1968  1.3238
 2041TIP3   OH227681   3.855   4.385   1.053  0.0718  0.3469 -0.3989
 2041TIP3    H127682   3.865   4.324   1.126  0.7845  0.6764 -0.2097
 2041TIP3    H227683   3.787   4.446   1.081 -0.4137 -0.1641 -0.4553
 2042TIP3   OH227684   6.249   4.614   7.995  0.7199 -0.0119 -0.0113
 2042TIP3    H127685   6.156   4.628   7.976  0.8721  1.1074 -0.0056
 2042TIP3    H227686   6.268   4.674   8.067  1.3382 -0.5971  0.3256
 2043TIP3   OH227687   0.689   4.770   1.443 -0.7812 -0.3936 -0.0816
 2043TIP3    H127688   0.644   4.703   1.495  0.5962  0.0364  1.7889
 2043TIP3    H227689   0.762   4.723   1.401 -0.0629 -0.1936  0.8979
 2044TIP3   OH227690   0.745   1.240   1.272  0.5235  0.4001 -0.1415
 2044TIP3    H127691   0.719   1.253   1.181  1.2710  1.0571 -0.2651
 2044TIP3    H227692   0.730   1.147   1.288 -1.9944  0.7338 -0.1647
 2045TIP3   OH227693   3.944   4.667   1.354 -0.6614  0.5130 -0.0220
 2045TIP3    H127694   3.927   4.643   1.445 -1.0246  1.6195  0.2155
 2045TIP3    H227695   4.014   4.608   1.326 -1.9725 -1.2872  0.3033
 2046TIP3   OH227696   3.719   1.833   1.341 -0.0785  0.1255  0.1216
 2046TIP3    H127697   3.717   1.870   1.429 -0.0577  0.3078  0.0464
 2046TIP3    H227698   3.756   1.746   1.352 -1.1349 -0.3057  0.4541
 2047TIP3   OH227699   6.860   2.734   0.851 -0.2445  0.3713  0.1444
 2047TIP3    H127700   6.876   2.763   0.941  1.2514  0.5068 -0.1272
 2047TIP3    H227701   6.829   2.644   0.861  0.4191  0.1997  0.7869
 2048TIP3   OH227702   6.576   5.901   7.656 -0.8632  0.0256  0.0210
 2048TIP3    H127703   6.521   5.948   7.593  0.4452  0.6602 -0.6813
 2048TIP3    H227704   6.543   5.930   7.742 -0.0387  2.3888 -0.3718
 2049TIP3   OH227705   0.627   6.995   7.178  0.1987  0.0621 -0.0900
 2049TIP3    H127706   0.631   6.955   7.265 -2.3772 -1.1816 -0.4438
 2049TIP3    H227707   0.595   7.084   7.194 -0.3336 -0.1836  0.2560
 2050TIP3   OH227708   3.245   1.378   0.337  0.1711 -0.0384  0.2747
 2050TIP3    H127709   3.205   1.457   0.375  0.3410  0.2461 -0.1386
 2050TIP3    H227710   3.333   1.376   0.373  0.4798  0.4708 -0.4414
 2051TIP3   OH227711   5.775   1.345   7.855 -0.2281 -0.2154 -0.1074
 2051TIP3    H127712   5.777   1.259   7.895  0.0176 -0.4775 -0.6751
 2051TIP3    H227713   5.704   1.340   7.790 -0.3886  0.0944  0.0377
 2052TIP3   OH227714   1.732   2.114   5.878 -0.1886 -0.1208 -0.6028
 2052TIP3    H127715   1.764   2.142   5.792 -2.7104  0.6701 -1.3731
 2052TIP3    H227716   1.717   2.020   5.869  0.3991 -0.2011 -0.7431
 2053TIP3   OH227717   2.089   4.344   7.030  0.0396  0.4279 -0.2045
 2053TIP3    H127718   2.041   4.371   6.952 -0.2519 -1.3542 -0.6793
 2053TIP3    H227719   2.023   4.304   7.086  0.7007 -0.7408 -0.2297
 2054TIP3   OH227720   5.049   2.847   6.895  0.6892  0.4981  0.3756
 2054TIP3    H127721   5.123   2.907   6.906  1.4713 -0.5345  0.9098
 2054TIP3    H227722   5.067   2.800   6.814 -1.3062  2.8364 -1.5689
 2055TIP3   OH227723   1.667   1.730   0.330 -0.5804  0.0060 -0.1741
 2055TIP3    H127724   1.671   1.774   0.415 -0.1500 -0.2702 -0.0495
 2055TIP3    H227725   1.752   1.688   0.321  0.4613  2.2719 -1.9743
 2056TIP3   OH227726   5.224   3.686   1.216 -0.1313 -0.1685  0.0683
 2056TIP3    H127727   5.213   3.724   1.129 -0.8666 -0.5720 -0.0303
 2056TIP3    H227728   5.316   3.662   1.221 -0.0164  0.1454 -0.4794
 2057TIP3   OH227729   6.755   0.695   7.313  0.4468 -0.2546 -0.1954
 2057TIP3    H127730   6.718   0.769   7.361 -0.1114  0.2618 -1.3830
 2057TIP3    H227731   6.680   0.656   7.267  0.8473 -1.1547 -0.1136
 2058TIP3   OH227732   2.366   1.510   7.583  0.4865  0.0810  0.4702
 2058TIP3    H127733   2.381   1.489   7.491  0.6999 -2.4226  0.9975
 2058TIP3    H227734   2.362   1.425   7.627  1.1319  1.2143  2.9102
 2059TIP3   OH227735   6.953   6.637   7.660  0.4057 -0.6917  0.1908
 2059TIP3    H127736   6.938   6.718   7.612 -0.7850 -0.9240  0.1486
 2059TIP3    H227737   6.870   6.620   7.705  0.3149 -2.3648 -0.5460
 2060TIP3   OH227738   2.092   7.128   5.972  0.4602 -0.2876 -0.3168
 2060TIP3    H127739   2.182   7.132   6.004  0.2105  1.6599  0.3135
 2060TIP3    H227740   2.038   7.140   6.050 -0.2923  0.2456 -0.8988
 2061TIP3   OH227741   2.607   3.921   1.419  0.4169  0.1316 -0.5602
 2061TIP3    H127742   2.696   3.889   1.434  1.0607  1.3335 -1.6655
 2061TIP3    H227743   2.611   4.013   1.442 -0.7956  0.0064  0.2426
 2062TIP3   OH227744   3.629   6.231   1.297 -0.0599 -0.3920 -0.2212
 2062TIP3    H127745   3.601   6.271   1.214  0.3227  0.5070  0.0639
 2062TIP3    H227746   3.664   6.146   1.272  1.2171  0.3746 -1.1494
 2063TIP3   OH227747   6.958   4.825   1.432 -0.6050 -0.5928  0.4134
 2063TIP3    H127748   7.044   4.840   1.392 -0.8559 -1.9031 -0.7353
 2063TIP3    H227749   6.932   4.910   1.467  0.7979  0.0170  0.0565
 2064TIP3   OH227750   6.416   4.144   0.103  0.0585  0.3317 -0.6219
 2064TIP3    H127751   6.400   4.058   0.064 -0.0665  0.7889 -1.6133
 2064TIP3    H227752   6.384   4.207   0.037 -0.1679  1.1304  0.2321
 2065TIP3   OH227753   7.121   6.003   0.420  0.1342 -0.5573  0.0258
 2065TIP3    H127754   7.177   6.074   0.453  0.5002 -0.7159 -0.2481
 2065TIP3    H227755   7.033   6.026   0.450  0.2006  0.1682 -0.3120
 2066TIP3   OH227756   1.447   5.639   1.018  0.0427  0.0162  0.3009
 2066TIP3    H127757   1.463   5.551   0.985 -1.0917 -0.2346  0.3552
 2066TIP3    H227758   1.364   5.632   1.066 -1.0465  1.4830 -1.2438
 2067TIP3   OH227759   2.606   2.014   7.870  0.2905 -0.1847  0.1422
 2067TIP3    H127760   2.513   2.033   7.874  0.0451 -0.7504 -1.7250
 2067TIP3    H227761   2.617   1.966   7.788  2.2738  0.1510  0.1571
 2068TIP3   OH227762   2.324   1.164   6.294 -0.0970  0.8234  0.3802
 2068TIP3    H127763   2.345   1.100   6.227 -2.8444  1.2075 -0.9865
 2068TIP3    H227764   2.399   1.223   6.296  0.7038 -0.0883 -1.2443
 2069TIP3   OH227765   0.675   0.322   6.086  0.2520 -0.7193 -0.0734
 2069TIP3    H127766   0.663   0.232   6.117  1.7263 -1.1748 -0.7474
 2069TIP3    H227767   0.754   0.319   6.032 -0.1288  0.8252 -0.7755
 2070TIP3   OH227768   6.814   0.839   1.166  0.0979 -0.0131  0.1998
 2070TIP3    H127769   6.872   0.762   1.167 -1.1576 -1.0827 -2.1064
 2070TIP3    H227770   6.822   0.874   1.077 -0.6904  1.5209  0.6867
 2071TIP3   OH227771   2.603   0.766   6.670  0.1785  0.1618 -0.4629
 2071TIP3    H127772   2.556   0.748   6.751 -0.0354  0.9119 -0.4113
 2071TIP3    H227773   2.566   0.849   6.639  2.5222  1.5934  0.3692
 2072TIP3   OH227774   1.777   4.442   1.976 -0.6627  0.5001  0.1142
 2072TIP3    H127775   1.721   4.407   2.045 -0.0675  0.4992  0.6035
 2072TIP3    H227776   1.717   4.483   1.915 -1.4778 -1.8584 -0.8009
 2073TIP3   OH227777   4.951   1.034   0.675  0.6663  0.1848  0.7724
 2073TIP3    H127778   4.857   1.031   0.654  0.7476 -1.2498  0.4884
 2073TIP3    H227779   4.957   1.090   0.752 -0.2015  1.7742 -0.2603
 2074TIP3   OH227780   3.662   6.014   1.837  0.2938 -0.5877 -0.4882
 2074TIP3    H127781   3.686   5.958   1.763  1.2766 -1.0713  0.1709
 2074TIP3    H227782   3.640   5.952   1.907 -2.8864 -0.1922 -1.0025
 2075TIP3   OH227783   3.378   2.748   5.675  0.2536  0.3267  0.0477
 2075TIP3    H127784   3.383   2.667   5.726  0.0320 -0.2830 -0.8772
 2075TIP3    H227785   3.325   2.806   5.729  0.4571 -0.1129  0.7505
 2076TIP3   OH227786   4.904   4.429   1.638 -0.7196  0.0252 -0.8568
 2076TIP3    H127787   4.904   4.339   1.672 -0.5866  0.5665  0.6669
 2076TIP3    H227788   4.996   4.448   1.620 -0.6218  0.1826 -0.2190
 2077TIP3   OH227789   3.860   4.835   0.843  0.5551  0.4898 -0.5133
 2077TIP3    H127790   3.907   4.917   0.827  0.0720  0.7001 -0.8715
 2077TIP3    H227791   3.929   4.768   0.843  1.1641  1.0626  1.3508
 2078TIP3   OH227792   2.239   4.156   0.512 -1.0397 -0.6712 -0.2040
 2078TIP3    H127793   2.160   4.174   0.461 -0.2451 -1.5380 -1.8109
 2078TIP3    H227794   2.209   4.105   0.588 -2.0110 -1.0328 -0.8232
 2079TIP3   OH227795   1.245   3.971   0.578  0.4799  0.1541 -0.4296
 2079TIP3    H127796   1.322   4.004   0.532  0.9962  1.3522  1.1897
 2079TIP3    H227797   1.242   4.022   0.659 -2.3218  0.5117 -0.6637
 2080TIP3   OH227798   2.547   5.919   1.639  0.1827 -0.2136  0.5923
 2080TIP3    H127799   2.528   5.928   1.546 -0.8162  0.9837  0.8839
 2080TIP3    H227800   2.479   5.860   1.672  0.3653 -0.4119  0.6174
 2081TIP3   OH227801   4.954   6.930   7.250 -0.1863 -0.3528 -0.4595
 2081TIP3    H127802   4.984   7.019   7.235 -1.0978  0.3198  1.5336
 2081TIP3    H227803   4.869   6.939   7.292  0.7159 -2.0924  1.9296
 2082TIP3   OH227804   2.706   5.032   0.213 -0.1195 -0.2051  0.4289
 2082TIP3    H127805   2.710   5.128   0.220 -0.0502 -0.2164  0.5291
 2082TIP3    H227806   2.612   5.012   0.221 -0.1997 -0.0962 -0.1831
 2083TIP3   OH227807   6.800   5.080   7.302  0.1616 -0.1522 -0.5768
 2083TIP3    H127808   6.778   5.056   7.212 -0.1731 -1.9630 -0.0659
 2083TIP3    H227809   6.796   5.175   7.304  2.0335  0.0630 -2.9420
 2084TIP3   OH227810   6.103   5.229   1.430 -0.1025  0.1011 -0.2387
 2084TIP3    H127811   6.019   5.275   1.429 -0.7007 -0.9691 -1.0507
 2084TIP3    H227812   6.093   5.161   1.496  0.3745  0.3885  0.1378
 2085TIP3   OH227813   1.165   0.316   7.118 -0.0843 -0.0433  0.1672
 2085TIP3    H127814   1.222   0.264   7.061  0.9149  1.1217  0.0703
 2085TIP3    H227815   1.077   0.301   7.083  0.2592 -1.1446 -0.2571
 2086TIP3   OH227816   2.452   3.859   7.483  0.2209  0.5447  0.2201
 2086TIP3    H127817   2.433   3.766   7.484 -0.8042  0.7081 -1.0527
 2086TIP3    H227818   2.534   3.868   7.531  1.6076 -1.2972 -1.6578
 2087TIP3   OH227819   2.716   3.130   0.841 -0.2327  0.1854 -0.2631
 2087TIP3    H127820   2.806   3.160   0.848 -0.2562  1.2333 -3.0381
 2087TIP3    H227821   2.680   3.141   0.928  2.1048  0.3784  0.7547
 2088TIP3   OH227822   3.434   3.230   7.307  0.3718 -0.4743  0.0786
 2088TIP3    H127823   3.348   3.265   7.281  0.7316  0.3979  0.0237
 2088TIP3    H227824   3.415   3.174   7.382 -0.2533 -0.2702  0.0803
 2089TIP3   OH227825   2.178   1.654   0.055 -0.0984  0.4692 -0.5730
 2089TIP3    H127826   2.225   1.735   0.078  0.4023  0.0125  0.0598
 2089TIP3    H227827   2.245   1.586   0.060 -0.4462  0.0562 -1.4392
 2090TIP3   OH227828   6.044   0.363   6.779  0.3322  0.0579 -0.2598
 2090TIP3    H127829   5.968   0.316   6.745 -0.8814  1.5580  0.2626
 2090TIP3    H227830   6.116   0.337   6.722 -0.9986  0.1541 -2.0757
 2091TIP3   OH227831   1.447   2.203   1.174 -0.3886  0.6482  0.4223
 2091TIP3    H127832   1.468   2.185   1.266  1.1826 -0.3865 -0.0993
 2091TIP3    H227833   1.525   2.175   1.126 -1.7739 -0.2949 -1.3849
 2092TIP3   OH227834   4.004   3.549   5.500  0.2426 -0.4351 -0.0790
 2092TIP3    H127835   3.995   3.470   5.553  0.5707 -0.4620 -0.0570
 2092TIP3    H227836   4.083   3.592   5.534  0.7359 -0.6966 -0.8523
 2093TIP3   OH227837   1.381   6.757   6.836 -0.7151  0.0817  0.0288
 2093TIP3    H127838   1.321   6.703   6.888  0.9827 -0.6042  1.3492
 2093TIP3    H227839   1.415   6.697   6.769 -0.3464  0.0576  0.2368
 2094TIP3   OH227840   0.182   6.072   1.420 -0.2260  0.0338  0.3006
 2094TIP3    H127841   0.242   6.001   1.400  0.9601  0.8508  0.8560
 2094TIP3    H227842   0.190   6.084   1.515  0.1943  1.4225  0.1056
 2095TIP3   OH227843   4.895   5.724   6.288  0.1156 -0.0678  0.5867
 2095TIP3    H127844   4.810   5.720   6.331 -0.0727  0.8472  0.3304
 2095TIP3    H227845   4.876   5.755   6.200  0.6621 -0.3713  0.3567
 2096TIP3   OH227846   5.619   3.264   0.556  0.7216 -0.0331 -0.4743
 2096TIP3    H127847   5.618   3.211   0.636  1.1859  0.1871 -0.3142
 2096TIP3    H227848   5.528   3.268   0.529  0.4917  0.2911  0.3130
 2097TIP3   OH227849   5.487   1.276   6.945  0.2415 -0.0243  0.4624
 2097TIP3    H127850   5.406   1.289   6.895  0.7577  2.3629  0.1204
 2097TIP3    H227851   5.557   1.291   6.881  0.9871 -1.7460  0.8319
 2098TIP3   OH227852   4.328   5.107   1.467 -0.0690 -0.3063 -0.3564
 2098TIP3    H127853   4.320   5.117   1.561  0.9202 -1.8234 -0.0730
 2098TIP3    H227854   4.417   5.136   1.447 -0.2928  0.0660 -0.8327
 2099TIP3   OH227855   6.431   1.389   0.780 -0.1414 -0.3130  0.8099
 2099TIP3    H127856   6.524   1.409   0.785 -0.6048  2.3901  0.4487
 2099TIP3    H227857   6.413   1.384   0.686 -0.3995 -0.5798  0.8733
 2100TIP3   OH227858   1.817   2.030   1.378 -0.1399  0.5313  0.4145
 2100TIP3    H127859   1.887   1.965   1.376 -0.0370  0.6501 -1.1642
 2100TIP3    H227860   1.845   2.097   1.316 -1.7075  0.5052 -0.3671
 2101TIP3   OH227861   5.759   4.526   0.959  0.0760 -0.4115  0.1659
 2101TIP3    H127862   5.847   4.563   0.945  0.4447 -1.5886 -0.7771
 2101TIP3    H227863   5.768   4.473   1.038  0.2245 -0.5491  0.0575
 2102TIP3   OH227864   3.006   3.211   7.788 -0.3580  0.4859 -1.2681
 2102TIP3    H127865   3.034   3.268   7.860 -0.6405  1.5959 -2.0024
 2102TIP3    H227866   2.935   3.158   7.826 -0.0692  0.5920 -0.5568
 2103TIP3   OH227867   0.193   5.788   6.450  0.5027 -0.1387  0.1591
 2103TIP3    H127868   0.137   5.806   6.374 -0.3076 -0.9462  0.5554
 2103TIP3    H227869   0.232   5.873   6.471 -0.4900  0.4256 -0.1964
 2104TIP3   OH227870   6.827   0.307   6.644  0.0179  0.0092  0.3084
 2104TIP3    H127871   6.825   0.386   6.698 -0.6566  0.3829 -0.2502
 2104TIP3    H227872   6.919   0.298   6.619  0.0531  0.7924  0.1266
 2105TIP3   OH227873   1.685   3.425   0.592  0.6405  0.5459 -0.7430
 2105TIP3    H127874   1.700   3.441   0.499  1.1147 -0.1330 -0.7904
 2105TIP3    H227875   1.772   3.424   0.631  0.4342  1.0234 -0.2518
 2106TIP3   OH227876   3.725   0.084   0.301  0.2044 -0.5067  0.2552
 2106TIP3    H127877   3.768   0.011   0.257  0.8758 -1.0691  1.7820
 2106TIP3    H227878   3.793   0.125   0.353 -0.2613  0.9857 -0.2430
 2107TIP3   OH227879   5.490   6.073   7.834  0.6791 -0.5958  0.0760
 2107TIP3    H127880   5.426   6.137   7.803  2.6571  1.2738 -0.3371
 2107TIP3    H227881   5.460   5.990   7.796 -2.3512 -0.1503  1.2240
 2108TIP3   OH227882   1.068   5.216   1.717 -0.1734 -0.4665 -0.3904
 2108TIP3    H127883   1.150   5.182   1.753 -0.9801 -1.2268  0.7879
 2108TIP3    H227884   1.096   5.282   1.654  1.3354 -0.0180  0.6787
 2109TIP3   OH227885   0.725   0.841   7.198  0.2522 -0.0479 -0.0770
 2109TIP3    H127886   0.782   0.847   7.275  0.4160 -0.3917 -0.1733
 2109TIP3    H227887   0.642   0.879   7.228  0.3915  0.0466  0.1967
 2110TIP3   OH227888   6.686   3.971   6.239 -0.0930  0.1222 -0.4432
 2110TIP3    H127889   6.680   3.961   6.144 -2.0789  1.2001 -0.4912
 2110TIP3    H227890   6.615   3.918   6.274 -0.4679  1.0740  0.3022
 2111TIP3   OH227891   5.129   3.338   7.571 -0.2701 -0.8961  0.2502
 2111TIP3    H127892   5.089   3.350   7.657 -0.0228 -1.0228  0.3860
 2111TIP3    H227893   5.126   3.243   7.557 -1.2530 -0.7862 -0.3418
 2112TIP3   OH227894   3.564   3.178   6.430 -0.1601 -0.0600  0.3443
 2112TIP3    H127895   3.502   3.166   6.502  0.2238 -2.7771  0.3529
 2112TIP3    H227896   3.508   3.199   6.355 -1.0947 -1.7758  0.5010
 2113TIP3   OH227897   0.799   4.783   6.489 -0.1377 -0.4166 -0.4053
 2113TIP3    H127898   0.803   4.878   6.487  0.5682 -0.4299  0.1184
 2113TIP3    H227899   0.717   4.763   6.534  0.1570 -0.0529  0.3028
 2114TIP3   OH227900   6.757   4.752   1.682 -0.1537  0.3025  0.4620
 2114TIP3    H127901   6.772   4.695   1.758 -0.5041  1.8121  1.7126
 2114TIP3    H227902   6.827   4.729   1.620 -1.1874 -2.5484  0.2347
 2115TIP3   OH227903   2.636   6.826   6.933 -0.6877 -0.4799 -0.4696
 2115TIP3    H127904   2.599   6.763   6.871 -1.9352 -0.7763  0.5355
 2115TIP3    H227905   2.688   6.774   6.993 -2.3650 -0.7221  0.8462
 2116TIP3   OH227906   0.218   1.544   5.766  0.0005  0.2617 -0.0073
 2116TIP3    H127907   0.226   1.569   5.858  1.1049  1.8032 -0.4916
 2116TIP3    H227908   0.218   1.626   5.718 -0.5512 -0.5219 -1.4094
 2117TIP3   OH227909   1.769   5.249   8.011  0.2474 -0.0792 -0.2585
 2117TIP3    H127910   1.785   5.260   7.917  1.9131 -1.7352 -0.2155
 2117TIP3    H227911   1.856   5.237   8.049 -0.5849 -2.8826  0.9846
 2118TIP3   OH227912   0.520   6.394   0.473 -0.6426 -0.4468  0.0481
 2118TIP3    H127913   0.599   6.408   0.419 -0.3258 -1.4218  0.2473
 2118TIP3    H227914   0.468   6.331   0.423  0.0293 -1.9973  1.2346
 2119TIP3   OH227915   5.352   5.175   6.978 -0.5102 -0.2400  0.1277
 2119TIP3    H127916   5.325   5.245   6.919  0.3473  0.4312  0.4998
 2119TIP3    H227917   5.429   5.211   7.023  1.0303 -2.0468 -0.9132
 2120TIP3   OH227918   7.066   7.156   7.724  0.6346  0.4743 -0.2430
 2120TIP3    H127919   7.081   7.239   7.769 -1.7061 -0.1163  1.8160
 2120TIP3    H227920   7.021   7.101   7.788  2.1097 -2.4502 -1.5173
 2121TIP3   OH227921   1.344   5.785   6.168 -0.0400 -0.1302  0.1647
 2121TIP3    H127922   1.327   5.752   6.080 -0.5063 -1.4684  0.7240
 2121TIP3    H227923   1.308   5.718   6.226  1.2228  0.1969  1.3849
 2122TIP3   OH227924   4.378   6.285   0.965  0.3986  0.4473  0.2219
 2122TIP3    H127925   4.343   6.374   0.973  1.1782  0.8049 -0.2952
 2122TIP3    H227926   4.448   6.292   0.900  1.7028 -0.1754  1.5081
 2123TIP3   OH227927   1.164   4.239   6.890 -0.3760  0.6112 -0.0163
 2123TIP3    H127928   1.127   4.208   6.807 -0.8711 -0.0594  0.4402
 2123TIP3    H227929   1.087   4.261   6.943 -0.1776 -1.1128  1.0704
 2124TIP3   OH227930   7.006   4.309   7.836 -0.0362  0.6171 -0.5111
 2124TIP3    H127931   7.003   4.305   7.932  2.8180 -1.5235 -0.3647
 2124TIP3    H227932   6.939   4.247   7.807 -1.9607  2.3716 -0.0262
 2125TIP3   OH227933   6.271   5.566   5.815 -0.2157 -0.3401 -0.9985
 2125TIP3    H127934   6.221   5.625   5.872  1.0681  0.4839 -0.6501
 2125TIP3    H227935   6.214   5.491   5.801 -1.2296  0.2109 -0.0069
 2126TIP3   OH227936   0.066   4.336   0.010 -0.0004  0.1946 -0.2336
 2126TIP3    H127937   0.114   4.412  -0.022  0.3509 -0.4520 -1.2812
 2126TIP3    H227938  -0.017   4.372   0.042  0.7681  1.1914  0.6988
 2127TIP3   OH227939   6.626   2.187   1.804 -0.0101  0.1822  0.5738
 2127TIP3    H127940   6.661   2.249   1.867  0.2251 -0.4028  1.0253
 2127TIP3    H227941   6.664   2.103   1.828 -0.4986 -0.1850  0.1109
 2128TIP3   OH227942   5.379   3.616   6.130  0.4740 -0.3075  0.1413
 2128TIP3    H127943   5.424   3.561   6.066  2.6458  0.6253  0.7657
 2128TIP3    H227944   5.368   3.560   6.206  1.2685 -0.3441  0.2346
 2129TIP3   OH227945   3.033   1.778   1.603  0.2801 -0.1810  0.0714
 2129TIP3    H127946   3.010   1.818   1.687 -0.5918  0.2564 -0.3593
 2129TIP3    H227947   3.068   1.849   1.551 -0.8773 -0.0472 -0.5519
 2130TIP3   OH227948   5.814   6.024   7.186 -0.2809  0.5584 -0.2322
 2130TIP3    H127949   5.739   5.989   7.234  0.0763 -0.2076 -0.2168
 2130TIP3    H227950   5.826   6.111   7.222  0.5546 -0.3187  1.7823
 2131TIP3   OH227951   5.171   4.758   6.647  0.1510  0.0617  0.0625
 2131TIP3    H127952   5.210   4.671   6.661 -0.4185 -0.1526  0.3476
 2131TIP3    H227953   5.240   4.819   6.673  1.1596 -0.2659 -1.6896
 2132TIP3   OH227954   6.733   0.902   7.578  0.1876  0.0601 -0.8259
 2132TIP3    H127955   6.759   0.903   7.670 -0.8968  2.0116 -0.4856
 2132TIP3    H227956   6.794   0.961   7.535  1.2514 -1.5188 -1.5790
 2133TIP3   OH227957   3.182   6.263   6.308 -0.3345  0.4150 -0.2286
 2133TIP3    H127958   3.235   6.264   6.228  0.5737 -0.5463  0.3369
 2133TIP3    H227959   3.202   6.347   6.350  0.8710  0.0126  0.0402
 2134TIP3   OH227960   2.715   3.950   7.793  0.1364  0.6033 -0.5833
 2134TIP3    H127961   2.672   3.996   7.721 -1.4292  0.3091  0.1326
 2134TIP3    H227962   2.644   3.926   7.852  1.1149 -1.2136 -0.0808
 2135TIP3   OH227963   2.757   6.977   0.606 -0.3321  0.5171  0.3471
 2135TIP3    H127964   2.733   6.891   0.572 -2.8792  1.9986 -2.0139
 2135TIP3    H227965   2.727   6.976   0.697 -0.6838 -0.9432  0.2381
 2136TIP3   OH227966   5.201   4.006   7.903  0.6461 -0.6372  0.5558
 2136TIP3    H127967   5.207   3.989   7.809 -0.6683 -0.7010  0.4618
 2136TIP3    H227968   5.139   3.940   7.936 -0.7622  0.8386  1.0230
 2137TIP3   OH227969   2.787   6.452   7.094 -0.7594  0.3631  0.2562
 2137TIP3    H127970   2.727   6.379   7.078 -1.9681  1.5682 -1.0327
 2137TIP3    H227971   2.731   6.521   7.130  0.1466  1.0138  0.4376
 2138TIP3   OH227972   5.387   1.175   7.375  0.1967  0.6139 -0.6600
 2138TIP3    H127973   5.302   1.219   7.387  0.3985  0.5544  1.3681
 2138TIP3    H227974   5.403   1.131   7.459  0.8560 -1.8655 -1.9865
 2139TIP3   OH227975   0.854   3.057   5.724  0.0483 -0.1947  0.2799
 2139TIP3    H127976   0.785   3.075   5.788  0.5920 -1.3203  1.2107
 2139TIP3    H227977   0.928   3.027   5.776  0.7636 -0.3936 -0.8225
 2140TIP3   OH227978   2.331   0.712   6.451  0.5232  0.0901 -0.0481
 2140TIP3    H127979   2.304   0.750   6.535  1.6571 -1.0060  0.8497
 2140TIP3    H227980   2.421   0.743   6.439  0.6938 -0.5293 -0.3863
 2141TIP3   OH227981   2.290   2.430   6.097 -0.5131  0.2546 -0.0900
 2141TIP3    H127982   2.237   2.459   6.023 -0.5703 -1.1682 -0.6425
 2141TIP3    H227983   2.359   2.376   6.058  0.1253  0.4036  0.8028
 2142TIP3   OH227984   1.403   4.875   1.247  0.4950  0.1317  0.0554
 2142TIP3    H127985   1.482   4.921   1.275  1.2513  0.1501 -1.9364
 2142TIP3    H227986   1.331   4.931   1.275  1.3537  2.1562 -1.5667
 2143TIP3   OH227987   3.391   4.872   7.092  0.1911  0.1402  0.0773
 2143TIP3    H127988   3.333   4.942   7.062  0.3364 -0.4228 -1.6214
 2143TIP3    H227989   3.436   4.842   7.013  2.3291  0.0966  1.2180
 2144TIP3   OH227990   7.118   4.604   7.122 -0.6296 -0.1001 -0.1788
 2144TIP3    H127991   7.126   4.566   7.034  2.4765  3.0185 -1.4835
 2144TIP3    H227992   7.197   4.573   7.167 -0.4605  0.9947  0.2973
 2145TIP3   OH227993   5.858   3.473   7.433  0.5344  0.2344  0.4615
 2145TIP3    H127994   5.805   3.551   7.446  2.9146  1.9363  0.4787
 2145TIP3    H227995   5.814   3.426   7.361 -2.9583 -0.4035  2.7698
 2146TIP3   OH227996   0.239   5.148   1.769  0.0197 -0.2051  0.1256
 2146TIP3    H127997   0.165   5.128   1.712 -0.2238 -0.9713  0.6951
 2146TIP3    H227998   0.315   5.149   1.711 -0.0068 -2.4564 -0.0144
 2147TIP3   OH227999   3.564   6.193   1.560 -0.2905  0.1721  0.0756
 2147TIP3    H128000   3.648   6.179   1.605 -0.4034  1.0843  0.5893
 2147TIP3    H228001   3.589   6.218   1.471 -0.0258  0.0827  0.1241
 2148TIP3   OH228002   4.445   4.029   5.794 -0.2262  0.5934  0.2600
 2148TIP3    H128003   4.540   4.022   5.806  0.3047  1.6962 -2.6132
 2148TIP3    H228004   4.415   3.938   5.794  0.9702  0.1724  0.2016
 2149TIP3   OH228005   2.896   4.271   0.081 -0.0982 -0.0174  0.0658
 2149TIP3    H128006   2.931   4.360   0.084  0.6230 -0.3120  1.0156
 2149TIP3    H228007   2.969   4.216   0.108 -0.5790 -0.8944 -0.3628
 2150TIP3   OH228008   0.040   0.774   1.825 -0.4249 -0.1422 -0.1495
 2150TIP3    H128009  -0.038   0.739   1.782 -1.0401  0.8736  0.0979
 2150TIP3    H228010   0.034   0.868   1.811 -1.7877  0.5706  3.8067
 2151TIP3   OH228011   0.304   5.060   0.258  0.3670 -0.0953  0.0951
 2151TIP3    H128012   0.222   5.025   0.295 -0.2900  0.3816 -0.8698
 2151TIP3    H228013   0.286   5.153   0.244  1.1311  0.0416  0.0124
 2152TIP3   OH228014   5.956   1.828   1.877 -0.7425  0.5542 -0.0303
 2152TIP3    H128015   5.957   1.874   1.793  0.2585 -1.2575 -1.0711
 2152TIP3    H228016   5.948   1.736   1.854 -0.1712 -0.0102  1.8504
 2153TIP3   OH228017   3.630   6.748   7.790 -0.0145  0.0049  0.5794
 2153TIP3    H128018   3.569   6.675   7.783 -0.0832 -0.0378  1.5591
 2153TIP3    H228019   3.601   6.797   7.867 -0.2196  1.3028 -0.2854
 2154TIP3   OH228020   0.500   1.570   0.093  0.2931 -0.2421 -0.0600
 2154TIP3    H128021   0.528   1.502   0.154  0.3333 -0.3128 -0.1551
 2154TIP3    H228022   0.460   1.521   0.020  0.7847 -0.1905 -0.3669
 2155TIP3   OH228023   6.726   3.614   0.812 -0.2577 -0.2678 -0.1349
 2155TIP3    H128024   6.753   3.608   0.720 -0.8096 -0.9897 -0.2559
 2155TIP3    H228025   6.659   3.547   0.822 -0.4045 -0.0044  0.7303
 2156TIP3   OH228026   3.194   1.341   1.057 -0.3893 -0.1642  0.0607
 2156TIP3    H128027   3.132   1.273   1.084  0.4602 -0.8676  0.3191
 2156TIP3    H228028   3.280   1.301   1.071  0.1261  0.8720 -0.0553
 2157TIP3   OH228029   2.818   0.979   0.996  0.1853  0.8107  0.2815
 2157TIP3    H128030   2.837   0.909   1.058  2.4771  0.8205 -0.3272
 2157TIP3    H228031   2.738   1.020   1.030 -0.0577 -0.7721  1.7749
 2158TIP3   OH228032   0.931   2.605   7.352 -0.4929 -0.4606 -0.0312
 2158TIP3    H128033   0.964   2.600   7.263  0.8453 -1.3851  0.4782
 2158TIP3    H228034   0.837   2.616   7.343 -0.7462 -3.0094 -1.5856
 2159TIP3   OH228035   0.684   5.520   0.298  0.6507 -0.0037  0.6821
 2159TIP3    H128036   0.615   5.472   0.252  0.2643  0.5931  0.6191
 2159TIP3    H228037   0.721   5.577   0.231  2.0604 -1.2120  0.4073
 2160TIP3   OH228038   6.617   2.870   2.156 -0.0615  0.4067  0.2362
 2160TIP3    H128039   6.584   2.868   2.245 -1.4835 -0.2331 -0.2765
 2160TIP3    H228040   6.545   2.838   2.102  1.0481 -0.0273 -1.0676
 2161TIP3   OH228041   6.247   3.318   7.640 -0.0833 -0.0449 -0.2727
 2161TIP3    H128042   6.224   3.405   7.607 -2.4398 -0.2866  0.5605
 2161TIP3    H228043   6.267   3.332   7.733 -0.5878 -0.3906 -0.1058
 2162TIP3   OH228044   2.782   2.352   7.950 -0.2475 -0.1032 -0.6995
 2162TIP3    H128045   2.857   2.328   8.004 -0.1588 -0.2307 -0.8802
 2162TIP3    H228046   2.792   2.301   7.870  0.2624  0.9476 -1.3402
 2163TIP3   OH228047   5.838   0.929   7.159  0.1756  0.0422 -0.4597
 2163TIP3    H128048   5.763   0.900   7.210  0.5989 -0.7431 -0.2648
 2163TIP3    H228049   5.914   0.904   7.212  0.6020 -0.1658 -1.1550
 2164TIP3   OH228050   4.389   4.916   7.997  0.3926 -0.0175  0.0149
 2164TIP3    H128051   4.337   4.891   7.920  1.9462 -1.2057 -0.7046
 2164TIP3    H228052   4.325   4.951   8.058 -1.2198 -1.1319 -0.9450
 2165TIP3   OH228053   1.359   2.646   5.782 -0.6053 -0.1937 -0.2823
 2165TIP3    H128054   1.406   2.730   5.775 -0.8690 -0.1212 -1.4515
 2165TIP3    H228055   1.350   2.632   5.876  1.8583 -0.2815  0.0185
 2166TIP3   OH228056   5.499   1.551   7.618  0.0275  0.0977  0.7322
 2166TIP3    H128057   5.412   1.561   7.657  0.1544 -0.9196  1.2939
 2166TIP3    H228058   5.533   1.641   7.612 -1.9471  0.7917 -1.6016
 2167TIP3   OH228059   0.951   7.156   1.014  0.1475  0.4961  0.1831
 2167TIP3    H128060   0.943   7.238   0.966 -1.6174  1.5864  2.2069
 2167TIP3    H228061   0.998   7.178   1.093  1.5598 -0.9402 -0.1961
 2168TIP3   OH228062   3.899   2.856   7.807  0.6988 -0.1852  0.1664
 2168TIP3    H128063   3.966   2.808   7.854  0.2405  0.1281  1.1658
 2168TIP3    H228064   3.819   2.842   7.858  0.0172 -0.4619 -0.9371
 2169TIP3   OH228065   1.615   4.197   6.880 -0.4601 -0.0519 -0.5127
 2169TIP3    H128066   1.538   4.241   6.916 -0.1097  0.2431 -0.1164
 2169TIP3    H228067   1.597   4.103   6.892 -1.0138 -0.0063 -0.9641
 2170TIP3   OH228068   6.197   5.160   0.371  0.1305  0.8056  0.2698
 2170TIP3    H128069   6.103   5.141   0.371  0.6184 -2.1283 -0.7290
 2170TIP3    H228070   6.214   5.197   0.284 -0.1462  1.8658  0.6502
 2171TIP3   OH228071   6.485   5.066   0.291 -0.2809 -0.3214  0.0325
 2171TIP3    H128072   6.418   5.092   0.354  0.5850  0.6094  0.5896
 2171TIP3    H228073   6.441   5.003   0.234 -1.8259  0.7771 -0.0442
 2172TIP3   OH228074   1.505   6.843   7.460 -0.1699  0.2307  0.5221
 2172TIP3    H128075   1.552   6.783   7.517 -1.6174  0.1408  1.6615
 2172TIP3    H228076   1.554   6.840   7.377  2.5117  1.0402  1.9514
 2173TIP3   OH228077   6.525   4.496   0.344  0.1967 -0.1233 -0.1257
 2173TIP3    H128078   6.430   4.498   0.330  0.1232 -0.1717  0.3513
 2173TIP3    H228079   6.539   4.551   0.421  0.4615 -0.8734  0.3655
 2174TIP3   OH228080   3.922   6.532   7.086  0.3634 -0.3203 -0.0560
 2174TIP3    H128081   3.988   6.583   7.039 -1.4547  1.9158 -0.3794
 2174TIP3    H228082   3.896   6.588   7.159 -0.0459 -1.8538  1.0324
 2175TIP3   OH228083   2.168   1.710   7.525  0.5456 -0.3910  0.5573
 2175TIP3    H128084   2.119   1.721   7.607  1.3497 -0.1534  1.0167
 2175TIP3    H228085   2.248   1.664   7.551  0.7416 -0.4405 -0.1231
 2176TIP3   OH228086   1.146   2.675   0.991 -0.1939  0.4960  0.0540
 2176TIP3    H128087   1.070   2.733   0.980 -0.1732  0.3801 -0.7266
 2176TIP3    H228088   1.138   2.611   0.921  0.8327  0.7010 -0.2642
 2177TIP3   OH228089   1.247   6.887   0.171  0.2602 -0.1269  1.0071
 2177TIP3    H128090   1.333   6.847   0.178  0.4542  0.2145  0.6470
 2177TIP3    H228091   1.242   6.947   0.246  0.3450 -0.1274  1.0124
 2178TIP3   OH228092   5.846   7.093   7.462 -0.0497 -0.3007  0.1990
 2178TIP3    H128093   5.886   7.083   7.376  1.6489 -0.6886  0.9934
 2178TIP3    H228094   5.821   7.004   7.487  0.9889 -0.4402  0.7882
 2179TIP3   OH228095   3.668   3.404   1.338 -0.0192  0.0201  0.0184
 2179TIP3    H128096   3.731   3.350   1.290 -0.3469 -0.6558  0.3310
 2179TIP3    H228097   3.624   3.455   1.270 -1.8986 -2.3738 -0.7317
 2180TIP3   OH228098   5.716   3.911   0.212 -0.1812  0.1312 -0.2172
 2180TIP3    H128099   5.689   3.845   0.277 -0.8195  1.0348  0.4649
 2180TIP3    H228100   5.752   3.983   0.264  0.5962  0.2910 -0.9575
 2181TIP3   OH228101   3.928   1.757   6.576  0.2725  0.0569  0.2629
 2181TIP3    H128102   3.873   1.714   6.511  1.5720  0.6844 -1.3230
 2181TIP3    H228103   3.970   1.828   6.528  0.9048  0.8646  1.9346
 2182TIP3   OH228104   3.984   1.253   1.238  0.1819 -0.3705 -0.3934
 2182TIP3    H128105   3.932   1.259   1.318 -2.6065  0.4039 -2.1108
 2182TIP3    H228106   4.039   1.331   1.240  2.1862 -1.7012  1.9374
 2183TIP3   OH228107   1.168   5.954   6.893 -0.5158  0.1159 -0.3041
 2183TIP3    H128108   1.231   5.931   6.825 -2.0768  0.3942 -1.9313
 2183TIP3    H228109   1.189   5.897   6.966  0.0220 -1.5956 -1.7256
 2184TIP3   OH228110   0.652   1.664   7.532  0.0800 -0.1763 -0.0181
 2184TIP3    H128111   0.627   1.668   7.624 -1.8601 -0.0369 -0.5089
 2184TIP3    H228112   0.599   1.593   7.496 -0.4664  0.8657 -1.3748
 2185TIP3   OH228113   3.146   5.242   6.381  0.2261  0.0201  0.2088
 2185TIP3    H128114   3.199   5.289   6.446  0.1689  0.8027 -0.2980
 2185TIP3    H228115   3.206   5.180   6.341  0.6495  0.5885 -0.0440
 2186TIP3   OH228116   2.042   3.724   7.413 -0.0826  0.7112  0.2078
 2186TIP3    H128117   1.989   3.688   7.484 -0.4896  2.8109  1.0673
 2186TIP3    H228118   2.003   3.688   7.333  1.2395 -2.8212  0.9733
 2187TIP3   OH228119   2.607   6.493   7.500 -0.0831 -0.3073 -0.1371
 2187TIP3    H128120   2.683   6.463   7.550  1.0909  2.0586 -0.3833
 2187TIP3    H228121   2.604   6.587   7.515 -2.9457 -0.2964 -0.2391
 2188TIP3   OH228122   2.387   2.376   7.293 -0.1539 -0.0610  0.3053
 2188TIP3    H128123   2.423   2.464   7.281  0.5060 -0.2695  0.7672
 2188TIP3    H228124   2.418   2.348   7.379 -0.3110 -0.7741  0.1361
 2189TIP3   OH228125   4.494   4.193   6.780  0.4432  0.0469 -0.1902
 2189TIP3    H128126   4.425   4.148   6.827  0.7897 -2.4774 -1.9017
 2189TIP3    H228127   4.449   4.252   6.720 -0.1903 -0.9430 -0.6887
 2190TIP3   OH228128   6.905   5.407   6.574 -0.4891  0.2628  0.4699
 2190TIP3    H128129   6.997   5.432   6.583 -0.8113  0.9070  2.3785
 2190TIP3    H228130   6.863   5.443   6.652 -1.9044 -2.1899  0.9380
 2191TIP3   OH228131   1.745   4.443   7.313 -0.3561  0.0554  0.1434
 2191TIP3    H128132   1.827   4.480   7.344 -0.6694  0.1936  0.8140
 2191TIP3    H228133   1.679   4.509   7.333 -0.6909 -0.2087 -0.0622
 2192TIP3   OH228134   1.804   5.953   5.869  0.5237  0.3040 -0.0576
 2192TIP3    H128135   1.731   5.984   5.815  1.4932 -0.6042 -1.9468
 2192TIP3    H228136   1.810   6.019   5.939 -2.9541 -0.2933  1.0174
 2193TIP3   OH228137   3.548   3.931   0.044 -0.5943  0.0126 -0.4264
 2193TIP3    H128138   3.518   3.957  -0.043 -0.4789 -1.6123 -0.9848
 2193TIP3    H228139   3.589   4.010   0.080 -1.0916  0.8468 -1.6326
 2194TIP3   OH228140   5.211   4.942   0.991 -0.2835  0.3616  0.4736
 2194TIP3    H128141   5.144   4.877   0.971 -2.1175  2.2847 -0.0941
 2194TIP3    H228142   5.185   5.019   0.940  4.0912  0.3657 -2.2594
 2195TIP3   OH228143   0.067   7.045   6.355  0.1151 -0.1579 -0.4933
 2195TIP3    H128144   0.039   7.036   6.264 -0.1255 -0.0395 -0.4298
 2195TIP3    H228145   0.162   7.030   6.353  0.1027 -0.1892 -0.7575
 2196TIP3   OH228146   3.151   3.372   6.882  0.3985  0.0881  0.2751
 2196TIP3    H128147   3.133   3.286   6.920 -0.8460  0.6215  0.9536
 2196TIP3    H228148   3.106   3.370   6.798  0.7042 -0.0513  0.1111
 2197TIP3   OH228149   0.102   0.283   7.563  0.3483  0.2778 -0.4362
 2197TIP3    H128150   0.043   0.310   7.493  0.0064 -0.4361 -0.4352
 2197TIP3    H228151   0.084   0.342   7.636 -1.6368 -1.0123  0.1882
 2198TIP3   OH228152   6.099   4.986   1.590  0.0312  0.7451 -0.1253
 2198TIP3    H128153   6.036   4.921   1.620  0.3183  0.8085  0.6303
 2198TIP3    H228154   6.120   4.959   1.500 -0.1683  0.0387  0.0358
 2199TIP3   OH228155   4.696   6.918   6.116  0.3911 -0.2717  0.1024
 2199TIP3    H128156   4.751   6.872   6.052 -0.7302 -1.1964 -0.2422
 2199TIP3    H228157   4.680   6.852   6.184 -0.6743 -0.1823 -0.0490
 2200TIP3   OH228158   0.646   4.838   5.887  0.0634  0.0450 -0.0047
 2200TIP3    H128159   0.684   4.921   5.857  1.4225 -0.8641 -0.9152
 2200TIP3    H228160   0.568   4.826   5.832 -0.1216  0.6900  0.1074
 2201TIP3   OH228161   1.540   2.157   0.290  0.2423  0.6031  0.0236
 2201TIP3    H128162   1.604   2.151   0.219  0.4588 -0.6443  0.2996
 2201TIP3    H228163   1.468   2.099   0.263 -0.4717  1.4671  0.0283
 2202TIP3   OH228164   1.652   0.213   0.888 -0.2914  0.2214 -0.3900
 2202TIP3    H128165   1.598   0.279   0.845  0.2725  1.1412  0.2894
 2202TIP3    H228166   1.645   0.233   0.982 -0.3146 -0.8347 -0.1530
 2203TIP3   OH228167   3.624   2.460   1.457 -0.8532  0.8409 -0.1131
 2203TIP3    H128168   3.583   2.395   1.515  0.2031  0.9255  0.7674
 2203TIP3    H228169   3.598   2.544   1.495 -1.2037  0.9157 -0.5196
 2204TIP3   OH228170   4.862   3.020   7.025 -0.0294 -0.1640 -0.0988
 2204TIP3    H128171   4.844   3.089   6.961 -1.7543 -2.1287 -1.8936
 2204TIP3    H228172   4.928   2.965   6.983  0.7471 -0.0649  0.9667
 2205TIP3   OH228173   5.139   3.993   6.099 -0.6035 -0.6447 -0.2137
 2205TIP3    H128174   5.192   4.072   6.085  0.9556 -1.4503  0.8006
 2205TIP3    H228175   5.053   4.015   6.065 -0.2477  1.5440  0.1701
 2206TIP3   OH228176   5.224   2.794   0.312 -0.2152 -0.2798 -0.0685
 2206TIP3    H128177   5.205   2.884   0.285 -2.1796 -1.1065 -1.6710
 2206TIP3    H228178   5.283   2.760   0.245  1.4837  0.0958  1.1533
 2207TIP3   OH228179   3.056   4.374   1.807  0.4683 -0.2351  0.0696
 2207TIP3    H128180   3.109   4.316   1.862 -2.0409 -0.5001  2.4354
 2207TIP3    H228181   2.994   4.316   1.763  1.2535  0.1863 -1.6542
 2208TIP3   OH228182   2.710   5.203   7.204  0.3488 -0.2513 -0.4162
 2208TIP3    H128183   2.651   5.252   7.147 -0.3338 -2.2447 -1.5281
 2208TIP3    H228184   2.655   5.175   7.277 -0.0924 -1.9080 -1.3337
 2209TIP3   OH228185   6.675   1.914   1.153  0.3430  1.0445 -0.0130
 2209TIP3    H128186   6.612   1.916   1.224  0.7455  0.9488  0.3501
 2209TIP3    H228187   6.631   1.864   1.083  0.1700  0.6366  0.3800
 2210TIP3   OH228188   3.747   3.377   5.845 -0.4578 -0.3147 -0.5821
 2210TIP3    H128189   3.841   3.395   5.849 -0.5598  0.1957 -0.3460
 2210TIP3    H228190   3.735   3.329   5.764  0.2513 -1.9227  0.2207
 2211TIP3   OH228191   0.868   5.923   0.421  0.1878  0.1612  1.2298
 2211TIP3    H128192   0.816   5.946   0.498 -0.1667 -2.1743  1.7493
 2211TIP3    H228193   0.923   5.850   0.450  0.0253 -0.8047 -0.7240
 2212TIP3   OH228194   5.477   3.761   6.888 -0.8057  0.4658  0.2487
 2212TIP3    H128195   5.507   3.838   6.935  1.2170 -0.4548  0.5532
 2212TIP3    H228196   5.460   3.791   6.799  1.2242  1.0476  0.0167
 2213TIP3   OH228197   3.679   4.579   6.039  0.0893  0.1840 -0.3425
 2213TIP3    H128198   3.707   4.491   6.066 -0.1257  0.4246  0.7047
 2213TIP3    H228199   3.756   4.634   6.052  0.1215  0.2131 -0.6610
 2214TIP3   OH228200   5.202   6.401   6.824 -0.1335 -0.5369 -0.1452
 2214TIP3    H128201   5.195   6.306   6.808  0.4570 -0.9914  1.9459
 2214TIP3    H228202   5.256   6.408   6.902  1.1231  1.6412 -1.1232
 2215TIP3   OH228203   2.529   2.544   1.212  0.3255  0.2799  0.5248
 2215TIP3    H128204   2.456   2.559   1.152  0.3359 -3.5528 -0.7092
 2215TIP3    H228205   2.500   2.581   1.295 -2.3558  0.2687 -0.3242
 2216TIP3   OH228206   4.585   3.985   1.518 -0.2017  0.5337 -0.1621
 2216TIP3    H128207   4.620   3.901   1.546 -1.2434  0.2313  0.2892
 2216TIP3    H228208   4.626   4.049   1.576  2.0563  0.5978 -1.7222
 2217TIP3   OH228209   1.322   0.897   1.264  0.1255 -0.3741 -0.1891
 2217TIP3    H128210   1.331   0.920   1.172  1.2375  0.4451  0.1041
 2217TIP3    H228211   1.395   0.941   1.307 -1.4398  0.8177  1.3742
 2218TIP3   OH228212   4.876   3.313   6.313 -0.0058 -0.3194 -0.3657
 2218TIP3    H128213   4.875   3.259   6.234 -0.9486 -1.7381  0.5874
 2218TIP3    H228214   4.790   3.299   6.353  0.7869 -0.3252  1.3901
 2219TIP3   OH228215   6.680   4.901   5.977  0.2926 -0.6141 -0.8061
 2219TIP3    H128216   6.679   4.969   5.911 -0.2422 -0.8511 -1.0470
 2219TIP3    H228217   6.773   4.882   5.991  0.4256 -0.1348 -1.0367
 2220TIP3   OH228218   4.001   4.887   6.354  0.8557 -0.0475 -0.0724
 2220TIP3    H128219   3.990   4.798   6.389  0.6068 -0.3871 -0.9786
 2220TIP3    H228220   3.947   4.942   6.410 -0.0693 -0.6781 -0.3135
 2221TIP3   OH228221   0.327   0.319   6.908 -0.0876 -0.1163 -0.1068
 2221TIP3    H128222   0.315   0.238   6.858  1.0365 -0.2989 -0.1023
 2221TIP3    H228223   0.315   0.293   7.000 -1.5251  0.0965 -0.2083
 2222TIP3   OH228224   2.212   4.179   1.417 -0.5380  0.4856  0.8299
 2222TIP3    H128225   2.208   4.158   1.510  0.2886  0.5019  0.8729
 2222TIP3    H228226   2.235   4.097   1.374  1.3667  0.9340  0.8761
 2223TIP3   OH228227   5.478   3.250   6.284  0.3051  0.7225  0.4834
 2223TIP3    H128228   5.552   3.310   6.287 -1.2258  2.9029 -1.7100
 2223TIP3    H228229   5.410   3.293   6.336 -0.1228 -0.2180  0.7279
 2224TIP3   OH228230   3.119   0.003   6.539 -0.1533 -0.0412  1.1570
 2224TIP3    H128231   3.208   0.035   6.522 -0.3853  1.0039  1.7994
 2224TIP3    H228232   3.067   0.082   6.547 -1.9909 -0.5418 -3.0806
 2225TIP3   OH228233   2.585   7.136   1.800 -0.1113 -0.4056 -0.0948
 2225TIP3    H128234   2.604   7.125   1.893 -0.3341 -1.5013 -0.1679
 2225TIP3    H228235   2.567   7.229   1.790  0.6046 -0.1570  0.8281
 2226TIP3   OH228236   0.935   4.308   7.018  0.1179 -0.1398  0.1381
 2226TIP3    H128237   0.914   4.225   7.061  1.4050 -0.0011  1.0886
 2226TIP3    H228238   0.855   4.361   7.027  0.0400 -0.4675  1.5269
 2227TIP3   OH228239   4.239   4.221   5.709  0.2097 -0.2642 -0.3434
 2227TIP3    H128240   4.276   4.308   5.723  0.6526 -0.1469 -1.9788
 2227TIP3    H228241   4.306   4.161   5.741  0.6525 -0.0141 -0.7799
 2228TIP3   OH228242   6.771   4.833   7.409 -0.2199 -0.5809 -0.3142
 2228TIP3    H128243   6.760   4.926   7.392 -0.2233 -0.7010 -1.0227
 2228TIP3    H228244   6.817   4.828   7.493  1.2166  0.0840 -1.0386
 2229TIP3   OH228245   5.606   2.642   6.119 -0.0363  0.3227  0.4230
 2229TIP3    H128246   5.673   2.589   6.076  1.3447 -0.9724  3.7907
 2229TIP3    H228247   5.654   2.692   6.185 -2.0474  1.5711  1.0306
 2230TIP3   OH228248   3.281   0.779   6.602  0.1685  0.1796 -0.2859
 2230TIP3    H128249   3.302   0.687   6.622  1.5814  0.6015  0.3451
 2230TIP3    H228250   3.212   0.774   6.537 -1.0834 -1.3182  1.0712
 2231TIP3   OH228251   2.745   4.971   7.557 -0.2258 -0.3913  0.7118
 2231TIP3    H128252   2.821   5.005   7.510 -1.0176  0.0972 -0.2641
 2231TIP3    H228253   2.686   5.045   7.564 -0.2061 -0.4897  2.3985
 2232TIP3   OH228254   0.605   1.307   0.278 -0.7253 -0.3023 -0.6029
 2232TIP3    H128255   0.662   1.328   0.204 -0.0359 -0.4683 -0.1263
 2232TIP3    H228256   0.660   1.319   0.355 -1.3061 -0.5709 -0.1403
 2233TIP3   OH228257   4.814   2.172   1.009  0.3675 -0.1813 -0.1577
 2233TIP3    H128258   4.890   2.186   0.952  0.3816  0.9526  0.1177
 2233TIP3    H228259   4.836   2.219   1.089 -1.8345  2.8056 -1.1176
 2234TIP3   OH228260   2.178   3.398   6.101  0.1066 -0.1804 -0.1200
 2234TIP3    H128261   2.161   3.491   6.117 -0.0670 -0.0642 -0.9127
 2234TIP3    H228262   2.204   3.394   6.009  0.9974 -0.8051  0.1460
 2235TIP3   OH228263   1.916   2.783   7.844  0.0641 -0.2191  0.2053
 2235TIP3    H128264   1.858   2.806   7.772 -0.5080 -0.4447  0.5865
 2235TIP3    H228265   1.992   2.841   7.833  0.2856 -0.7003 -0.9451
 2236TIP3   OH228266   6.677   2.367   7.537  0.6262  0.5951  0.6127
 2236TIP3    H128267   6.738   2.368   7.463 -1.9526  2.2749 -1.6758
 2236TIP3    H228268   6.666   2.459   7.560 -2.2131  0.5441 -0.2032
 2237TIP3   OH228269   5.394   4.079   7.249 -0.2467  0.0945  0.2460
 2237TIP3    H128270   5.308   4.078   7.291 -0.0972 -0.0041  0.5605
 2237TIP3    H228271   5.451   4.036   7.313 -0.0041 -0.0133 -0.0430
 2238TIP3   OH228272   3.190   5.869   7.909 -0.0834 -0.3420 -0.0323
 2238TIP3    H128273   3.209   5.836   7.997  0.0849  0.3441  0.1921
 2238TIP3    H228274   3.270   5.853   7.859 -0.3022 -1.0656 -0.1708
 2239TIP3   OH228275   3.592   5.759   0.818  0.3141  0.0125  0.7756
 2239TIP3    H128276   3.572   5.741   0.726 -0.1337  0.0349  0.8684
 2239TIP3    H228277   3.677   5.804   0.815  1.5109 -2.1049  0.5321
 2240TIP3   OH228278   0.513   4.816   0.642 -0.7985 -0.4090 -0.0092
 2240TIP3    H128279   0.549   4.758   0.709 -0.3160  0.4499  0.4981
 2240TIP3    H228280   0.583   4.822   0.576 -0.0055  1.1661  0.9193
 2241TIP3   OH228281   5.357   2.759   1.433  0.3290 -0.5161 -0.4763
 2241TIP3    H128282   5.350   2.740   1.526  1.3421 -0.9986 -0.4865
 2241TIP3    H228283   5.363   2.855   1.429 -0.1328 -0.4674 -0.0790
 2242TIP3   OH228284   0.197   3.213   0.946 -0.0124  0.1772  0.2456
 2242TIP3    H128285   0.185   3.121   0.921 -1.2970  0.7585 -1.4307
 2242TIP3    H228286   0.202   3.260   0.863 -2.4109  1.9848  1.0210
 2243TIP3   OH228287   4.661   4.474   7.923 -0.6615  0.2520  0.0303
 2243TIP3    H128288   4.718   4.436   7.857  0.5142  0.3903  0.9360
 2243TIP3    H228289   4.669   4.568   7.910 -2.7762  0.3008 -1.5419
 2244TIP3   OH228290   3.926   0.677   0.838  0.1854  0.0277  0.1143
 2244TIP3    H128291   4.011   0.635   0.823  0.3838  0.9032 -1.3991
 2244TIP3    H228292   3.945   0.771   0.830 -0.5807  0.3309  1.6663
 2245TIP3   OH228293   6.476   3.711   7.850  0.4384 -0.0986 -0.4893
 2245TIP3    H128294   6.428   3.755   7.780  1.2302 -0.0171 -0.9932
 2245TIP3    H228295   6.568   3.730   7.831  0.8036 -1.9378 -0.7044
 2246TIP3   OH228296   0.445   5.678   5.803  0.2427  0.1350  0.8269
 2246TIP3    H128297   0.365   5.685   5.750  0.8501  0.4989 -0.0752
 2246TIP3    H228298   0.457   5.584   5.816  0.3584  0.0025 -0.1421
 2247TIP3   OH228299   3.779   1.108   7.574 -0.0723  0.0907  0.0298
 2247TIP3    H128300   3.795   1.068   7.488  0.3914  0.7578 -0.2015
 2247TIP3    H228301   3.796   1.038   7.637 -0.6898 -0.4844 -0.4278
 2248TIP3   OH228302   0.668   6.332   1.176  0.4389 -0.4079 -0.0211
 2248TIP3    H128303   0.626   6.404   1.223  0.3123  0.1738 -1.0149
 2248TIP3    H228304   0.729   6.294   1.240  0.7715  0.8000  0.3983
 2249TIP3   OH228305   4.287   1.871   5.826 -0.3715  0.2364 -0.0308
 2249TIP3    H128306   4.349   1.799   5.827 -2.0542 -1.3451 -1.3705
 2249TIP3    H228307   4.250   1.873   5.914  0.1099 -0.1611  0.1816
 2250TIP3   OH228308   5.974   4.660   7.968 -0.1370 -0.0289 -0.3741
 2250TIP3    H128309   5.923   4.608   8.029  1.4674  2.2787  3.2685
 2250TIP3    H228310   5.944   4.749   7.981  2.4759  0.9598 -0.5045
 2251TIP3   OH228311   0.363   2.971   7.661 -0.2887 -0.5082  0.3810
 2251TIP3    H128312   0.452   3.006   7.663 -0.0995 -0.9835  0.4752
 2251TIP3    H228313   0.347   2.952   7.568 -0.7340  0.6647  0.1988
 2252TIP3   OH228314   3.137   6.676   1.400  0.2492 -0.5378 -0.5609
 2252TIP3    H128315   3.188   6.688   1.480  0.4288 -1.8232 -0.4705
 2252TIP3    H228316   3.189   6.616   1.347 -0.5978 -0.9218 -0.9768
 2253TIP3   OH228317   3.599   4.737   0.522 -0.8795 -0.2602 -0.0465
 2253TIP3    H128318   3.609   4.668   0.588 -0.3597 -0.3731 -0.2365
 2253TIP3    H228319   3.596   4.818   0.573 -1.2457 -0.3997  0.1619
 2254TIP3   OH228320   4.984   1.010   2.016  0.1104 -0.1249 -0.1430
 2254TIP3    H128321   5.050   1.073   1.987  1.8272 -0.6735  2.2750
 2254TIP3    H228322   4.906   1.033   1.966  1.8008  1.2447 -2.3490
 2255TIP3   OH228323   5.701   5.447   6.957  0.5459 -0.3662  0.1339
 2255TIP3    H128324   5.670   5.395   7.031 -1.6429  0.2839 -0.2551
 2255TIP3    H228325   5.796   5.453   6.970  0.3109 -0.7840  2.5468
 2256TIP3   OH228326   5.739   4.798   7.092  0.0146  0.1339 -0.0276
 2256TIP3    H128327   5.742   4.859   7.166 -0.3539 -1.3741  1.2897
 2256TIP3    H228328   5.692   4.721   7.126  1.3971 -1.3409 -1.2480
 2257TIP3   OH228329   5.389   1.787   1.379  0.4684 -0.3165  0.0850
 2257TIP3    H128330   5.413   1.694   1.381 -1.2112 -0.7885 -0.3799
 2257TIP3    H228331   5.360   1.802   1.289 -0.5763  0.3041  0.5153
 2258TIP3   OH228332   6.195   5.098   6.382 -0.1749  0.5874  0.0018
 2258TIP3    H128333   6.176   5.036   6.452 -0.8090  1.7448  0.8728
 2258TIP3    H228334   6.167   5.053   6.302 -1.5913  0.1477  0.7203
 2259TIP3   OH228335   0.182   3.176   7.734  0.1543 -0.5478 -0.2836
 2259TIP3    H128336   0.231   3.195   7.814 -1.3638 -0.3955  0.6486
 2259TIP3    H228337   0.222   3.095   7.700  0.6359 -0.7781  0.7872
 2260TIP3   OH228338   6.092   6.565   0.020  0.0660  0.7488  0.1062
 2260TIP3    H128339   6.082   6.642   0.076 -1.2841  0.0277  0.9053
 2260TIP3    H228340   6.184   6.567  -0.008  0.2095  2.3064  0.5833
 2261TIP3   OH228341   6.847   4.103   6.464 -0.0848 -0.1782 -0.5354
 2261TIP3    H128342   6.877   4.186   6.500 -3.5046  0.3415  1.5798
 2261TIP3    H228343   6.816   4.124   6.376 -3.8840  1.7957  1.0197
 2262TIP3   OH228344   4.587   3.963   1.965  0.2254 -0.5045 -0.0738
 2262TIP3    H128345   4.642   3.905   1.912 -0.6144 -1.2857 -0.1176
 2262TIP3    H228346   4.640   3.982   2.043  0.4284 -1.5490  0.0609
 2263TIP3   OH228347   6.586   4.958   1.672 -0.2061  0.0575 -0.0984
 2263TIP3    H128348   6.655   4.957   1.605 -0.9645  0.2682 -0.8975
 2263TIP3    H228349   6.599   4.877   1.721 -2.5085 -2.6977 -3.5157
 2264TIP3   OH228350   5.646   7.091   6.755 -0.1901  0.1706  0.2286
 2264TIP3    H128351   5.572   7.138   6.717 -0.1084 -0.5213 -0.8325
 2264TIP3    H228352   5.666   7.139   6.836 -1.3675  0.7522  0.1978
 2265TIP3   OH228353   4.847   2.787   5.878 -0.0946 -0.0577  0.1163
 2265TIP3    H128354   4.864   2.740   5.796  1.8652 -0.5573  0.7532
 2265TIP3    H228355   4.790   2.728   5.928  1.0013 -1.0545  0.2299
 2266TIP3   OH228356   0.128   6.812   0.238 -0.0023 -0.4870 -0.0104
 2266TIP3    H128357   0.140   6.742   0.175  2.2878  1.9990 -2.6310
 2266TIP3    H228358   0.200   6.802   0.300  2.3365  1.1622 -2.2466
 2267TIP3   OH228359   6.959   2.435   7.982  0.2258  0.0941 -0.3658
 2267TIP3    H128360   6.875   2.395   8.003  0.2820  0.2948  0.2684
 2267TIP3    H228361   6.984   2.396   7.898  0.4210 -1.4132  0.3643
 2268TIP3   OH228362   4.429   4.924   1.131 -0.2757 -0.5284 -0.0837
 2268TIP3    H128363   4.457   4.853   1.073  0.3806 -0.7341  0.4732
 2268TIP3    H228364   4.426   4.884   1.218 -1.1896 -0.2085  0.0438
 2269TIP3   OH228365   5.832   5.058   5.352  0.3506 -0.7053  0.1860
 2269TIP3    H128366   5.892   4.984   5.361  0.5150 -0.4756  1.1483
 2269TIP3    H228367   5.888   5.133   5.330  0.4264 -0.5051  1.0166
 2270TIP3   OH228368   1.025   0.666   0.636 -0.1767 -0.2741  0.1497
 2270TIP3    H128369   1.050   0.684   0.546  0.7325  2.7036  0.8991
 2270TIP3    H228370   1.092   0.606   0.668 -0.0351 -0.6875 -0.8847
 2271TIP3   OH228371   6.920   4.266   6.877 -0.0995 -0.2403 -0.1549
 2271TIP3    H128372   6.994   4.274   6.938 -2.5192 -1.5759  3.2070
 2271TIP3    H228373   6.894   4.356   6.860  0.5823  0.1761  0.8835
 2272TIP3   OH228374   0.156   6.884   7.445 -0.1644  0.1045 -0.6321
 2272TIP3    H128375   0.136   6.911   7.534 -0.2075 -1.7604 -0.0218
 2272TIP3    H228376   0.174   6.790   7.452  1.6257  0.2449 -2.3014
 2273TIP3   OH228377   6.744   4.935   0.118 -0.1734  0.1287  0.5117
 2273TIP3    H128378   6.660   4.906   0.082 -0.2723 -2.2404  2.3823
 2273TIP3    H228379   6.722   5.009   0.174 -1.0403 -0.4961  1.0151
 2274TIP3   OH228380   4.895   4.608   5.585 -0.3973 -0.5968  0.2180
 2274TIP3    H128381   4.918   4.654   5.504  1.3691 -2.7076 -0.5977
 2274TIP3    H228382   4.977   4.565   5.611 -1.6825 -2.4635  1.4163
 2275TIP3   OH228383   1.455   0.819   6.834  0.4359 -0.1971  0.3792
 2275TIP3    H128384   1.362   0.817   6.855 -0.3847 -1.8424 -2.6910
 2275TIP3    H228385   1.498   0.778   6.909 -1.5584 -1.2701  1.0147
 2276TIP3   OH228386   2.651   3.585   2.104  0.3488  0.2828  0.1987
 2276TIP3    H128387   2.732   3.626   2.135  0.6452 -0.2163  0.1014
 2276TIP3    H228388   2.582   3.620   2.161  0.8016 -0.1955  1.0555
 2277TIP3   OH228389   6.955   2.180   0.418 -0.3940  0.0486 -0.0301
 2277TIP3    H128390   6.963   2.155   0.326 -0.4537  0.1554 -0.0649
 2277TIP3    H228391   6.861   2.190   0.432 -0.3701  0.2884 -0.0284
 2278TIP3   OH228392   5.219   0.173   1.029  0.3244  0.7096 -0.9277
 2278TIP3    H128393   5.126   0.197   1.036  0.2522  0.1790  0.0586
 2278TIP3    H228394   5.224   0.126   0.946 -0.8123 -1.3775  0.0985
 2279TIP3   OH228395   4.138   3.229   6.512 -0.2941 -0.0371 -0.6358
 2279TIP3    H128396   4.067   3.254   6.572  0.7475  1.1486  0.1456
 2279TIP3    H228397   4.143   3.300   6.449  0.7034  0.2897 -0.2112
 2280TIP3   OH228398   0.474   5.992   0.062 -0.1564  0.9778  0.4197
 2280TIP3    H128399   0.399   6.049   0.051  0.5482  2.0270  0.8789
 2280TIP3    H228400   0.440   5.916   0.109 -1.1008  1.0284 -0.1606
 2281TIP3   OH228401   4.371   5.765   7.306  0.4036  0.0352  0.7448
 2281TIP3    H128402   4.442   5.825   7.285  0.0052  1.3550  2.8671
 2281TIP3    H228403   4.400   5.720   7.385 -0.6342 -0.2075  1.0074
 2282TIP3   OH228404   4.407   0.115   1.826  0.0063  0.2246  0.5055
 2282TIP3    H128405   4.443   0.030   1.848 -1.0650  0.3545  3.0685
 2282TIP3    H228406   4.452   0.176   1.885 -1.0210  1.0556  0.4520
 2283TIP3   OH228407   3.193   4.931   6.055  0.3424 -0.0257 -0.1092
 2283TIP3    H128408   3.124   4.865   6.057  2.2837 -2.3465 -2.2694
 2283TIP3    H228409   3.272   4.883   6.081  1.2799  2.4530  1.9737
 2284TIP3   OH228410   4.638   3.018   0.653 -0.2648  0.4071 -0.6500
 2284TIP3    H128411   4.684   2.943   0.615  0.2068  0.7536 -0.7765
 2284TIP3    H228412   4.554   2.982   0.682 -0.4852  0.0471 -1.6651
 2285TIP3   OH228413   1.832   6.343   1.946 -0.2317  0.1903 -0.4731
 2285TIP3    H128414   1.824   6.350   2.041 -2.2103  0.9384 -0.6438
 2285TIP3    H228415   1.761   6.285   1.920 -0.1296  0.5309 -1.5541
 2286TIP3   OH228416   4.884   6.034   0.071 -0.7229 -0.3853 -0.0439
 2286TIP3    H128417   4.928   6.019  -0.013 -1.0190 -2.0637  0.0761
 2286TIP3    H228418   4.956   6.049   0.133 -0.5089  1.0981 -0.6025
 2287TIP3   OH228419   0.033   0.430   0.689 -0.1391  0.1713  0.1853
 2287TIP3    H128420  -0.024   0.385   0.627  0.7155 -0.7086  0.0148
 2287TIP3    H228421  -0.020   0.438   0.769 -1.4171  1.7366 -0.7666
 2288TIP3   OH228422   6.539   5.112   6.653  0.1997 -0.0008 -0.0566
 2288TIP3    H128423   6.551   5.098   6.559  0.6357 -0.7252  0.1005
 2288TIP3    H228424   6.447   5.135   6.662  0.0815 -0.2246 -0.6293
 2289TIP3   OH228425   0.145   6.653   0.015  0.1686 -0.1394 -0.8050
 2289TIP3    H128426   0.204   6.577   0.017 -0.8397 -0.9495  1.7988
 2289TIP3    H228427   0.122   6.662  -0.077  3.2807 -0.5873 -1.7655
 2290TIP3   OH228428   0.626   2.854   1.486  0.4779  0.2790  0.4691
 2290TIP3    H128429   0.687   2.928   1.482  0.2340  0.5440  1.4331
 2290TIP3    H228430   0.587   2.860   1.573 -0.7475 -0.0418 -0.0456
 2291TIP3   OH228431   1.650   5.978   7.070  0.4406 -0.5121 -0.0737
 2291TIP3    H128432   1.663   6.073   7.062 -0.3061 -0.4058 -0.1082
 2291TIP3    H228433   1.683   5.958   7.158 -1.4978  0.1968  0.8924
 2292TIP3   OH228434   3.904   5.731   0.592 -0.0205 -0.8458 -0.3195
 2292TIP3    H128435   3.914   5.786   0.514 -0.0131 -0.6311 -0.1668
 2292TIP3    H228436   3.887   5.643   0.557  0.2931 -0.8107 -0.5649
 2293TIP3   OH228437   2.719   1.298   7.757  0.3939 -0.0316  0.3817
 2293TIP3    H128438   2.642   1.259   7.799  0.3173 -1.5361 -1.0454
 2293TIP3    H228439   2.788   1.291   7.823  0.0924 -1.6545  0.5611
 2294TIP3   OH228440   1.351   3.153   6.969  0.1475 -0.2023  0.1141
 2294TIP3    H128441   1.389   3.240   6.956  2.7129 -1.2644 -0.1877
 2294TIP3    H228442   1.270   3.169   7.018  0.5756  2.3276  0.1448
 2295TIP3   OH228443   5.570   5.868   1.235  0.9652 -0.2515  0.3674
 2295TIP3    H128444   5.518   5.897   1.160 -0.0029  0.1981  1.1759
 2295TIP3    H228445   5.506   5.860   1.306  1.8194 -0.8764  1.0907
 2296TIP3   OH228446   4.233   5.359   0.782  0.2893 -0.4980 -0.2431
 2296TIP3    H128447   4.291   5.400   0.717 -1.5929 -0.3364 -1.9080
 2296TIP3    H228448   4.162   5.322   0.731 -2.1885  1.0732  1.8217
 2297TIP3   OH228449   3.677   7.065   0.932 -0.5596 -0.4381  0.0965
 2297TIP3    H128450   3.773   7.066   0.942 -0.5839  0.2553  0.3064
 2297TIP3    H228451   3.646   7.023   1.012 -0.4657 -0.0545  0.3335
 2298TIP3   OH228452   1.487   3.711   6.055 -0.1661 -0.0325  0.2670
 2298TIP3    H128453   1.407   3.736   6.009 -0.0584  1.4670  0.8319
 2298TIP3    H228454   1.460   3.641   6.114 -0.7667 -0.4601 -0.4921
 2299TIP3   OH228455   6.670   4.208   7.949  0.2133  0.4322  0.5644
 2299TIP3    H128456   6.689   4.293   7.989 -0.8238  1.1489 -0.4137
 2299TIP3    H228457   6.622   4.229   7.869 -2.5410 -1.1493  1.6572
 2300TIP3   OH228458   3.426   3.234   6.185 -0.6159  0.6114  0.2373
 2300TIP3    H128459   3.382   3.173   6.125  1.5270 -1.2607  0.4496
 2300TIP3    H228460   3.467   3.298   6.127  0.9745 -0.8710 -0.3872
 2301TIP3   OH228461   3.373   5.257   7.105 -0.0832  0.3322 -1.1443
 2301TIP3    H128462   3.450   5.206   7.081 -0.3289 -0.0249 -1.1831
 2301TIP3    H228463   3.301   5.193   7.104 -0.2150  0.4584 -0.1730
 2302TIP3   OH228464   4.427   6.629   5.866  0.8159 -0.1412  0.6573
 2302TIP3    H128465   4.359   6.695   5.871  0.4844 -0.2948 -1.0004
 2302TIP3    H228466   4.398   6.559   5.925 -1.2017 -0.8052 -0.9945
 2303TIP3   OH228467   5.127   1.534   6.007  0.0262  0.2168 -0.2663
 2303TIP3    H128468   5.168   1.563   5.925  0.6276 -1.8553 -0.7458
 2303TIP3    H228469   5.047   1.587   6.013  0.3407  0.9328 -1.8064
 2304TIP3   OH228470   2.368   1.591   6.291  0.2707 -0.7602 -0.2556
 2304TIP3    H128471   2.372   1.499   6.319 -2.0335 -0.8863 -0.1269
 2304TIP3    H228472   2.408   1.640   6.363 -2.1895 -1.3800  1.6427
 2305TIP3   OH228473   0.662   0.162   7.047 -0.6511  0.0466  0.3280
 2305TIP3    H128474   0.667   0.084   6.992 -0.4443  0.9667 -1.0120
 2305TIP3    H228475   0.577   0.156   7.091 -1.2417 -0.2641 -0.8239
 2306TIP3   OH228476   3.415   4.995   0.428  0.3468  0.0412 -0.0523
 2306TIP3    H128477   3.360   5.073   0.437  0.4987  0.1460 -0.0433
 2306TIP3    H228478   3.354   4.922   0.443  0.5018  0.1926  1.5004
 2307TIP3   OH228479   4.511   5.152   6.927  0.5322 -0.6102  0.3973
 2307TIP3    H128480   4.551   5.230   6.966 -0.5900 -0.1007  0.5876
 2307TIP3    H228481   4.494   5.178   6.836 -1.6311  0.1195  0.9494
 2308TIP3   OH228482   2.187   1.353   7.018  0.8638  0.4038  0.8204
 2308TIP3    H128483   2.130   1.397   6.954  2.0355 -0.8260 -1.1780
 2308TIP3    H228484   2.141   1.272   7.039  1.1914  0.0731  0.2930
 2309TIP3   OH228485   2.264   4.316   0.027  0.5051  0.1481  0.1506
 2309TIP3    H128486   2.188   4.374   0.030  0.0305 -0.2726  5.0019
 2309TIP3    H228487   2.339   4.375   0.041  0.6473  0.1412 -0.5569
 2310TIP3   OH228488   5.631   3.097   1.723  0.2688  0.3588  0.0719
 2310TIP3    H128489   5.641   3.184   1.761  2.5377 -1.0278  3.1321
 2310TIP3    H228490   5.565   3.054   1.778  0.1567 -0.2817 -0.5405
 2311TIP3   OH228491   1.193   3.494   1.205 -0.9631  0.3004  0.3552
 2311TIP3    H128492   1.202   3.410   1.158  1.5456 -0.2622  1.6658
 2311TIP3    H228493   1.206   3.560   1.137  0.7978 -0.4750 -0.1318
 2312TIP3   OH228494   2.161   2.985   7.489 -0.8962 -0.1964  0.6136
 2312TIP3    H128495   2.165   2.890   7.492  0.0172 -0.2006 -0.2621
 2312TIP3    H228496   2.111   3.004   7.410 -2.3749  0.0639  1.5644
 2313TIP3   OH228497   5.312   3.164   0.646 -0.1577  0.0918  0.1278
 2313TIP3    H128498   5.219   3.170   0.667 -0.1017  2.7536 -0.1356
 2313TIP3    H228499   5.354   3.145   0.730 -0.7739  1.0419  0.6685
 2314TIP3   OH228500   2.907   5.845   6.841  0.3677  0.1432 -0.0844
 2314TIP3    H128501   2.921   5.861   6.935 -1.2728  0.9714  0.0541
 2314TIP3    H228502   2.831   5.786   6.839 -0.6566  1.4442 -0.9109
 2315TIP3   OH228503   5.774   2.792   6.761  0.1978  0.6726 -0.2979
 2315TIP3    H128504   5.840   2.820   6.825 -1.0868 -0.4530  1.6279
 2315TIP3    H228505   5.777   2.696   6.765 -2.4052  0.5530  0.8824
 2316TIP3   OH228506   4.593   3.991   0.706  0.2527  0.5520 -0.1601
 2316TIP3    H128507   4.604   3.962   0.797 -1.2658  0.6942  0.1034
 2316TIP3    H228508   4.584   4.087   0.712 -1.3069  0.4427 -0.2585
 2317TIP3   OH228509   2.926   7.021   0.901 -0.1256  1.1774  0.1242
 2317TIP3    H128510   2.995   7.024   0.835  0.1738  1.0016  0.4318
 2317TIP3    H228511   2.890   6.932   0.893  1.3835  0.3752  1.7018
 2318TIP3   OH228512   0.175   2.807   7.203 -0.1429  0.3326  0.3073
 2318TIP3    H128513   0.113   2.854   7.148 -1.2130  0.6067  1.6841
 2318TIP3    H228514   0.122   2.744   7.251  1.0093 -1.0890 -0.1958
 2319TIP3   OH228515   5.413   4.329   0.252 -0.0548 -0.0839 -0.0841
 2319TIP3    H128516   5.428   4.235   0.251  2.2122  0.2392 -0.8381
 2319TIP3    H228517   5.414   4.355   0.160 -0.2525  0.7338  0.1361
 2320TIP3   OH228518   3.670   6.969   7.523 -0.2746  0.4111  0.1998
 2320TIP3    H128519   3.600   6.909   7.548  0.0186  0.3963  0.9951
 2320TIP3    H228520   3.709   6.997   7.605  0.5519  0.5542 -0.2256
 2321TIP3   OH228521   3.816   6.770   1.986  0.2856  0.4186 -0.2869
 2321TIP3    H128522   3.892   6.743   2.037 -0.8556 -0.0710  1.2078
 2321TIP3    H228523   3.789   6.690   1.940 -1.2560 -0.3112  1.7586
 2322TIP3   OH228524   3.993   0.305   7.881  0.6831 -0.4837 -0.0681
 2322TIP3    H128525   4.020   0.394   7.903  1.7106 -0.4972 -1.1942
 2322TIP3    H228526   3.946   0.313   7.798 -0.2640 -0.8575  0.4060
 2323TIP3   OH228527   4.697   0.221   0.455 -0.3876 -0.3102  0.3938
 2323TIP3    H128528   4.740   0.149   0.500 -2.7000  0.0919  3.5519
 2323TIP3    H228529   4.757   0.295   0.466  0.4790 -0.9373  0.0350
 2324TIP3   OH228530   6.114   3.899   7.321  0.6535 -0.3368  0.4230
 2324TIP3    H128531   6.142   3.869   7.234 -0.8494 -0.8282  0.0919
 2324TIP3    H228532   6.020   3.882   7.323  0.2071  1.9203  1.2126
 2325TIP3   OH228533   1.553   5.968   7.383 -0.0986  0.2546  0.1090
 2325TIP3    H128534   1.562   6.063   7.371 -0.3661  0.3258  0.4754
 2325TIP3    H228535   1.585   5.952   7.471  0.3873 -0.0621 -0.1227
 2326TIP3   OH228536   2.614   4.671   7.705  0.1168  0.0807 -0.1404
 2326TIP3    H128537   2.698   4.642   7.742 -1.5959  0.5398  4.8489
 2326TIP3    H228538   2.564   4.590   7.693  0.5651 -0.0462 -1.2385
 2327TIP3   OH228539   0.123   0.623   7.336  0.1043  0.8217  0.4722
 2327TIP3    H128540   0.043   0.676   7.337 -0.5695 -0.1669  0.5443
 2327TIP3    H228541   0.092   0.534   7.321  1.3480  0.6713 -1.7687
 2328TIP3   OH228542   0.196   1.177   0.434 -0.5416  0.6091  0.1660
 2328TIP3    H128543   0.188   1.270   0.454  0.6886  1.1115 -1.3851
 2328TIP3    H228544   0.287   1.156   0.455 -0.9489 -0.3834  0.9847
 2329TIP3   OH228545   6.368   4.852   1.523 -0.3359  0.1331  0.3125
 2329TIP3    H128546   6.297   4.888   1.576  0.0090  2.2669 -0.5768
 2329TIP3    H228547   6.445   4.905   1.545  0.7834 -1.5403  0.5800
 2330TIP3   OH228548   6.337   5.365   1.319 -0.3173  0.4417  0.4381
 2330TIP3    H128549   6.412   5.307   1.334  0.4196  0.6496 -2.0875
 2330TIP3    H228550   6.271   5.333   1.380  0.9253 -1.4380  0.9099
 2331TIP3   OH228551   5.423   0.802   6.229  0.0122 -0.1029  0.1681
 2331TIP3    H128552   5.329   0.800   6.212  0.0061  0.0042  0.1876
 2331TIP3    H228553   5.437   0.885   6.276  0.1029 -0.1600  0.2410
 2332TIP3   OH228554   5.664   0.950   6.074 -0.5616 -0.0463  0.1205
 2332TIP3    H128555   5.628   0.983   6.156 -1.3556  0.6178 -0.4898
 2332TIP3    H228556   5.724   0.880   6.102  0.2167  1.0443  1.3528
 2333TIP3   OH228557   6.313   4.598   1.499 -0.1054 -0.7523 -0.4344
 2333TIP3    H128558   6.251   4.551   1.443 -1.8142 -0.9281  1.4962
 2333TIP3    H228559   6.317   4.686   1.462 -0.8745 -0.9758 -1.0763
 2334TIP3   OH228560   3.650   0.736   1.798  0.3357 -0.4405  0.3234
 2334TIP3    H128561   3.703   0.701   1.727  0.5325 -0.4135  0.4581
 2334TIP3    H228562   3.693   0.708   1.878  0.2904 -0.2057  0.4336
 2335TIP3   OH228563   6.426   3.243   7.875  0.2568 -0.3183 -0.0511
 2335TIP3    H128564   6.519   3.261   7.888 -0.0915  0.8997  0.8885
 2335TIP3    H228565   6.387   3.329   7.860 -0.5435 -0.9301 -1.7680
 2336TIP3   OH228566   3.292   6.321   0.141  0.2065  0.1877  0.1200
 2336TIP3    H128567   3.294   6.228   0.163 -0.6870 -0.0588 -0.7697
 2336TIP3    H228568   3.291   6.366   0.226  1.7106 -0.5656  0.5571
 2337TIP3   OH228569   0.746   4.684   7.725 -0.7131 -0.6826 -0.0435
 2337TIP3    H128570   0.686   4.721   7.661  0.1676 -0.1818 -0.5838
 2337TIP3    H228571   0.688   4.640   7.788 -1.6628  0.0016 -0.4069
 2338TIP3   OH228572   1.495   2.903   5.780 -0.2377  0.1605 -0.2460
 2338TIP3    H128573   1.545   2.911   5.861 -1.2222  2.5721  0.2082
 2338TIP3    H228574   1.547   2.951   5.715  0.3283 -1.3862 -0.9872
 2339TIP3   OH228575   6.999   1.568   7.629 -0.0556 -0.2268 -0.5569
 2339TIP3    H128576   7.000   1.660   7.603 -0.6012  0.1314  0.6282
 2339TIP3    H228577   6.924   1.531   7.581 -1.2572  0.5054  0.6813
 2340TIP3   OH228578   2.802   4.432   7.184 -0.1618 -0.2335  0.1337
 2340TIP3    H128579   2.801   4.357   7.124  0.2912  0.0948 -0.2957
 2340TIP3    H228580   2.759   4.502   7.134 -1.9066 -0.5875  1.0637
 2341TIP3   OH228581   3.383   1.897   6.711 -0.3715 -0.2536  0.7601
 2341TIP3    H128582   3.304   1.902   6.765 -1.8042 -0.3273 -1.1943
 2341TIP3    H228583   3.406   1.804   6.711  0.0589 -0.1526  1.7843
 2342TIP3   OH228584   0.382   7.095   6.272 -0.3698  0.5504 -0.7986
 2342TIP3    H128585   0.440   7.071   6.199 -1.0297  0.9606 -1.4758
 2342TIP3    H228586   0.428   7.167   6.316  0.2072  0.0577 -0.5787
 2343TIP3   OH228587   4.515   0.754   7.074 -0.3933 -0.1195  0.1869
 2343TIP3    H128588   4.483   0.718   7.156 -0.3823 -0.6204 -0.0284
 2343TIP3    H228589   4.558   0.681   7.030  0.6729  0.4329  0.2706
 2344TIP3   OH228590   3.688   5.597   6.247 -0.1880  0.1181 -0.0473
 2344TIP3    H128591   3.771   5.550   6.253 -0.3750 -0.0359  2.4382
 2344TIP3    H228592   3.630   5.539   6.198  1.1192  0.1936 -1.7327
 2345TIP3   OH228593   4.390   1.685   7.868 -0.5479  0.2322 -0.0743
 2345TIP3    H128594   4.330   1.756   7.891 -1.8697 -1.1153  0.7311
 2345TIP3    H228595   4.464   1.695   7.928 -0.6178  1.0384 -0.1121
 2346TIP3   OH228596   0.940   5.505   7.433  0.5472 -0.1293  0.3718
 2346TIP3    H128597   1.027   5.529   7.466  0.1072 -0.9170  2.2700
 2346TIP3    H228598   0.914   5.578   7.377  2.1977  0.3817  0.2275
 2347TIP3   OH228599   3.213   5.870   0.853 -0.2957 -0.0781 -0.6679
 2347TIP3    H128600   3.146   5.897   0.791  0.7174  2.2783 -0.8721
 2347TIP3    H228601   3.192   5.918   0.933 -0.0751 -1.0141 -0.0342
 2348TIP3   OH228602   5.614   6.272   7.588 -0.3617 -0.3935 -0.1032
 2348TIP3    H128603   5.541   6.271   7.526 -0.2404 -0.3227 -0.2472
 2348TIP3    H228604   5.573   6.262   7.674 -0.4962 -0.9257 -0.2262
 2349TIP3   OH228605   7.040   1.501   0.205  0.0636  0.0394  0.0543
 2349TIP3    H128606   7.037   1.498   0.110  1.0802  2.5137 -0.1126
 2349TIP3    H228607   7.047   1.409   0.232  0.3779 -0.6664 -2.2540
 2350TIP3   OH228608   4.645   6.131   0.180 -0.0344 -0.1964  0.2799
 2350TIP3    H128609   4.574   6.094   0.127  1.8588 -1.5359 -1.4685
 2350TIP3    H228610   4.725   6.108   0.133  1.7144 -0.3096  3.0927
 2351TIP3   OH228611   6.725   4.303   7.107  0.0329  0.2831 -0.2763
 2351TIP3    H128612   6.639   4.295   7.067  0.3891 -0.0487 -0.9956
 2351TIP3    H228613   6.787   4.291   7.035  0.6848  1.7758 -0.0246
 2352TIP3   OH228614   5.607   4.735   6.756  0.6967  0.2960  0.4816
 2352TIP3    H128615   5.527   4.735   6.808  1.5357 -0.2621  1.8410
 2352TIP3    H228616   5.625   4.828   6.739  0.3442  0.4864  1.1089
 2353TIP3   OH228617   3.348   5.642   1.473 -0.3499 -0.1322 -0.5089
 2353TIP3    H128618   3.414   5.659   1.406 -2.0654  0.9284 -2.0387
 2353TIP3    H228619   3.384   5.679   1.553  0.9661  0.2550 -1.2546
 2354TIP3   OH228620   3.474   5.885   7.133  0.0050  0.1927  0.2125
 2354TIP3    H128621   3.524   5.951   7.086 -0.2608 -0.1595 -0.5840
 2354TIP3    H228622   3.406   5.858   7.071 -0.7900  0.2147  1.0404
 2355TIP3   OH228623   5.418   4.583   1.357 -0.6157  0.4003 -0.2585
 2355TIP3    H128624   5.341   4.550   1.403 -0.5126  1.4576  0.7265
 2355TIP3    H228625   5.395   4.672   1.332  0.3525  0.8022  0.2278
 2356TIP3   OH228626   0.295   4.729   7.693  0.2395 -0.5179  0.2521
 2356TIP3    H128627   0.271   4.778   7.771 -0.2521  0.1690 -0.3163
 2356TIP3    H228628   0.389   4.712   7.703  0.1963 -0.3659  0.9416
 2357TIP3   OH228629   0.715   4.344   7.879  0.4014  0.0761 -0.0875
 2357TIP3    H128630   0.779   4.399   7.926  1.9975 -1.8337  0.1058
 2357TIP3    H228631   0.691   4.277   7.943 -0.3694 -0.3206 -0.7873
 2358TIP3   OH228632   0.711   3.135   5.954 -0.1604 -0.0708 -0.2556
 2358TIP3    H128633   0.625   3.153   5.992  0.5651  0.0227  1.3768
 2358TIP3    H228634   0.741   3.055   5.997  0.7726  0.1487 -0.4656
 2359TIP3   OH228635   6.726   5.140   7.044 -0.5755 -0.5539 -0.0479
 2359TIP3    H128636   6.798   5.183   6.999 -0.3027 -0.4060  0.5178
 2359TIP3    H228637   6.688   5.081   6.979 -0.5321  0.0535 -0.6236
 2360TIP3   OH228638   5.400   2.648   0.141 -0.0119  0.5886 -0.0582
 2360TIP3    H128639   5.385   2.584   0.211 -0.1059  0.9707  0.2758
 2360TIP3    H228640   5.495   2.653   0.133  0.0088  0.8191  0.3038
 2361TIP3   OH228641   2.633   2.567   7.792  0.2724  0.5704 -0.3637
 2361TIP3    H128642   2.654   2.622   7.716 -0.9736  1.4028 -0.1505
 2361TIP3    H228643   2.646   2.478   7.762 -1.1664  0.8391 -1.9098
 2362TIP3   OH228644   1.801   0.337   6.398 -0.3481 -0.5852 -0.5736
 2362TIP3    H128645   1.819   0.361   6.307  1.4173 -1.8607 -0.6005
 2362TIP3    H228646   1.881   0.295   6.428 -0.6023  0.5016  1.8375
 2363TIP3   OH228647   1.800   4.824   0.903  0.0396  0.0252 -0.0354
 2363TIP3    H128648   1.725   4.766   0.892 -0.1974  0.1765  0.7555
 2363TIP3    H228649   1.765   4.901   0.947  0.3983  0.6792 -0.8701
 2364TIP3   OH228650   1.566   3.509   1.312 -0.4328 -0.0237  0.0085
 2364TIP3    H128651   1.601   3.435   1.261 -1.2648 -0.4638  0.0451
 2364TIP3    H228652   1.521   3.563   1.247  0.8968  0.9349 -0.1608
 2365TIP3   OH228653   1.284   3.246   2.207  0.2148  0.2459  0.8229
 2365TIP3    H128654   1.188   3.249   2.216 -0.2594 -1.7297 -2.1262
 2365TIP3    H228655   1.312   3.190   2.279 -0.9087  0.3798  1.4006
 2366TIP3   OH228656   3.830   3.131   6.482 -0.1300  0.1717  0.4204
 2366TIP3    H128657   3.877   3.204   6.442 -0.1581  0.3269  0.6689
 2366TIP3    H228658   3.740   3.141   6.452  0.4440 -1.6999 -2.3554
 2367TIP3   OH228659   5.607   6.600   1.781 -0.3291  0.0125 -0.0385
 2367TIP3    H128660   5.545   6.531   1.804 -0.0532 -0.6567 -1.2172
 2367TIP3    H228661   5.680   6.587   1.842 -1.5849  1.2231  1.8011
 2368TIP3   OH228662   0.449   4.319   7.027  0.3496  0.1646 -0.4082
 2368TIP3    H128663   0.365   4.272   7.031  0.5059 -0.3346 -2.0158
 2368TIP3    H228664   0.511   4.254   6.995  1.1764  0.7561 -0.0400
 2369TIP3   OH228665   1.432   0.274   0.091 -0.1249  0.1540  0.5289
 2369TIP3    H128666   1.436   0.363   0.057 -0.1232  0.9099  2.3820
 2369TIP3    H228667   1.480   0.222   0.027  0.1209  1.5190 -0.4491
 2370TIP3   OH228668   4.169   0.960   0.865  0.5393  0.5780  0.5716
 2370TIP3    H128669   4.099   0.996   0.919  1.5615 -0.1830  2.5089
 2370TIP3    H228670   4.155   0.999   0.778 -2.8019 -0.3099  0.5988
 2371TIP3   OH228671   0.402   1.203   6.266  0.1108  0.7452 -0.4617
 2371TIP3    H128672   0.451   1.159   6.335 -0.4550  1.0464  0.1427
 2371TIP3    H228673   0.312   1.203   6.296 -0.1934  0.6210 -1.3429
 2372TIP3   OH228674   0.036   3.507   7.465 -0.8260  0.2122 -0.3845
 2372TIP3    H128675  -0.050   3.477   7.491 -0.0265 -0.7165  1.3646
 2372TIP3    H228676   0.083   3.428   7.439 -0.5299  0.7332 -1.5318
 2373TIP3   OH228677   1.297   3.073   7.834 -0.5121 -0.2451 -0.2980
 2373TIP3    H128678   1.318   3.151   7.782 -3.3071 -0.6546 -2.2469
 2373TIP3    H228679   1.339   3.001   7.788 -0.7354 -0.2796 -0.4505
 2374TIP3   OH228680   6.117   3.935   5.269 -0.3638 -0.2281 -0.5525
 2374TIP3    H128681   6.077   4.004   5.321 -0.9597  0.0574 -1.3665
 2374TIP3    H228682   6.061   3.859   5.281 -0.7671 -0.0300 -1.1291
 2375TIP3   OH228683   5.361   6.960   7.547 -0.4877  0.3951 -0.3319
 2375TIP3    H128684   5.270   6.982   7.568 -0.0721  1.2067  0.7034
 2375TIP3    H228685   5.396   7.040   7.508  0.4307  0.9452  1.4838
 2376TIP3   OH228686   0.801   6.263   5.734 -0.1951  0.3516 -0.5486
 2376TIP3    H128687   0.749   6.198   5.782 -1.0388  1.1577 -0.3334
 2376TIP3    H228688   0.737   6.308   5.679  0.6016  0.1070 -1.7071
 2377TIP3   OH228689   4.100   2.857   6.659 -0.8471 -0.0909  0.4922
 2377TIP3    H128690   4.112   2.816   6.745 -0.3913 -0.1089  0.4234
 2377TIP3    H228691   4.094   2.951   6.678  0.1638 -0.0078  0.4714
 2378TIP3   OH228692   3.580   3.361   1.040  0.2656  0.3907  0.3976
 2378TIP3    H128693   3.653   3.408   1.001 -0.2572  0.7479 -0.1708
 2378TIP3    H228694   3.567   3.285   0.983 -1.8694  2.0226 -1.4590
 2379TIP3   OH228695   6.980   3.402   7.588  0.4988  0.2050 -0.3936
 2379TIP3    H128696   7.026   3.329   7.631  1.2284  1.0790  0.3401
 2379TIP3    H228697   6.888   3.384   7.604  0.6720 -0.5039 -0.1259
 2380TIP3   OH228698   7.099   5.218   2.327 -0.2289  0.4436 -0.1620
 2380TIP3    H128699   7.054   5.179   2.252 -1.6474 -2.0039  1.7967
 2380TIP3    H228700   7.031   5.269   2.372 -0.4127 -1.0614  1.3546
 2381TIP3   OH228701   5.778   4.730   5.597  0.0508 -0.2117  0.0247
 2381TIP3    H128702   5.862   4.772   5.579 -1.4891  3.2976  0.2078
 2381TIP3    H228703   5.743   4.778   5.672 -1.7050 -2.3087  0.6714
 2382TIP3   OH228704   5.476   2.944   6.403  0.0956  0.3958  0.2131
 2382TIP3    H128705   5.400   2.887   6.400 -0.3389  0.7314  2.5557
 2382TIP3    H228706   5.482   2.982   6.315 -2.5423  0.4923 -0.0086
 2383TIP3   OH228707   6.138   2.397   6.459  0.1095 -0.0822 -0.2997
 2383TIP3    H128708   6.129   2.343   6.538 -1.6077 -0.3904 -0.6456
 2383TIP3    H228709   6.075   2.468   6.471 -0.8956 -0.6681 -1.7665
 2384TIP3   OH228710   1.770   4.437   6.426  0.2047  0.1692 -0.2456
 2384TIP3    H128711   1.697   4.483   6.383  0.8748  3.1044  1.4294
 2384TIP3    H228712   1.728   4.375   6.485 -0.7640 -1.5176 -2.5940
 2385TIP3   OH228713   6.906   1.791   7.504 -0.3139  0.1872 -0.1009
 2385TIP3    H128714   6.812   1.797   7.520  0.0200  0.1391  2.1336
 2385TIP3    H228715   6.946   1.842   7.574  1.3784 -0.9831 -0.1602
 2386TIP3   OH228716   1.817   1.918   2.117  0.6571  0.6404 -0.0899
 2386TIP3    H128717   1.725   1.944   2.128  0.5039 -0.3534  1.3813
 2386TIP3    H228718   1.867   1.989   2.158  0.5369  1.0761 -0.6915
 2387TIP3   OH228719   5.116   3.420   0.816  0.2357 -0.3027 -0.3845
 2387TIP3    H128720   5.206   3.453   0.816 -0.1132  0.9823 -3.4642
 2387TIP3    H228721   5.062   3.498   0.804 -1.4637 -0.9316  2.2520
 2388TIP3   OH228722   3.134   3.633   0.219  0.3519 -0.2667  0.4996
 2388TIP3    H128723   3.063   3.606   0.161  1.3902 -0.1597 -0.8701
 2388TIP3    H228724   3.187   3.693   0.166  0.9585  0.3912  1.7900
 2389TIP3   OH228725   0.921   4.591   0.631 -0.3480 -0.1764 -0.7335
 2389TIP3    H128726   0.968   4.661   0.585  2.6964 -1.9038 -0.4968
 2389TIP3    H228727   0.903   4.526   0.563 -1.9395  0.1575 -0.6810
 2390TIP3   OH228728   3.234   4.439   1.406 -0.1887  0.1312 -0.1732
 2390TIP3    H128729   3.240   4.368   1.470 -1.9671 -0.0388 -0.1265
 2390TIP3    H228730   3.200   4.397   1.327  1.6098  0.4137 -1.1436
 2391TIP3   OH228731   4.566   0.246   5.847 -0.8716  0.3487  0.2626
 2391TIP3    H128732   4.657   0.271   5.867 -1.3535  3.8433 -1.0691
 2391TIP3    H228733   4.567   0.230   5.752 -1.6540  0.6996  0.1885
 2392TIP3   OH228734   6.906   3.575   1.040 -0.0765  0.1183  0.3050
 2392TIP3    H128735   6.968   3.572   0.967 -0.0388  1.3652  0.2677
 2392TIP3    H228736   6.823   3.599   1.000 -1.3646 -4.1846 -0.0934
 2393TIP3   OH228737   2.790   0.272   7.916  0.1228 -0.0065 -0.2819
 2393TIP3    H128738   2.883   0.254   7.931  0.3625 -1.4179 -2.8678
 2393TIP3    H228739   2.761   0.201   7.859 -2.5853  0.3784  0.4770
 2394TIP3   OH228740   5.392   1.852   6.622 -0.6506 -0.1576 -0.2063
 2394TIP3    H128741   5.408   1.936   6.579 -1.6343 -0.2330 -0.7313
 2394TIP3    H228742   5.348   1.875   6.704 -1.5255 -0.1863 -0.6568
 2395TIP3   OH228743   6.876   2.100   6.471 -0.3182 -0.0354 -0.4655
 2395TIP3    H128744   6.816   2.160   6.427 -0.5794 -0.6736 -0.9850
 2395TIP3    H228745   6.820   2.033   6.508 -0.0716  0.3410  0.6104
 2396TIP3   OH228746   1.816   3.971   7.310  0.0514 -0.3593  0.3849
 2396TIP3    H128747   1.794   3.882   7.337  1.7533 -0.9225  0.0227
 2396TIP3    H228748   1.838   3.963   7.217 -0.6647  0.6280  0.1119
 2397TIP3   OH228749   0.855   5.971   6.814 -0.1483  0.6196 -0.7280
 2397TIP3    H128750   0.924   5.934   6.869 -0.5871 -1.3587 -1.4601
 2397TIP3    H228751   0.892   5.972   6.726 -0.8101  0.1748 -1.0183
 2398TIP3   OH228752   1.327   5.641   8.000  0.4712  0.4407 -0.8355
 2398TIP3    H128753   1.306   5.695   8.076  1.2813 -2.2824  1.4987
 2398TIP3    H228754   1.412   5.673   7.970  0.6252  0.9276  0.0828
 2399TIP3   OH228755   2.114   2.246   0.885  0.0144 -0.3489 -0.0454
 2399TIP3    H128756   2.145   2.174   0.940 -0.6707  0.1353  1.0037
 2399TIP3    H228757   2.061   2.204   0.818 -0.9616 -0.7887  0.9673
 2400TIP3   OH228758   1.013   0.403   0.980 -0.4760 -0.2314  0.3860
 2400TIP3    H128759   1.046   0.485   0.943  0.3700 -0.0455  1.5061
 2400TIP3    H228760   0.998   0.422   1.073  1.1493 -1.7204  1.0049
 2401TIP3   OH228761   3.848   7.108   0.670 -0.2672  0.0279 -0.0517
 2401TIP3    H128762   3.905   7.176   0.708  1.6056 -1.6619  0.3316
 2401TIP3    H228763   3.828   7.050   0.744  0.3894 -1.2938 -0.8832
 2402TIP3   OH228764   3.506   6.198   7.625  0.5820 -0.0347  0.1804
 2402TIP3    H128765   3.490   6.152   7.542  1.9791 -3.1333  1.4990
 2402TIP3    H228766   3.426   6.184   7.675 -0.2737  1.8634 -0.5562
 2403TIP3   OH228767   2.889   0.331   1.256  0.2582 -0.4478  0.2917
 2403TIP3    H128768   2.815   0.297   1.206  0.6210 -0.2249 -0.4214
 2403TIP3    H228769   2.925   0.255   1.301 -0.7357 -0.4664  1.1048
 2404TIP3   OH228770   6.264   1.955   7.245 -0.3436 -0.5994  0.2822
 2404TIP3    H128771   6.181   2.003   7.240 -0.2691 -0.3922  0.9113
 2404TIP3    H228772   6.329   2.015   7.209 -0.2219 -0.1489  1.2339
 2405TIP3   OH228773   0.116   3.135   5.427  0.9874  0.5567 -0.9209
 2405TIP3    H128774   0.173   3.060   5.444  1.8993  1.1019 -1.4954
 2405TIP3    H228775   0.047   3.102   5.370  0.5151 -0.1929  0.0581
 2406TIP3   OH228776   4.691   0.754   0.806 -0.2135  0.5387 -0.3920
 2406TIP3    H128777   4.667   0.841   0.837  0.4679  0.2289  1.0855
 2406TIP3    H228778   4.634   0.695   0.855  2.4030 -0.1143  2.1633
 2407TIP3   OH228779   3.743   0.635   1.570  0.0131 -0.3099  0.8521
 2407TIP3    H128780   3.658   0.594   1.550  0.1546 -0.2310  0.0698
 2407TIP3    H228781   3.807   0.565   1.557  0.2409  0.0914 -0.3442
 2408TIP3   OH228782   3.792   5.651   1.143  0.7620  0.0931  0.6452
 2408TIP3    H128783   3.841   5.732   1.158  0.8841  0.0089  0.7043
 2408TIP3    H228784   3.814   5.627   1.053 -1.5965  1.7176 -0.4573
 2409TIP3   OH228785   6.790   4.510   0.662  0.5219 -0.0042 -0.0867
 2409TIP3    H128786   6.831   4.573   0.602  0.0430  0.1014 -0.3029
 2409TIP3    H228787   6.774   4.560   0.742  1.3598 -0.2005  0.2149
 2410TIP3   OH228788   2.821   5.103   5.916  0.3466 -0.5663  0.5981
 2410TIP3    H128789   2.831   5.165   5.844 -0.8869 -0.3523  0.5852
 2410TIP3    H228790   2.768   5.151   5.980 -0.3227 -1.4804  0.7397
 2411TIP3   OH228791   4.875   0.423   0.467 -0.1656 -0.1731 -0.3871
 2411TIP3    H128792   4.878   0.515   0.495  0.3831 -0.7679  1.6485
 2411TIP3    H228793   4.962   0.389   0.487 -0.2585 -1.0831 -1.4231
 2412TIP3   OH228794   7.067   6.493   0.281  0.2322  0.2607  0.2327
 2412TIP3    H128795   7.160   6.512   0.298  0.3023  0.2490 -0.1198
 2412TIP3    H228796   7.027   6.491   0.368  0.8385 -1.1822  0.5096
 2413TIP3   OH228797   0.817   5.039   6.928 -0.7499 -0.0819 -0.1965
 2413TIP3    H128798   0.813   5.084   6.843 -2.3674 -0.8883 -0.5804
 2413TIP3    H228799   0.841   4.949   6.906  3.5467  0.6332  0.6467
 2414TIP3   OH228800   2.829   0.862   5.682 -0.2234 -0.2188  0.1997
 2414TIP3    H128801   2.912   0.820   5.662  0.7697  1.2567  1.0186
 2414TIP3    H228802   2.819   0.851   5.777  0.7144  2.3557  0.6935
 2415TIP3   OH228803   1.224   3.271   6.355  0.5105  0.2113 -0.2774
 2415TIP3    H128804   1.272   3.352   6.339 -0.3587  0.5317 -1.4061
 2415TIP3    H228805   1.208   3.271   6.450 -0.3060  1.8656 -0.3765
 2416TIP3   OH228806   0.254   6.400   0.904 -0.1148  0.0928 -0.1466
 2416TIP3    H128807   0.172   6.368   0.865  0.4023  1.2672 -2.3198
 2416TIP3    H228808   0.277   6.332   0.967 -0.6389 -2.3694 -2.3968
 2417TIP3   OH228809   1.612   1.823   6.154 -0.1544  0.0350 -0.2964
 2417TIP3    H128810   1.706   1.821   6.172 -0.1831 -0.7822 -0.1904
 2417TIP3    H228811   1.607   1.825   6.058 -0.0275  2.3210 -0.3177
 2418TIP3   OH228812   3.821   0.767   1.302 -0.2860 -0.0049 -0.1075
 2418TIP3    H128813   3.756   0.727   1.244 -0.5254 -1.2097  0.9542
 2418TIP3    H228814   3.806   0.726   1.387  2.3257 -0.8732  0.0328
 2419TIP3   OH228815   5.200   2.426   0.631 -0.0889  0.2469 -0.0962
 2419TIP3    H128816   5.118   2.397   0.671 -0.7067  0.7997 -0.9071
 2419TIP3    H228817   5.181   2.514   0.598  1.6485  1.5484  2.0723
 2420TIP3   OH228818   0.907   2.008   7.536  0.1698  0.4270  0.2307
 2420TIP3    H128819   0.908   2.026   7.630 -0.4124  1.5322  0.0419
 2420TIP3    H228820   0.817   2.026   7.509  0.1472 -0.5572 -0.4250
 2421TIP3   OH228821   4.081   6.917   0.408  0.5891  0.4789 -0.2092
 2421TIP3    H128822   4.120   6.970   0.478  1.7012 -0.9083  0.2821
 2421TIP3    H228823   4.048   6.980   0.345  1.8265  1.7562  0.3717
 2422TIP3   OH228824   4.804   2.218   0.181 -0.6785  1.2528  0.2127
 2422TIP3    H128825   4.875   2.225   0.246  1.9355 -0.3159 -2.2314
 2422TIP3    H228826   4.838   2.266   0.105  0.0927 -3.3958 -2.7385
 2423TIP3   OH228827   3.127   2.143   1.221 -0.2730 -0.1501 -0.5857
 2423TIP3    H128828   3.166   2.114   1.304  1.1407  0.8593 -0.8544
 2423TIP3    H228829   3.036   2.160   1.241 -0.6210 -2.4633  0.1307
 2424TIP3   OH228830   3.626   2.451   1.084  0.2718  0.0951 -0.2358
 2424TIP3    H128831   3.659   2.373   1.127  0.7692  0.2566 -0.3154
 2424TIP3    H228832   3.541   2.425   1.048  0.7599 -0.6365 -0.9096
 2425TIP3   OH228833   6.188   2.622   6.275 -0.2113  0.1608  0.1515
 2425TIP3    H128834   6.224   2.579   6.197 -1.0672 -1.1411  0.4429
 2425TIP3    H228835   6.097   2.592   6.279  0.1929 -1.0337  2.4630
 2426TIP3   OH228836   3.432   6.915   6.443 -0.1755  0.5726  0.1920
 2426TIP3    H128837   3.456   6.979   6.510  1.0014 -1.0607  1.4075
 2426TIP3    H228838   3.425   6.832   6.490 -1.0544 -0.3319 -1.4329
 2427TIP3   OH228839   3.824   5.468   0.522  0.2713 -0.1972 -0.0967
 2427TIP3    H128840   3.730   5.452   0.511  0.5844 -1.2784 -1.4522
 2427TIP3    H228841   3.856   5.392   0.569  0.6547 -0.4017 -0.6739
 2428TIP3   OH228842   5.026   4.517   6.097 -0.0241 -0.2598 -0.4753
 2428TIP3    H128843   5.106   4.556   6.060 -0.1505 -0.6900 -1.2030
 2428TIP3    H228844   4.972   4.497   6.022 -1.4335  1.2948  0.0677
 2429TIP3   OH228845   1.146   0.350   6.213  0.8377 -0.0425  0.4809
 2429TIP3    H128846   1.075   0.313   6.265 -1.1994  2.6488 -0.1841
 2429TIP3    H228847   1.159   0.288   6.141 -0.3376 -0.9397  1.0164
 2430TIP3   OH228848   4.046   4.817   7.593 -0.1993 -0.8524  0.3824
 2430TIP3    H128849   4.083   4.733   7.569  0.1448 -0.6406  0.1744
 2430TIP3    H228850   4.052   4.820   7.689 -1.5078 -1.6641  0.5178
 2431TIP3   OH228851   6.234   0.468   1.807  0.3726  0.2986  0.3312
 2431TIP3    H128852   6.145   0.434   1.800  0.3267  0.2627  0.9860
 2431TIP3    H228853   6.238   0.508   1.894  0.4578  1.9031 -0.3765
 2432TIP3   OH228854   2.916   3.693   7.434 -0.7338  0.2875  0.3022
 2432TIP3    H128855   2.829   3.706   7.397 -0.7161 -1.3337 -0.3767
 2432TIP3    H228856   2.976   3.703   7.361 -0.4484  0.2271  0.5245
 2433TIP3   OH228857   1.614   1.296   6.312 -0.3286  0.1455 -0.5705
 2433TIP3    H128858   1.554   1.246   6.367  0.1422 -0.3508 -0.4938
 2433TIP3    H228859   1.621   1.381   6.355  1.2115 -0.7275  1.0348
 2434TIP3   OH228860   5.188   5.538   7.419  0.2072  0.0333 -0.0113
 2434TIP3    H128861   5.275   5.565   7.387  1.0516 -1.8100  0.5928
 2434TIP3    H228862   5.169   5.458   7.370 -0.9871  0.2098  0.1583
 2435TIP3   OH228863   0.079   0.213   7.119  0.5685 -0.3564  0.0765
 2435TIP3    H128864   0.031   0.177   7.044 -0.0232  0.8905 -0.1693
 2435TIP3    H228865   0.121   0.137   7.159 -1.8716 -1.5525  0.5084
 2436TIP3   OH228866   4.847   4.373   7.726  0.7471 -0.8677 -0.6440
 2436TIP3    H128867   4.839   4.420   7.643  2.0446 -1.4461 -1.1355
 2436TIP3    H228868   4.909   4.302   7.707  1.7954 -0.4736  1.0548
 2437TIP3   OH228869   1.846   3.273   7.371 -0.3623  0.0721 -0.2544
 2437TIP3    H128870   1.822   3.200   7.428  0.7589 -1.1244 -1.2211
 2437TIP3    H228871   1.764   3.317   7.352 -1.1447 -1.1965  0.0519
 2438TIP3   OH228872   4.163   0.341   0.404 -0.3042 -0.4870  0.6198
 2438TIP3    H128873   4.201   0.327   0.491  2.0296  1.0539 -0.0624
 2438TIP3    H228874   4.219   0.292   0.345  0.7229  1.8081 -0.4230
 2439TIP3   OH228875   7.163   6.647   1.133 -0.2276 -0.2960  0.2496
 2439TIP3    H128876   7.238   6.699   1.105  0.2066  0.0913  2.0115
 2439TIP3    H228877   7.109   6.637   1.054 -0.0549  2.3595 -0.2926
 2440TIP3   OH228878   2.145   0.409   0.047 -0.1529 -0.0766 -0.4818
 2440TIP3    H128879   2.169   0.380   0.135 -0.9334  1.7424  0.3793
 2440TIP3    H228880   2.205   0.482   0.029 -1.4035  0.9902 -0.5080
 2441TIP3   OH228881   6.917   5.560   6.117 -0.5872 -0.4521  0.0745
 2441TIP3    H128882   6.980   5.632   6.125 -0.9739 -0.2268  1.3798
 2441TIP3    H228883   6.956   5.488   6.168 -0.5266 -0.9465 -0.6513
 2442TIP3   OH228884   0.503   2.778   0.993  0.3903 -0.1764  0.1040
 2442TIP3    H128885   0.435   2.712   1.003  0.7590 -0.5996 -0.1367
 2442TIP3    H228886   0.467   2.857   1.034 -1.2053  0.2886 -2.0006
 2443TIP3   OH228887   1.754   6.759   1.966  0.1973  0.2289 -0.5569
 2443TIP3    H128888   1.681   6.704   1.993 -0.0434  1.3251  1.1816
 2443TIP3    H228889   1.722   6.849   1.976  0.8802  0.7367 -2.4562
 2444TIP3   OH228890   2.193   3.419   5.840  0.9357 -0.1888  0.2451
 2444TIP3    H128891   2.141   3.379   5.771  1.2480 -0.9506  0.4410
 2444TIP3    H228892   2.169   3.512   5.838 -2.8898 -0.9435  2.4619
 2445TIP3   OH228893   0.033   0.884   0.918  0.0885 -0.2046  0.1498
 2445TIP3    H128894   0.071   0.816   0.862  1.4802  1.4957 -1.0845
 2445TIP3    H228895   0.082   0.878   1.000  1.8313  0.7207 -0.7639
 2446TIP3   OH228896   3.505   2.891   1.261  0.3501 -0.1348 -0.1918
 2446TIP3    H128897   3.505   2.814   1.204 -0.9134 -0.7544  0.5895
 2446TIP3    H228898   3.447   2.953   1.218  0.5429 -0.0314 -0.3023
 2447TIP3   OH228899   0.819   6.441   0.469 -0.5105  0.2733 -0.4512
 2447TIP3    H128900   0.779   6.513   0.421  1.4352  2.0403  0.4147
 2447TIP3    H228901   0.905   6.430   0.428  0.0894 -0.0466  0.8521
 2448TIP3   OH228902   4.647   1.241   0.793 -0.5058  0.1554  0.3601
 2448TIP3    H128903   4.679   1.220   0.705  0.5414 -0.8240  0.9452
 2448TIP3    H228904   4.697   1.184   0.851  1.1755  2.9615  1.9293
 2449TIP3   OH228905   3.465   6.432   8.003  0.2597 -0.9458  0.1788
 2449TIP3    H128906   3.521   6.357   7.985  0.3128 -0.5656 -1.4041
 2449TIP3    H228907   3.416   6.408   8.082  1.0520 -2.1784  0.3095
 2450TIP3   OH228908   6.269   5.948   0.418  0.2740  0.4029 -0.3325
 2450TIP3    H128909   6.233   5.911   0.337  0.1124 -0.7027  0.2285
 2450TIP3    H228910   6.229   6.034   0.425 -2.1424 -0.6803  0.1469
 2451TIP3   OH228911   4.235   4.559   7.893 -0.6946  0.0652  0.8362
 2451TIP3    H128912   4.275   4.609   7.823  0.1364 -0.9116  0.5814
 2451TIP3    H228913   4.161   4.515   7.852 -0.7523  0.2120  0.7851
 2452TIP3   OH228914   0.027   1.428   1.166 -0.3934  0.3534  0.5898
 2452TIP3    H128915   0.114   1.425   1.126 -0.6999  1.6553 -0.2277
 2452TIP3    H228916   0.038   1.480   1.245 -0.8915  2.8489 -0.8872
 2453TIP3   OH228917   3.862   4.987   6.833  0.6053 -0.0923 -0.0123
 2453TIP3    H128918   3.941   4.933   6.842  0.3467 -0.1843  2.1608
 2453TIP3    H228919   3.881   5.066   6.883 -0.3689  0.2773 -0.2046
 2454TIP3   OH228920   1.012   3.822   6.574 -0.1482 -0.3058 -0.3617
 2454TIP3    H128921   0.929   3.790   6.539 -0.8525 -0.4628  1.3584
 2454TIP3    H228922   1.048   3.877   6.504 -1.0968 -1.2030 -1.5985
 2455TIP3   OH228923   5.516   3.842   6.024  0.9192  0.0301  0.3808
 2455TIP3    H128924   5.456   3.772   6.050 -1.7613  2.4502  1.1284
 2455TIP3    H228925   5.598   3.796   6.003  0.1145 -3.0850  3.1519
 2456TIP3   OH228926   6.799   6.539   1.354 -0.1495  0.3326  0.1970
 2456TIP3    H128927   6.882   6.529   1.401 -1.6640 -1.0194  2.8489
 2456TIP3    H228928   6.796   6.631   1.330  1.5477  0.6956  1.1788
 2457TIP3   OH228929   5.128   6.126   0.808  0.1117 -0.4745  0.2164
 2457TIP3    H128930   5.080   6.208   0.821 -0.8288 -1.0914  0.7622
 2457TIP3    H228931   5.219   6.154   0.794 -0.6585  0.8493 -3.0207
 2458TIP3   OH228932   0.449   6.570   5.964  0.0402 -0.4603 -0.0192
 2458TIP3    H128933   0.466   6.492   6.017  0.4331 -0.1037  0.3884
 2458TIP3    H228934   0.534   6.589   5.923  0.5271  0.9729  1.5353
 2459TIP3   OH228935   5.813   5.768   1.167 -0.0149  0.4315  0.0985
 2459TIP3    H128936   5.733   5.819   1.181  1.5881  2.8149  1.1133
 2459TIP3    H228937   5.832   5.779   1.074  1.0610  3.0003  0.5560
 2460TIP3   OH228938   6.563   2.464   0.617 -0.2021  0.7271 -0.6569
 2460TIP3    H128939   6.613   2.447   0.697 -0.8160 -2.0997 -0.7621
 2460TIP3    H228940   6.604   2.541   0.578  1.6465  0.7259  1.1416
 2461TIP3   OH228941   0.212   2.066   0.931 -0.4145  0.0312  0.1801
 2461TIP3    H128942   0.264   2.127   0.877 -1.5639  1.3687  0.5271
 2461TIP3    H228943   0.227   1.980   0.891  1.1856  0.5272 -0.3828
 2462TIP3   OH228944   3.889   0.011   6.558  0.2964 -0.3613 -0.4373
 2462TIP3    H128945   3.888   0.101   6.592 -0.0654  0.3088 -2.0863
 2462TIP3    H228946   3.927  -0.041   6.628  0.4111  1.0661  0.6119
 2463TIP3   OH228947   6.303   4.686   7.437  0.4763 -0.0066 -0.1471
 2463TIP3    H128948   6.290   4.770   7.393  0.4317 -0.0920 -0.2983
 2463TIP3    H228949   6.394   4.664   7.419  0.5258  0.0724  0.0039
 2464TIP3   OH228950   6.172   5.671   5.289  0.0094 -0.1112 -0.8642
 2464TIP3    H128951   6.082   5.647   5.265 -0.1062 -0.0826 -0.4731
 2464TIP3    H228952   6.162   5.742   5.352  0.2809 -0.5363 -0.3278
 2465TIP3   OH228953   2.389   6.868   7.265  0.0501  0.3707  0.5441
 2465TIP3    H128954   2.366   6.801   7.330 -1.1267  1.1553  0.9873
 2465TIP3    H228955   2.322   6.858   7.197  1.4655 -0.6564 -0.7518
 2466TIP3   OH228956   2.007   0.558   6.718 -0.0282 -0.4180 -0.5566
 2466TIP3    H128957   2.005   0.609   6.798 -0.2050 -2.8209  1.0613
 2466TIP3    H228958   2.094   0.519   6.715 -0.1321 -0.6241 -1.3658
 2467TIP3   OH228959   6.268   5.946   6.912 -0.5643 -0.6445  0.0454
 2467TIP3    H128960   6.280   5.876   6.976 -3.2276 -0.0433  1.3676
 2467TIP3    H228961   6.181   5.982   6.932 -0.7530  0.7837 -2.7820
 2468TIP3   OH228962   5.030   3.378   5.547 -0.5016  0.1142  0.1494
 2468TIP3    H128963   5.119   3.356   5.575 -0.6923 -0.5594  0.2503
 2468TIP3    H228964   4.995   3.432   5.617 -1.0783 -1.7976  1.4181
 2469TIP3   OH228965   4.010   0.314   5.450  0.4962  0.0974  0.4732
 2469TIP3    H128966   4.056   0.232   5.470  2.4423  1.1491  0.5033
 2469TIP3    H228967   4.077   0.382   5.456 -1.0413  1.7090  0.3301
 2470TIP3   OH228968   0.205   4.710   1.759 -0.2597  0.3400 -0.1266
 2470TIP3    H128969   0.128   4.759   1.730  0.4404  0.9984 -0.9088
 2470TIP3    H228970   0.237   4.665   1.681 -0.4207 -0.7495  0.4113
 2471TIP3   OH228971   6.119   1.169   6.056  0.0756  0.5197  0.5012
 2471TIP3    H128972   6.209   1.197   6.043  0.7581 -1.8962 -0.4724
 2471TIP3    H228973   6.121   1.112   6.133 -0.7657  0.9653  0.8732
 2472TIP3   OH228974   0.580   2.795   7.384 -0.0921 -0.1585  0.2797
 2472TIP3    H128975   0.572   2.763   7.474 -1.9839 -0.9221 -0.1222
 2472TIP3    H228976   0.609   2.719   7.334 -1.3589 -0.4012 -0.1227
 2473TIP3   OH228977   3.534   7.105   0.696 -0.0759 -0.1007 -0.0229
 2473TIP3    H128978   3.582   7.075   0.773  0.6627 -1.5392 -1.0045
 2473TIP3    H228979   3.484   7.180   0.727  3.5486  2.1617  0.8269
 2474TIP3   OH228980   2.971   4.839   6.944 -0.1619 -0.2228  0.2031
 2474TIP3    H128981   2.899   4.828   7.005 -1.3235 -1.4896 -1.3255
 2474TIP3    H228982   2.943   4.910   6.886  0.0356 -0.3915 -0.1018
 2475TIP3   OH228983   4.728   4.453   0.598  0.2908 -0.1220 -1.0757
 2475TIP3    H128984   4.659   4.440   0.533 -1.1357  0.9642  0.1525
 2475TIP3    H228985   4.702   4.398   0.672  0.8114  0.2004 -0.6458
 2476TIP3   OH228986   4.154   3.925   7.866 -0.5631  0.4786  0.3614
 2476TIP3    H128987   4.148   3.884   7.953  0.1711  0.1459  0.2604
 2476TIP3    H228988   4.209   3.866   7.815  0.0153  1.2808  0.0330
 2477TIP3   OH228989   0.664   6.848   5.836  0.5470 -0.0132 -0.2909
 2477TIP3    H128990   0.650   6.938   5.864 -0.8808  0.1026 -1.2404
 2477TIP3    H228991   0.607   6.838   5.760  1.7166 -1.3083 -1.0517
 2478TIP3   OH228992   6.458   3.925   6.449  0.3646 -0.0240  0.1642
 2478TIP3    H128993   6.391   3.883   6.395 -1.0519  2.4494 -0.1471
 2478TIP3    H228994   6.470   3.866   6.523 -2.8207 -0.1864  0.6650
 2479TIP3   OH228995   6.931   1.973   1.066 -0.5157  0.2008 -0.3827
 2479TIP3    H128996   6.974   1.924   0.996  1.7608  1.2521  0.1886
 2479TIP3    H228997   6.849   1.925   1.081  0.8378 -2.5109 -0.8888
 2480TIP3   OH228998   6.917   3.932   7.068  0.0803  0.0879  0.5346
 2480TIP3    H128999   6.849   3.958   7.006  1.5377  1.1079 -0.7247
 2480TIP3    H229000   6.916   4.001   7.135  1.4954  1.5604 -0.8501
 2481TIP3   OH229001   2.466   6.628   1.535  0.3101  0.7566  0.3289
 2481TIP3    H129002   2.537   6.692   1.544  1.0234 -0.0200  0.3548
 2481TIP3    H229003   2.402   6.671   1.478  1.6969  0.7570 -1.3167
 2482TIP3   OH229004   5.623   4.704   0.215  0.2931 -0.0649  0.0499
 2482TIP3    H129005   5.633   4.640   0.144 -1.2571  0.1161 -0.3734
 2482TIP3    H229006   5.616   4.652   0.294  2.8883 -0.2440  0.2374
 2483TIP3   OH229007   2.092   5.028   0.720  0.1979 -0.2234  0.3685
 2483TIP3    H129008   2.098   4.940   0.682 -0.7009 -0.7368  1.3358
 2483TIP3    H229009   2.130   5.019   0.808  0.2794  0.4062  0.4028
 2484TIP3   OH229010   5.502   0.716   6.767  0.2801  0.4303 -0.2814
 2484TIP3    H129011   5.469   0.705   6.678 -0.9157  0.4207  0.1327
 2484TIP3    H229012   5.433   0.679   6.822  0.9446  0.5437  0.6540
 2485TIP3   OH229013   0.477   7.164   0.039 -0.2440  0.4839 -0.1081
 2485TIP3    H129014   0.428   7.090   0.075  0.9097  0.1431  0.7835
 2485TIP3    H229015   0.418   7.239   0.050 -0.6922  0.0265  0.6776
 2486TIP3   OH229016   3.842   1.359   7.230 -0.4023  0.2484 -0.0107
 2486TIP3    H129017   3.828   1.431   7.291 -0.2712 -0.6005  1.0474
 2486TIP3    H229018   3.761   1.309   7.233  0.2418 -0.7944  0.8569
 2487TIP3   OH229019   5.952   0.007   6.711 -0.4769 -0.4186 -0.3987
 2487TIP3    H129020   5.875   0.056   6.740  0.0559  0.3611 -0.2660
 2487TIP3    H229021   5.916  -0.064   6.657 -1.4498 -1.5089  1.5673
 2488TIP3   OH229022   3.378   6.605   0.823 -0.2032 -0.7742 -0.0066
 2488TIP3    H129023   3.335   6.663   0.885 -1.1301 -1.5754  0.1268
 2488TIP3    H229024   3.346   6.634   0.737 -0.1440 -0.6574  0.0112
 2489TIP3   OH229025   5.409   3.516   7.290 -0.0523  0.4555 -0.0557
 2489TIP3    H129026   5.473   3.504   7.220 -1.4746  1.2806 -1.5697
 2489TIP3    H229027   5.329   3.473   7.257 -0.4518 -0.0797  1.5425
 2490TIP3   OH229028   1.592   2.197   1.425  0.1470 -0.5129 -0.4398
 2490TIP3    H129029   1.647   2.122   1.398 -0.1347 -0.5816 -0.8273
 2490TIP3    H229030   1.614   2.210   1.517  0.3179 -0.9731 -0.4110
 2491TIP3   OH229031   2.722   6.953   7.854 -0.1373  0.0869  0.1387
 2491TIP3    H129032   2.816   6.967   7.844 -0.1820  1.1548  0.9670
 2491TIP3    H229033   2.713   6.860   7.876  0.7856  0.1205  0.7093
 2492TIP3   OH229034   3.066   6.086   0.549 -0.6623 -0.1918  0.6212
 2492TIP3    H129035   3.028   6.170   0.576  2.0947  1.5165 -0.4692
 2492TIP3    H229036   3.028   6.022   0.610 -1.1661  2.1675  2.9362
 2493TIP3   OH229037   0.796   4.499   0.182  0.1531 -0.2131  0.8063
 2493TIP3    H129038   0.834   4.519   0.096 -0.3737  0.8262  0.7986
 2493TIP3    H229039   0.707   4.533   0.177 -0.1699 -0.9251  1.4752
 2494TIP3   OH229040   5.383   1.430   6.285 -0.3676 -0.0546  0.1588
 2494TIP3    H129041   5.417   1.478   6.360 -0.8747  0.8516 -0.1841
 2494TIP3    H229042   5.289   1.426   6.300 -0.3415 -0.8827  0.1440
 2495TIP3   OH229043   6.032   5.481   2.050  0.5601 -0.2114 -0.0546
 2495TIP3    H129044   5.960   5.536   2.018  1.3643  0.1745 -1.2453
 2495TIP3    H229045   6.053   5.519   2.136  0.0106  0.3039 -0.1366
 2496TIP3   OH229046   5.888   6.585   6.626 -0.3967 -0.2748 -0.5050
 2496TIP3    H129047   5.899   6.643   6.701  0.7021  0.0728 -0.9170
 2496TIP3    H229048   5.829   6.633   6.567 -0.0938  0.0988 -0.5083
 2497TIP3   OH229049   1.508   1.340   0.849 -0.4081  0.3622  0.5771
 2497TIP3    H129050   1.452   1.323   0.924 -1.4469  0.0737 -0.2451
 2497TIP3    H229051   1.487   1.271   0.787 -1.0619  1.7371 -0.8035
 2498TIP3   OH229052   2.817   4.805   6.640 -0.0474  0.1850  0.2317
 2498TIP3    H129053   2.901   4.845   6.663  0.4680 -0.1339 -1.0528
 2498TIP3    H229054   2.829   4.712   6.657 -1.0862  0.4308  2.7366
 2499TIP3   OH229055   5.684   1.714   6.031  0.1380 -0.3780 -0.1357
 2499TIP3    H129056   5.686   1.655   6.107 -2.5811 -0.7020 -0.2207
 2499TIP3    H229057   5.734   1.668   5.964  0.1767 -1.4284  0.5874
 2500TIP3   OH229058   1.956   0.577   6.416 -0.0243  0.2099  0.2866
 2500TIP3    H129059   1.899   0.506   6.445 -0.5192  0.7725  0.7370
 2500TIP3    H229060   2.023   0.584   6.485  1.6160 -1.5380 -1.0408
 2501TIP3   OH229061   3.574   5.093   0.633 -0.3358  0.5360  0.2712
 2501TIP3    H129062   3.555   5.063   0.544  0.5229  2.1723 -0.5050
 2501TIP3    H229063   3.509   5.050   0.687  0.5481 -2.3991 -0.7835
 2502TIP3   OH229064   4.682   0.449   0.688 -0.0899 -0.4953  0.0662
 2502TIP3    H129065   4.649   0.536   0.710 -0.5232 -0.0741 -2.0165
 2502TIP3    H229066   4.757   0.465   0.630  1.1185 -1.5112  1.2749
 2503TIP3   OH229067   0.324   1.762   0.521 -0.0816 -0.3596 -0.6444
 2503TIP3    H129068   0.317   1.720   0.436 -0.0120  1.7340 -1.7314
 2503TIP3    H229069   0.234   1.788   0.542  0.1242  0.4868 -0.8051
 2504TIP3   OH229070   1.454   2.339   7.027  0.1906 -0.0434 -0.0022
 2504TIP3    H129071   1.438   2.361   7.119 -1.1887 -0.9105  0.0031
 2504TIP3    H229072   1.478   2.422   6.986 -0.1368  0.5365  0.9470
 2505TIP3   OH229073   6.565   2.016   0.238 -0.1796  0.1672  0.2838
 2505TIP3    H129074   6.506   2.013   0.163  1.4660  1.1433 -1.1128
 2505TIP3    H229075   6.628   1.946   0.223  0.5958  0.8295  0.3360
 2506TIP3   OH229076   0.649   1.326   1.025 -0.0621  0.3906 -0.2867
 2506TIP3    H129077   0.616   1.403   1.070  0.2916  0.6620 -0.4824
 2506TIP3    H229078   0.690   1.360   0.946  0.1824  0.0090 -0.3292
 2507TIP3   OH229079   6.873   3.239   2.032 -0.6967 -0.0853  0.3685
 2507TIP3    H129080   6.793   3.276   2.071 -0.7723 -0.8167  0.9127
 2507TIP3    H229081   6.923   3.206   2.107 -0.2197 -0.2968 -0.0415
 2508TIP3   OH229082   2.461   2.260   7.523  0.0267  0.1574  0.2183
 2508TIP3    H129083   2.459   2.181   7.576 -0.1532 -0.6808 -1.0013
 2508TIP3    H229084   2.394   2.317   7.562  0.5040 -0.0687  1.4020
 2509TIP3   OH229085   0.572   1.705   7.790 -0.3602  0.0706  0.1195
 2509TIP3    H129086   0.577   1.799   7.809 -1.5886  0.2803 -0.5055
 2509TIP3    H229087   0.520   1.669   7.861 -2.2049  0.3366 -1.0233
 2510TIP3   OH229088   2.724   7.084   1.404 -0.3306 -0.1056  0.7068
 2510TIP3    H129089   2.764   7.071   1.318 -0.5904  0.3095  0.5204
 2510TIP3    H229090   2.798   7.107   1.461 -0.3853  1.4230  0.2017
 2511TIP3   OH229091   3.254   2.924   0.865 -0.6411 -0.4883 -0.0809
 2511TIP3    H129092   3.187   2.888   0.923 -0.1703 -1.7274 -0.2725
 2511TIP3    H229093   3.224   3.013   0.845 -1.7759 -0.7196  0.5284
 2512TIP3   OH229094   1.985   3.853   7.038 -0.1191  0.3981  0.0809
 2512TIP3    H129095   1.964   3.913   6.966 -1.3220 -2.7526 -2.4596
 2512TIP3    H229096   2.060   3.804   7.006 -0.2083 -0.5722  1.3156
 2513TIP3   OH229097   2.860   0.877   6.684  0.0158 -0.5911  0.2282
 2513TIP3    H129098   2.778   0.833   6.661 -1.3508  2.1403 -0.4570
 2513TIP3    H229099   2.833   0.957   6.729  2.1295  1.5300 -1.9561
 2514TIP3   OH229100   3.893   6.322   0.157 -0.4115  0.1315  0.4213
 2514TIP3    H129101   3.918   6.255   0.093  1.0512  0.4876  0.5770
 2514TIP3    H229102   3.804   6.298   0.184 -0.8206 -0.3765 -1.2707
 2515TIP3   OH229103   3.012   1.218   7.640  0.7203  0.4876  0.1556
 2515TIP3    H129104   3.022   1.179   7.553  1.4802  0.5224  0.2243
 2515TIP3    H229105   2.951   1.291   7.627  0.3871  0.1458 -0.2372
 2516TIP3   OH229106   3.017   6.171   6.500 -0.2506 -0.2484 -0.0496
 2516TIP3    H129107   2.931   6.171   6.459  0.4118 -0.8192 -1.5369
 2516TIP3    H229108   3.077   6.196   6.429  1.0302 -1.8067  0.4236
 2517TIP3   OH229109   0.452   1.712   6.715  0.0641 -0.4945 -0.0129
 2517TIP3    H129110   0.369   1.704   6.668 -0.1286  2.3179 -0.3639
 2517TIP3    H229111   0.426   1.724   6.806 -0.0820  1.6965 -0.2874
 2518TIP3   OH229112   2.344   1.861   0.124 -0.8749  0.4767 -0.1792
 2518TIP3    H129113   2.440   1.854   0.119 -0.9058 -1.6842  0.9652
 2518TIP3    H229114   2.329   1.922   0.197 -0.3148 -0.4866  0.7851
 2519TIP3   OH229115   5.908   2.557   1.237 -0.4439  0.2355 -0.2967
 2519TIP3    H129116   5.814   2.563   1.249 -0.4439 -1.7877  1.3627
 2519TIP3    H229117   5.936   2.492   1.301  1.8512 -0.5053 -1.9196
 2520TIP3   OH229118   6.258   0.969   0.660  0.5340  0.5281  0.3310
 2520TIP3    H129119   6.250   1.011   0.575  0.2661  1.1686  0.6677
 2520TIP3    H229120   6.196   0.897   0.657 -0.7430  1.5781  0.5925
 2521TIP3   OH229121   3.028   7.087   7.862 -0.0225  0.4939  0.3012
 2521TIP3    H129122   3.084   7.009   7.865 -0.3231  0.2980  0.8786
 2521TIP3    H229123   3.007   7.097   7.769 -1.7686 -1.4006  0.4169
 2522TIP3   OH229124   5.760   1.155   0.842  0.2605  0.3019  0.3897
 2522TIP3    H129125   5.778   1.220   0.775  0.1371 -0.3803 -0.3215
 2522TIP3    H229126   5.823   1.085   0.825 -1.3511 -0.9989 -0.5954
 2523TIP3   OH229127   5.064   1.453   6.735  0.5144  0.1931  0.0176
 2523TIP3    H129128   4.992   1.514   6.717  0.0348 -0.2615  0.3475
 2523TIP3    H229129   5.048   1.424   6.825  0.3287 -0.9609 -0.3698
 2524TIP3   OH229130   3.592   2.949   0.444 -0.1278 -0.2128  0.4510
 2524TIP3    H129131   3.678   2.988   0.463 -0.4103  2.2836 -2.6340
 2524TIP3    H229132   3.531   2.999   0.497  0.0526 -0.2587  0.7078
 2525TIP3   OH229133   1.812   1.093   1.325  1.0455 -0.1645 -0.4304
 2525TIP3    H129134   1.812   1.116   1.418  1.2694 -0.7387 -0.2809
 2525TIP3    H229135   1.793   1.175   1.280 -1.3153 -0.2989  0.2152
 2526TIP3   OH229136   4.624   3.037   1.307 -0.4844  0.0971  0.2929
 2526TIP3    H129137   4.703   2.999   1.269 -0.6308  0.6161 -0.5716
 2526TIP3    H229138   4.592   2.971   1.369  0.3769 -0.2988  0.3232
 2527TIP3   OH229139   1.537   0.707   6.213 -0.4858  0.1293 -0.0026
 2527TIP3    H129140   1.483   0.641   6.256  0.7286 -2.0889 -1.6844
 2527TIP3    H229141   1.495   0.722   6.129 -0.6656  1.4424  0.3001
 2528TIP3   OH229142   1.458   3.424   0.322 -0.3535 -0.5832 -0.2168
 2528TIP3    H129143   1.418   3.428   0.409  1.2358 -2.0398  0.6399
 2528TIP3    H229144   1.486   3.333   0.313  0.5281 -0.1863 -1.7897
 2529TIP3   OH229145   5.752   0.445   0.297 -0.4268  0.2705 -0.3130
 2529TIP3    H129146   5.788   0.362   0.328 -0.0841 -0.1435 -1.7450
 2529TIP3    H229147   5.672   0.420   0.249 -1.9743  1.0580  1.7035
 2530TIP3   OH229148   5.006   2.089   0.654  0.1278  0.3527  0.2569
 2530TIP3    H129149   4.918   2.083   0.616 -1.2506 -1.9510  3.3992
 2530TIP3    H229150   5.051   2.011   0.621 -0.3772 -0.5434  1.6148
 2531TIP3   OH229151   0.669   5.307   7.017  0.1863  0.1020  0.6197
 2531TIP3    H129152   0.721   5.236   7.056  0.0323 -0.7121 -0.5957
 2531TIP3    H229153   0.734   5.363   6.974  0.2240  0.1311  0.7148
 2532TIP3   OH229154   1.924   6.235   7.525 -0.5836  0.2879  0.4456
 2532TIP3    H129155   1.847   6.293   7.522  0.0629  1.1822  0.7054
 2532TIP3    H229156   1.912   6.185   7.606 -1.6950 -0.7532 -0.3264
 2533TIP3   OH229157   1.754   2.480   0.052 -0.0645 -0.4302 -0.4059
 2533TIP3    H129158   1.715   2.486   0.138  0.6852  1.9285 -0.1474
 2533TIP3    H229159   1.699   2.535  -0.004  0.6977 -0.1434 -0.8982
 2534TIP3   OH229160   5.488   4.934   7.124 -0.1903  0.2773  0.2067
 2534TIP3    H129161   5.533   4.957   7.042 -0.3916 -2.0313 -0.6127
 2534TIP3    H229162   5.555   4.944   7.191  1.1129 -1.4045 -0.7683
 2535TIP3   OH229163   2.160   6.402   0.670 -0.5938 -0.0383 -0.0323
 2535TIP3    H129164   2.195   6.422   0.757 -1.8598  1.4305  0.1863
 2535TIP3    H229165   2.233   6.418   0.610 -0.2398  0.7721  0.6007
 2536TIP3   OH229166   6.423   6.669   6.661 -0.9589 -0.3318  0.2461
 2536TIP3    H129167   6.492   6.695   6.599  1.3516 -0.4490  2.6284
 2536TIP3    H229168   6.467   6.659   6.744 -4.0605  0.5911  2.1927
 2537TIP3   OH229169   0.259   1.322   6.566  0.3164  0.5239  0.4363
 2537TIP3    H129170   0.217   1.366   6.493  0.1690  0.9455  0.7741
 2537TIP3    H229171   0.299   1.393   6.617  0.3176  0.2451  0.8280
 2538TIP3   OH229172   5.023   0.072   7.957  0.2557  0.1560 -0.0065
 2538TIP3    H129173   4.971  -0.004   7.981  1.7521 -0.4728  1.4162
 2538TIP3    H229174   4.985   0.144   8.008  1.0735 -0.4102  1.4413
 2539TIP3   OH229175   5.300   4.376   6.873 -0.1887 -0.3854  0.2860
 2539TIP3    H129176   5.306   4.411   6.784  0.1807  2.7909  1.4296
 2539TIP3    H229177   5.391   4.372   6.903 -0.3637 -0.5846  0.7950
 2540TIP3   OH229178   0.896   4.063   7.724  0.5758  0.3155  0.4341
 2540TIP3    H129179   0.804   4.040   7.736  1.2460 -1.7032  2.4914
 2540TIP3    H229180   0.898   4.119   7.647 -2.3581  0.3831  0.3317
 2541TIP3   OH229181   1.304   2.114   5.918 -0.9138 -0.4596 -0.4519
 2541TIP3    H129182   1.353   2.040   5.883 -0.9363 -0.8540  0.3279
 2541TIP3    H229183   1.241   2.136   5.849  0.8898  0.6156 -1.8466
 2542TIP3   OH229184   2.282   5.834   1.241 -0.1785  0.3997  0.1926
 2542TIP3    H129185   2.221   5.902   1.211  1.9103  2.6141  0.6232
 2542TIP3    H229186   2.248   5.807   1.326  0.1287  2.6777  1.1151
 2543TIP3   OH229187   3.950   0.688   6.236  0.0361  0.5267 -0.7163
 2543TIP3    H129188   3.899   0.686   6.317 -1.3740 -0.0318 -1.5851
 2543TIP3    H229189   3.903   0.748   6.179 -0.0217 -0.4523 -1.7429
 2544TIP3   OH229190   1.027   4.149   6.671  0.0155  0.5082 -0.5988
 2544TIP3    H129191   0.952   4.113   6.719  0.1290  2.0942  0.8653
 2544TIP3    H229192   1.087   4.075   6.662 -1.2575 -0.5292 -0.8558
 2545TIP3   OH229193   1.402   2.780   0.940 -0.4814  0.5478 -0.0278
 2545TIP3    H129194   1.442   2.780   1.027 -0.5659  1.3841  0.0128
 2545TIP3    H229195   1.308   2.792   0.957 -0.7711 -1.2792 -0.1269
 2546TIP3   OH229196   4.671   5.621   7.230 -0.4459  0.5305 -0.0474
 2546TIP3    H129197   4.679   5.622   7.325  1.3034 -1.3324 -0.1008
 2546TIP3    H229198   4.582   5.592   7.213 -0.3196 -0.5525  1.0567
 2547TIP3   OH229199   5.087   3.745   0.460  0.2187 -0.2274  0.0651
 2547TIP3    H129200   5.025   3.806   0.501 -0.0861 -0.2097 -0.4144
 2547TIP3    H229201   5.134   3.706   0.533  1.9264  2.1293  0.3527
 2548TIP3   OH229202   6.215   1.283   7.785 -0.5239 -0.0007 -0.1374
 2548TIP3    H129203   6.227   1.286   7.690 -0.4283  0.6228 -0.1079
 2548TIP3    H229204   6.216   1.375   7.813  1.7990 -0.2148  0.7502
 2549TIP3   OH229205   2.944   4.779   7.638  0.0596  0.1418 -0.5081
 2549TIP3    H129206   2.929   4.868   7.605 -0.9016  0.0023 -0.4834
 2549TIP3    H229207   2.938   4.724   7.560 -0.4232 -0.0072 -0.3681
 2550TIP3   OH229208   5.495   1.915   0.597 -0.1797 -0.3429  0.1775
 2550TIP3    H129209   5.575   1.951   0.635 -0.4338  1.3835 -0.8127
 2550TIP3    H229210   5.507   1.924   0.502 -0.4515 -2.5648 -0.1246
 2551TIP3   OH229211   6.885   4.971   1.922 -0.5108 -0.0277 -0.4131
 2551TIP3    H129212   6.799   4.934   1.941  0.0012 -1.0717 -0.0520
 2551TIP3    H229213   6.945   4.896   1.924  0.3045  0.5698 -1.3789
 2552TIP3   OH229214   0.926   2.284   0.376  0.2991  0.2162 -0.3134
 2552TIP3    H129215   0.838   2.256   0.350  1.0296 -2.0364 -0.5641
 2552TIP3    H229216   0.941   2.363   0.325 -0.9950 -0.2204 -1.4630
 2553TIP3   OH229217   1.562   0.741   1.876  0.5945 -0.6012 -0.5268
 2553TIP3    H129218   1.485   0.741   1.933 -0.1805 -1.5059 -1.5424
 2553TIP3    H229219   1.635   0.753   1.936 -0.3290  0.3830  0.4577
 2554TIP3   OH229220   7.132   4.583   1.312  0.8085 -0.8956 -0.5654
 2554TIP3    H129221   7.165   4.572   1.223 -0.1078 -0.3636 -0.9839
 2554TIP3    H229222   7.037   4.569   1.304  0.7083 -0.7659  0.3167
 2555TIP3   OH229223   1.296   4.225   0.435 -0.6756 -0.0536 -0.0384
 2555TIP3    H129224   1.224   4.163   0.425 -0.0960 -0.5740 -1.0666
 2555TIP3    H229225   1.306   4.265   0.349 -0.5225  0.9103  0.4073
 2556TIP3   OH229226   0.127   5.210   6.353 -0.0627 -0.1773  0.1504
 2556TIP3    H129227   0.158   5.136   6.405  0.9162  0.2946  0.2657
 2556TIP3    H229228   0.199   5.274   6.357 -0.4762  0.3699 -0.7607
 2557TIP3   OH229229   1.801   3.638   5.868  0.3089 -0.1651 -0.3116
 2557TIP3    H129230   1.819   3.709   5.806 -0.5077  1.4729  1.2481
 2557TIP3    H229231   1.719   3.662   5.910  1.3127 -0.6685  2.1293
 2558TIP3   OH229232   2.141   2.046   1.061  0.0744  0.2923  0.2599
 2558TIP3    H129233   2.181   2.027   1.146  1.7281  1.7259 -0.1544
 2558TIP3    H229234   2.070   1.982   1.054 -1.3322  1.2801  3.5176
 2559TIP3   OH229235   2.720   2.161   0.526 -0.5241 -0.2971  0.0017
 2559TIP3    H129236   2.657   2.206   0.469 -0.8262  0.9531  1.2766
 2559TIP3    H229237   2.805   2.179   0.486 -0.2736  4.1176  2.0081
 2560TIP3   OH229238   5.161   1.735   2.285 -0.3990  0.4270 -0.4318
 2560TIP3    H129239   5.150   1.642   2.268 -0.2127  0.4081 -0.4579
 2560TIP3    H229240   5.091   1.777   2.235 -1.0735  0.2434  0.3394
 2561TIP3   OH229241   5.159   6.119   6.820 -0.1340 -0.1463 -0.5960
 2561TIP3    H129242   5.163   6.072   6.903 -0.8320 -0.9049 -0.9782
 2561TIP3    H229243   5.215   6.068   6.761  2.4310  1.7550  0.0117
 2562TIP3   OH229244   0.213   4.467   7.250  0.5450  0.3674  0.2820
 2562TIP3    H129245   0.265   4.534   7.295 -0.4173  1.6980 -0.5343
 2562TIP3    H229246   0.225   4.389   7.304  0.6669  1.5034  1.9998
 2563TIP3   OH229247   3.654   1.580   7.658  0.4626  0.2464  0.2852
 2563TIP3    H129248   3.602   1.564   7.736 -2.5048  0.2779 -1.5153
 2563TIP3    H229249   3.657   1.494   7.615  1.9562  0.2530  0.3466
 2564TIP3   OH229250   4.690   3.449   6.855  0.5190 -0.9504  0.1821
 2564TIP3    H129251   4.754   3.503   6.808 -0.2519 -0.8348 -0.7793
 2564TIP3    H229252   4.629   3.512   6.893  0.5927 -1.0864  0.5276
 2565TIP3   OH229253   5.892   1.324   6.191  0.2069 -0.7935  0.7283
 2565TIP3    H129254   5.942   1.343   6.271  1.0470 -1.3062  0.3389
 2565TIP3    H229255   5.953   1.275   6.137 -0.1010  0.1678 -0.5309
 2566TIP3   OH229256   6.066   2.896   6.380 -0.1852 -0.5300 -0.5785
 2566TIP3    H129257   6.031   2.876   6.467  0.9709  1.1276  0.3244
 2566TIP3    H229258   6.122   2.821   6.359  1.2461  0.0075  1.1098
 2567TIP3   OH229259   1.684   6.337   7.622  0.5126  0.2564 -0.4999
 2567TIP3    H129260   1.595   6.302   7.632  0.5940  0.5917  1.8643
 2567TIP3    H229261   1.671   6.431   7.610  0.4848  0.0103 -3.0216
 2568TIP3   OH229262   2.664   5.944   2.120  0.8769  0.2146 -0.2535
 2568TIP3    H129263   2.589   5.935   2.061  2.1942  0.0559 -2.0039
 2568TIP3    H229264   2.737   5.967   2.062  1.3454  5.1565  1.8097
 2569TIP3   OH229265   2.668   3.590   5.950 -0.1818  0.1782  0.3079
 2569TIP3    H129266   2.719   3.651   6.002  0.5438  0.5819 -0.8277
 2569TIP3    H229267   2.600   3.643   5.909 -1.6335 -0.3752  1.8945
 2570TIP3   OH229268   0.314   5.892   1.759 -0.0445  0.3193 -0.6833
 2570TIP3    H129269   0.276   5.974   1.727 -0.3063  0.3116 -0.3937
 2570TIP3    H229270   0.382   5.918   1.820  0.3525  0.3310 -1.1237
 2571TIP3   OH229271   1.453   6.987   1.467 -0.3776  0.1297  0.2947
 2571TIP3    H129272   1.359   6.969   1.466 -0.0937 -1.4151  0.3839
 2571TIP3    H229273   1.477   6.986   1.560 -0.6491  2.8202  0.4840
 2572TIP3   OH229274   7.044   5.977   6.465  0.4674 -0.3687  0.1100
 2572TIP3    H129275   6.964   6.018   6.432  1.5443  1.9140  0.1403
 2572TIP3    H229276   7.098   5.964   6.388  0.8007 -0.1404  0.2998
 2573TIP3   OH229277   0.204   3.607   1.527  0.1652  0.0928  0.0284
 2573TIP3    H129278   0.205   3.676   1.460 -0.6323 -0.5154 -0.6418
 2573TIP3    H229279   0.199   3.654   1.610 -0.2543  0.8547 -0.4111
 2574TIP3   OH229280   4.942   6.304   0.299 -0.1361  0.1323  0.1440
 2574TIP3    H129281   4.991   6.226   0.273  1.0253  0.8074  0.2276
 2574TIP3    H229282   4.896   6.277   0.379 -1.9749 -1.2770 -1.3061
 2575TIP3   OH229283   5.686   0.113   8.018 -0.0251 -0.0552  0.0830
 2575TIP3    H129284   5.620   0.046   8.033 -0.7202  0.8355  1.2048
 2575TIP3    H229285   5.716   0.138   8.106  0.4766  0.8434 -0.3206
 2576TIP3   OH229286   3.896   0.744   7.127 -0.1351 -0.8027 -0.7347
 2576TIP3    H129287   3.829   0.678   7.145 -1.6629 -0.3326 -4.0837
 2576TIP3    H229288   3.847   0.822   7.101  1.6185  1.6934  2.6511
 2577TIP3   OH229289   1.445   1.745   1.031  0.6156  0.3708 -0.3065
 2577TIP3    H129290   1.532   1.706   1.019  0.9957  1.4265 -1.1256
 2577TIP3    H229291   1.444   1.820   0.972 -0.4437  1.0561  0.5506
 2578TIP3   OH229292   1.362   2.159   7.324  0.0349  0.0623  0.5935
 2578TIP3    H129293   1.404   2.242   7.346 -0.7844  0.6653 -0.0605
 2578TIP3    H229294   1.435   2.098   7.308  0.6858  1.1024 -0.5969
 2579TIP3   OH229295   6.970   5.578   0.319  0.1581  0.1121 -0.9627
 2579TIP3    H129296   7.040   5.521   0.351  0.5289  0.9919 -0.1345
 2579TIP3    H229297   6.894   5.553   0.371  0.0175 -0.4018 -1.4080
 2580TIP3   OH229298   4.416   6.888   7.750  0.1293  0.4140 -0.3459
 2580TIP3    H129299   4.388   6.949   7.818  0.5313 -0.0871  0.2829
 2580TIP3    H229300   4.384   6.927   7.669 -0.2579  1.0839  0.1120
 2581TIP3   OH229301   5.368   4.034   6.961 -0.4780 -0.0384 -0.0771
 2581TIP3    H129302   5.354   4.062   7.051 -0.6905 -0.2321 -0.0481
 2581TIP3    H229303   5.281   4.036   6.921 -0.8178 -2.2004  0.3813
 2582TIP3   OH229304   0.069   6.453   7.155 -0.6792  0.8414  0.3255
 2582TIP3    H129305   0.053   6.366   7.192 -2.0323  0.2205 -1.5874
 2582TIP3    H229306   0.140   6.440   7.092 -1.3698  0.9577 -0.4888
 2583TIP3   OH229307   3.411   4.515   1.862  0.0131  0.1230 -0.5966
 2583TIP3    H129308   3.370   4.599   1.880 -0.8330 -0.0912 -1.4744
 2583TIP3    H229309   3.353   4.450   1.903 -0.2665 -0.1457 -1.4113
 2584TIP3   OH229310   1.930   6.884   0.194  0.0848 -0.1166 -0.6925
 2584TIP3    H129311   1.855   6.859   0.247  0.4759  1.4675  0.6780
 2584TIP3    H229312   2.006   6.859   0.246  0.4778  2.3477  0.0421
 2585TIP3   OH229313   1.367   5.897   5.448  0.0003 -0.1723  0.3283
 2585TIP3    H129314   1.399   5.838   5.380 -1.1037  0.6669 -0.9942
 2585TIP3    H229315   1.398   5.859   5.530 -0.8970 -2.7450 -0.4284
 2586TIP3   OH229316   1.567   4.936   6.157 -0.1152 -0.1910  0.4558
 2586TIP3    H129317   1.599   4.899   6.075 -1.0837 -0.4096  0.1640
 2586TIP3    H229318   1.627   4.904   6.224 -1.5618 -3.3009  0.4046
 2587TIP3   OH229319   6.113   0.200   6.978 -0.6120  0.8531 -0.4645
 2587TIP3    H129320   6.098   0.268   6.913 -1.3307  1.7636  0.6239
 2587TIP3    H229321   6.190   0.230   7.026  1.8378 -1.2729 -2.7148
 2588TIP3   OH229322   5.720   3.352   7.214  0.2705 -0.5291 -0.2403
 2588TIP3    H129323   5.768   3.404   7.150  1.0888 -0.9244  0.0281
 2588TIP3    H229324   5.630   3.353   7.184  0.5148 -0.0990 -0.9866
 2589TIP3   OH229325   2.591   4.751   7.439 -0.4186  0.1223  0.5530
 2589TIP3    H129326   2.573   4.724   7.529  1.0490 -0.1416  0.7901
 2589TIP3    H229327   2.655   4.821   7.447 -1.5872  1.3255 -0.2301
 2590TIP3   OH229328   1.621   3.480   7.973 -0.1585 -0.2309  0.2249
 2590TIP3    H129329   1.707   3.492   8.011 -0.2860 -0.7433  0.6800
 2590TIP3    H229330   1.595   3.391   7.997  0.2581 -1.0548 -2.0515
 2591TIP3   OH229331   3.117   5.691   7.311 -0.0347 -0.1402  0.2051
 2591TIP3    H129332   3.147   5.668   7.399  0.7360 -1.0597 -0.2762
 2591TIP3    H229333   3.178   5.647   7.253  0.4737  1.7869 -0.8046
 2592TIP3   OH229334   0.546   3.573   6.516  0.1548 -0.7732 -0.2309
 2592TIP3    H129335   0.494   3.630   6.460 -0.8421 -0.8068  0.6382
 2592TIP3    H229336   0.484   3.538   6.579  1.4470  0.2522  1.7051
 2593TIP3   OH229337   7.137   3.402   1.141  0.4452 -0.0775 -0.4112
 2593TIP3    H129338   7.087   3.479   1.168  0.9125 -0.5094  1.8919
 2593TIP3    H229339   7.217   3.407   1.192  0.6914 -1.8516 -0.5855
 2594TIP3   OH229340   2.846   3.051   6.457 -0.0017 -0.5380 -0.3364
 2594TIP3    H129341   2.929   3.091   6.483 -0.7158  1.6859 -1.2282
 2594TIP3    H229342   2.846   3.055   6.362 -1.8909  1.3774 -0.3503
 2595TIP3   OH229343   5.238   6.395   1.446 -0.0829 -0.0209 -0.3693
 2595TIP3    H129344   5.206   6.416   1.358 -1.5261 -0.0218  0.1312
 2595TIP3    H229345   5.297   6.467   1.467 -1.2740  1.0431 -0.5636
 2596TIP3   OH229346   2.142   2.897   6.811 -0.4503  0.5235 -0.3567
 2596TIP3    H129347   2.145   2.926   6.721  0.4324 -1.2360 -0.9560
 2596TIP3    H229348   2.234   2.884   6.835 -0.6810  0.7552  0.7285
 2597TIP3   OH229349   1.586   0.908   1.656 -0.0333 -0.3903 -0.3917
 2597TIP3    H129350   1.656   0.973   1.670  1.2830 -1.7311 -0.4935
 2597TIP3    H229351   1.568   0.874   1.743  0.3566 -0.9505 -0.5267
 2598TIP3   OH229352   7.019   4.274   7.527 -0.6479  0.3552  0.4035
 2598TIP3    H129353   7.008   4.321   7.444  0.5166 -0.2842 -0.1445
 2598TIP3    H229354   7.038   4.342   7.591 -0.9373  0.8001  0.0227
 2599TIP3   OH229355   6.186   0.118   6.597 -0.6511 -0.4181 -0.5343
 2599TIP3    H129356   6.253   0.057   6.628 -1.0120 -0.7729 -0.4476
 2599TIP3    H229357   6.106   0.090   6.642 -0.6095  0.7635  0.3227
 2600TIP3   OH229358   4.955   3.485   7.745  0.3939  0.3593 -0.2224
 2600TIP3    H129359   4.955   3.393   7.774  0.2594 -1.0437 -4.0120
 2600TIP3    H229360   4.876   3.522   7.785  1.2441 -0.6372  2.6353
 2601TIP3   OH229361   1.843   6.174   6.044 -0.1866  0.5447 -0.2739
 2601TIP3    H129362   1.759   6.150   6.083 -0.0385  0.1032 -0.2263
 2601TIP3    H229363   1.856   6.265   6.070  0.0280  0.1917  0.8996
 2602TIP3   OH229364   4.596   4.144   7.708  1.1679  0.0586 -0.0933
 2602TIP3    H129365   4.557   4.230   7.723  0.3413 -0.5782  1.6061
 2602TIP3    H229366   4.683   4.163   7.673  1.2053  1.6032  0.7586
 2603TIP3   OH229367   4.310   0.678   7.863  0.2123 -0.0035 -0.4591
 2603TIP3    H129368   4.301   0.600   7.918 -2.2764  0.9214  0.5612
 2603TIP3    H229369   4.360   0.739   7.917 -0.2573  0.0919 -0.1276
 2604TIP3   OH229370   5.877   0.327   0.873  0.4570 -0.6643  0.0564
 2604TIP3    H129371   5.843   0.296   0.957 -0.0785 -0.1614  0.0349
 2604TIP3    H229372   5.853   0.420   0.870 -0.8833 -0.9990 -1.2828
 2605TIP3   OH229373   3.694   1.914   1.621 -0.2308 -0.2049 -0.0263
 2605TIP3    H129374   3.695   1.823   1.650  3.4001 -0.6509 -1.1598
 2605TIP3    H229375   3.764   1.956   1.670 -0.4964  1.4755 -1.0052
 2606TIP3   OH229376   2.870   6.874   6.339  0.5744  0.2995  0.4751
 2606TIP3    H129377   2.855   6.868   6.245 -0.3856 -1.0843  0.6847
 2606TIP3    H229378   2.964   6.856   6.349  0.4835 -0.5899 -0.1515
 2607TIP3   OH229379   1.197   5.442   1.600 -0.6127 -0.3227 -0.6598
 2607TIP3    H129380   1.258   5.466   1.530  1.8387  1.2209  1.8014
 2607TIP3    H229381   1.252   5.431   1.677 -3.2746 -0.9520  1.2986
 2608TIP3   OH229382   3.334   3.642   6.489  0.0708 -0.4203  0.1906
 2608TIP3    H129383   3.396   3.570   6.499  1.3737  0.6779  0.3460
 2608TIP3    H229384   3.331   3.684   6.575 -1.0038 -0.5248  0.2210
 2609TIP3   OH229385   5.629   1.727   6.730 -0.2751 -0.2932  0.5265
 2609TIP3    H129386   5.565   1.788   6.695  0.2971  0.4271  0.7138
 2609TIP3    H229387   5.671   1.774   6.802  1.3184 -0.2708 -0.3649
 2610TIP3   OH229388   2.956   4.877   1.385  0.6530  0.5835 -0.0450
 2610TIP3    H129389   2.919   4.800   1.341  0.9581 -0.8166  2.0182
 2610TIP3    H229390   2.937   4.863   1.477 -1.0558  3.9969  0.2793
 2611TIP3   OH229391   4.620   1.649   0.006  0.0035 -0.0697  0.0272
 2611TIP3    H129392   4.713   1.674   0.003 -0.2309  1.3495  2.0075
 2611TIP3    H229393   4.621   1.554   0.005  1.4998 -0.0761 -0.0983
 2612TIP3   OH229394   2.632   1.720   7.468 -0.0404  0.1885  0.4805
 2612TIP3    H129395   2.637   1.706   7.563 -0.8929  0.6612  0.6077
 2612TIP3    H229396   2.568   1.790   7.458 -0.1327 -0.0208 -0.4644
 2613TIP3   OH229397   5.241   2.207   1.558  0.2320  0.2650  0.4122
 2613TIP3    H129398   5.299   2.132   1.572  0.4379  0.1661 -0.8358
 2613TIP3    H229399   5.301   2.281   1.547  0.0709  0.4127  0.5358
 2614TIP3   OH229400   3.534   0.736   7.798 -0.0987  0.1969 -0.0304
 2614TIP3    H129401   3.490   0.703   7.720 -0.6824 -0.4658  0.5600
 2614TIP3    H229402   3.606   0.675   7.813 -1.4694 -1.1621  1.3401
 2615TIP3   OH229403   5.329   1.355   0.715 -0.5166 -0.0628 -0.3087
 2615TIP3    H129404   5.308   1.430   0.660  0.8661  0.5195 -0.0992
 2615TIP3    H229405   5.299   1.379   0.802 -2.3881 -0.8406 -0.6866
 2616TIP3   OH229406   2.814   5.669   0.418  0.1683  0.3052  0.2806
 2616TIP3    H129407   2.739   5.723   0.443 -1.2944 -1.5745  0.1819
 2616TIP3    H229408   2.880   5.732   0.387 -1.8553  1.9376 -0.9639
 2617TIP3   OH229409   1.597   4.091   0.036  0.0689 -0.1783  0.6113
 2617TIP3    H129410   1.593   4.152   0.110  0.5229 -0.5890  0.9872
 2617TIP3    H229411   1.690   4.089   0.012 -0.1439  0.2966 -0.2717
 2618TIP3   OH229412   1.351   2.655   0.393 -0.6390 -0.0706 -0.2359
 2618TIP3    H129413   1.328   2.732   0.444  2.2163 -0.6370  2.1664
 2618TIP3    H229414   1.305   2.583   0.436  0.2032 -0.2706  0.3611
 2619TIP3   OH229415   1.098   5.042   6.210  0.4499 -0.0652 -0.1863
 2619TIP3    H129416   1.186   5.005   6.203  0.2387 -0.4146 -1.2385
 2619TIP3    H229417   1.110   5.136   6.197  0.5906 -0.2028 -1.1142
 2620TIP3   OH229418   4.607   4.827   5.807 -0.4644  0.6020 -0.3955
 2620TIP3    H129419   4.701   4.816   5.790 -0.6832 -1.7128 -0.5000
 2620TIP3    H229420   4.602   4.873   5.890  0.8374 -0.9690  0.6100
 2621TIP3   OH229421   6.045   0.808   7.296  0.0759 -0.0556 -0.1251
 2621TIP3    H129422   6.045   0.849   7.382  1.5694  2.1215 -1.0597
 2621TIP3    H229423   6.136   0.818   7.265 -0.3381 -1.0828 -1.8027
 2622TIP3   OH229424   1.974   3.529   1.824 -0.5879  0.2476  0.3256
 2622TIP3    H129425   2.007   3.617   1.844  2.2181 -0.8938  1.2985
 2622TIP3    H229426   2.054   3.477   1.811 -2.1667 -1.9965 -1.0437
 2623TIP3   OH229427   5.396   3.778   0.074  0.1381  0.1306 -0.3219
 2623TIP3    H129428   5.394   3.684   0.056  1.7187  0.1575 -0.7886
 2623TIP3    H229429   5.411   3.785   0.168  1.6459 -0.1372 -0.5112
 2624TIP3   OH229430   4.859   6.199   1.810  0.3063 -0.0366  0.3932
 2624TIP3    H129431   4.934   6.249   1.776 -0.2281  0.5777  0.1023
 2624TIP3    H229432   4.807   6.263   1.857  0.4181 -0.6507  1.3753
 2625TIP3   OH229433   6.542   1.696   6.636  0.1790 -0.1028  0.4683
 2625TIP3    H129434   6.600   1.678   6.710  1.5460  0.9840 -0.2858
 2625TIP3    H229435   6.596   1.676   6.559 -0.7549  0.0807 -0.2429
 2626TIP3   OH229436   0.450   6.932   7.439  0.0517  0.1696 -0.1325
 2626TIP3    H129437   0.356   6.943   7.433  0.1322  1.3208  0.4374
 2626TIP3    H229438   0.481   7.010   7.484  1.3753  0.2246 -1.0549
 2627TIP3   OH229439   1.733   0.708   7.433 -0.3649 -0.9297  0.7054
 2627TIP3    H129440   1.743   0.613   7.426 -2.0317 -1.2059  1.4671
 2627TIP3    H229441   1.651   0.726   7.385 -0.8001 -0.0913  1.7386
 2628TIP3   OH229442   2.047   1.964   2.351 -0.0018 -0.7960 -0.0265
 2628TIP3    H129443   1.979   2.032   2.351  1.6878  0.9820 -0.2151
 2628TIP3    H229444   1.999   1.882   2.343 -2.1214  0.3828 -0.0951
 2629TIP3   OH229445   3.527   4.672   1.658  0.1710 -0.0658  0.2962
 2629TIP3    H129446   3.484   4.757   1.654 -1.0651 -0.6949 -0.2411
 2629TIP3    H229447   3.464   4.616   1.705 -0.3366 -1.4048 -1.8701
 2630TIP3   OH229448   6.406   6.116   6.763  0.0582  0.1634  0.2973
 2630TIP3    H129449   6.365   6.055   6.824  0.0035 -1.5949 -1.3963
 2630TIP3    H229450   6.340   6.132   6.697  0.9123  0.0525 -0.6093
 2631TIP3   OH229451   5.095   7.138   1.223  0.1024 -0.2548  0.0801
 2631TIP3    H129452   5.028   7.092   1.173 -0.0878  0.3357 -0.2125
 2631TIP3    H229453   5.128   7.205   1.164  1.0717 -0.6432  0.1652
 2632TIP3   OH229454   0.414   6.563   0.645 -0.2070  0.0535 -0.0772
 2632TIP3    H129455   0.498   6.594   0.680 -0.0075  0.1210 -0.5996
 2632TIP3    H229456   0.437   6.489   0.590 -0.4453  0.3221 -0.5442
 2633TIP3   OH229457   7.032   3.725   7.890 -0.6193  0.4570  0.3213
 2633TIP3    H129458   7.018   3.646   7.942 -0.1988  0.4408  0.4157
 2633TIP3    H229459   6.983   3.793   7.935 -0.8182  0.2930  0.3522
 2634TIP3   OH229460   0.104   2.470   1.057 -0.6700  0.5772 -0.2053
 2634TIP3    H129461   0.076   2.379   1.071 -1.8214 -0.0833 -5.0484
 2634TIP3    H229462   0.038   2.522   1.103 -0.7223 -1.0027  1.6185
 2635TIP3   OH229463   0.240   5.353   6.634 -0.2504  0.4270  0.0192
 2635TIP3    H129464   0.183   5.332   6.708  0.4467 -0.7784  0.2356
 2635TIP3    H229465   0.326   5.318   6.658 -0.2525 -1.0110 -1.7908
 2636TIP3   OH229466   2.996   1.919   0.604 -0.2135  0.1317  0.4888
 2636TIP3    H129467   2.984   1.923   0.509 -0.1102 -0.4781  0.4461
 2636TIP3    H229468   3.034   2.003   0.627  2.0130 -0.5874 -0.3412
 2637TIP3   OH229469   6.312   3.770   0.646  0.3950 -0.4232  0.0478
 2637TIP3    H129470   6.388   3.813   0.686 -0.9890  3.2101 -0.8539
 2637TIP3    H229471   6.239   3.830   0.663 -1.2183 -1.0766 -3.6328
 2638TIP3   OH229472   6.889   1.106   7.361 -1.0546  0.0928 -0.2652
 2638TIP3    H129473   6.965   1.049   7.349 -1.1737 -0.0376 -0.4116
 2638TIP3    H229474   6.921   1.177   7.417 -1.0617 -0.4366  0.4320
 2639TIP3   OH229475   5.626   4.879   5.386 -0.1131 -0.0919 -0.7323
 2639TIP3    H129476   5.681   4.957   5.388 -0.7749  0.3816 -0.4920
 2639TIP3    H229477   5.667   4.818   5.448 -1.0173  1.0733  1.0922
 2640TIP3   OH229478   3.522   2.814   6.685 -0.3102 -0.1144  1.1163
 2640TIP3    H129479   3.594   2.807   6.622 -2.7125  1.7347 -2.0985
 2640TIP3    H229480   3.480   2.728   6.685 -1.8245  0.5069 -1.9992
 2641TIP3   OH229481   2.672   3.444   6.331 -0.2994 -0.2193 -0.6252
 2641TIP3    H129482   2.643   3.354   6.344 -0.6685  0.0662  0.6737
 2641TIP3    H229483   2.754   3.437   6.283  1.0107 -1.4058  1.6240
 2642TIP3   OH229484   3.098   4.359   7.474  0.0304  0.4369  0.1666
 2642TIP3    H129485   3.054   4.421   7.415  1.7999  0.5955 -1.0733
 2642TIP3    H229486   3.035   4.343   7.544 -2.4212 -0.2190 -2.0508
 2643TIP3   OH229487   1.401   5.329   1.252  0.1772 -0.9451 -0.4912
 2643TIP3    H129488   1.480   5.354   1.204 -0.9117  0.3394 -1.6814
 2643TIP3    H229489   1.397   5.391   1.325 -0.7979  0.3588 -1.6087
 2644TIP3   OH229490   5.267   6.048   0.017  0.2434 -0.0651  0.1047
 2644TIP3    H129491   5.317   5.975   0.053 -2.1754 -1.5129  0.7366
 2644TIP3    H229492   5.266   6.032  -0.077 -0.8854 -1.3316  0.2976
 2645TIP3   OH229493   6.305   2.746   7.405 -0.3434  0.4023 -0.3560
 2645TIP3    H129494   6.228   2.717   7.355  0.0655  1.4966 -1.7021
 2645TIP3    H229495   6.279   2.830   7.443  0.4017  1.1710 -1.4731
 2646TIP3   OH229496   3.541   2.512   7.064 -0.4741  0.0891 -0.5034
 2646TIP3    H129497   3.495   2.569   7.125 -0.5302  2.7673 -2.8470
 2646TIP3    H229498   3.490   2.516   6.984 -1.1111 -4.3051 -0.5701
 2647TIP3   OH229499   2.861   4.601   7.405 -0.0793  0.1950  0.7590
 2647TIP3    H129500   2.859   4.556   7.321  0.4625 -1.4496  1.5879
 2647TIP3    H229501   2.768   4.614   7.427 -0.2245  0.9871 -0.2423
 2648TIP3   OH229502   6.094   5.039   6.849 -1.0456  0.3871  0.4599
 2648TIP3    H129503   6.136   4.955   6.869 -1.7823 -1.0385 -3.1839
 2648TIP3    H229504   6.164   5.103   6.860 -0.7230 -0.3474  4.3892
 2649TIP3   OH229505   4.884   6.576   6.720 -0.0032  0.3749 -0.3730
 2649TIP3    H129506   4.920   6.491   6.695 -0.5711  0.0484 -0.0889
 2649TIP3    H229507   4.808   6.588   6.662 -0.2140  0.4627 -0.0803
 2650TIP3   OH229508   3.715   6.954   0.498 -0.2351 -0.1020 -0.2606
 2650TIP3    H129509   3.749   7.019   0.559 -0.3061 -0.5835  0.3035
 2650TIP3    H229510   3.621   6.972   0.495 -0.5538 -1.2527  1.2632
 2651TIP3   OH229511   5.381   4.070   1.016  0.1174  0.0472  0.1816
 2651TIP3    H129512   5.323   3.994   1.017 -0.4142  0.3303 -2.3634
 2651TIP3    H229513   5.468   4.033   1.031 -0.3454 -0.7906  0.9324
 2652TIP3   OH229514   6.025   4.934   0.943  0.1385 -0.1117  0.7154
 2652TIP3    H129515   5.993   4.974   0.863 -1.1530 -1.1880  0.6532
 2652TIP3    H229516   6.005   4.998   1.012  1.0219  0.7053  0.2251
 2653TIP3   OH229517   4.435   6.597   7.422 -0.0106 -0.2630  0.2667
 2653TIP3    H129518   4.462   6.593   7.331  1.8577  0.4577  0.7367
 2653TIP3    H229519   4.349   6.638   7.420  0.3452  0.4713 -1.1163
 2654TIP3   OH229520   2.446   1.791   0.526 -0.5198  0.2939 -0.3130
 2654TIP3    H129521   2.536   1.824   0.526 -0.2177 -0.5159 -0.9991
 2654TIP3    H229522   2.392   1.868   0.507 -0.0089  0.8549  0.4616
 2655TIP3   OH229523   0.621   6.234   0.906  0.1851  0.2309 -0.4256
 2655TIP3    H129524   0.576   6.152   0.885  0.1345  0.0839  0.2584
 2655TIP3    H229525   0.609   6.246   1.000  1.1675  0.4353 -0.3119
 2656TIP3   OH229526   6.377   0.510   1.236 -0.0396  0.0370 -0.1497
 2656TIP3    H129527   6.385   0.521   1.141 -1.8513  1.2018 -0.2005
 2656TIP3    H229528   6.462   0.538   1.270  0.0434  1.3259 -1.3218
 2657TIP3   OH229529   4.695   2.635   1.622  0.1286  0.7839 -0.1580
 2657TIP3    H129530   4.636   2.591   1.682  0.7679 -1.5080 -1.1039
 2657TIP3    H229531   4.767   2.665   1.677  0.2429 -0.4370  0.3927
 2658TIP3   OH229532   4.057   1.819   1.663  0.1651  0.0211 -0.4902
 2658TIP3    H129533   4.000   1.894   1.677  0.1150  0.3850 -2.3438
 2658TIP3    H229534   4.125   1.828   1.729 -1.7557 -0.3227  1.6723
 2659TIP3   OH229535   0.237   0.285   0.365 -0.4965 -0.0841  0.2812
 2659TIP3    H129536   0.156   0.249   0.400 -0.6422 -0.6645 -0.6400
 2659TIP3    H229537   0.305   0.255   0.426 -0.8690 -0.2611  0.6089
 2660TIP3   OH229538   4.522   3.075   7.442  0.0377  0.2147  0.5486
 2660TIP3    H129539   4.494   3.147   7.386 -0.3999 -0.6731 -0.4081
 2660TIP3    H229540   4.608   3.049   7.406  0.4305  0.5768  1.2066
 2661TIP3   OH229541   6.926   4.436   7.297 -0.4250  0.0861  0.0777
 2661TIP3    H129542   6.961   4.507   7.244  0.8319 -0.2341  0.4497
 2661TIP3    H229543   6.863   4.392   7.240  0.2751  0.2655 -0.8489
 2662TIP3   OH229544   3.357   4.300   7.396  0.0126 -0.1404 -0.0779
 2662TIP3    H129545   3.267   4.333   7.404  0.4316  0.8319  0.8242
 2662TIP3    H229546   3.390   4.340   7.317  0.4160  1.4374  0.8487
 2663TIP3   OH229547   0.470   3.888   0.400  0.1696 -0.5403 -0.0731
 2663TIP3    H129548   0.556   3.848   0.388  1.3915  1.6279  0.8647
 2663TIP3    H229549   0.459   3.945   0.325  0.0701  0.0538  0.3897
 2664TIP3   OH229550   0.934   0.675   1.736 -0.0760 -0.1498 -0.2139
 2664TIP3    H129551   0.855   0.678   1.791 -1.2963 -1.0799 -1.8357
 2664TIP3    H229552   0.936   0.760   1.692  0.6651  0.4323  0.9082
 2665TIP3   OH229553   1.539   6.396   6.027  0.3275 -0.2303  0.0961
 2665TIP3    H129554   1.622   6.436   6.055  0.6394 -0.8109  0.0157
 2665TIP3    H229555   1.550   6.303   6.045  0.1249 -0.4712 -0.9593
 2666TIP3   OH229556   4.592   2.512   2.050 -0.8262  0.2336 -0.1070
 2666TIP3    H129557   4.625   2.601   2.062 -0.3504  0.0263  0.1114
 2666TIP3    H229558   4.569   2.507   1.957  0.3304  0.1830 -0.3958
 2667TIP3   OH229559   0.979   0.867   1.158 -0.2811 -0.4591  0.2580
 2667TIP3    H129560   1.021   0.887   1.242 -1.3307  1.7546  0.3113
 2667TIP3    H229561   0.885   0.870   1.177 -0.5449  0.7248 -1.0756
 2668TIP3   OH229562   1.895   6.717   0.983 -0.6006  0.2952 -0.5245
 2668TIP3    H129563   1.964   6.679   0.929 -0.9775  0.0532 -0.8389
 2668TIP3    H229564   1.846   6.641   1.016  1.2324  0.1969  2.3856
 2669TIP3   OH229565   2.372   5.575   7.143 -0.5386 -0.5134 -0.3911
 2669TIP3    H129566   2.308   5.606   7.080  1.1375  1.8520 -1.0518
 2669TIP3    H229567   2.436   5.646   7.150  0.3745 -1.4784  2.5475
 2670TIP3   OH229568   3.662   6.386   6.775  0.0084 -0.4555  0.1223
 2670TIP3    H129569   3.753   6.393   6.803 -0.0256 -2.8353  1.0630
 2670TIP3    H229570   3.624   6.472   6.794  2.6931  1.7407 -3.1809
 2671TIP3   OH229571   2.941   2.243   0.359 -0.7864  0.4231  0.1019
 2671TIP3    H129572   2.988   2.299   0.297  1.5877  0.2304  1.6153
 2671TIP3    H229573   2.962   2.279   0.445  0.3340 -2.3511  1.1047
 2672TIP3   OH229574   6.242   5.820   8.011 -0.2057  0.8729 -0.0164
 2672TIP3    H129575   6.308   5.769   8.057 -1.7370  0.8096  2.2527
 2672TIP3    H229576   6.258   5.910   8.038 -1.1442  0.8311  0.7167
 2673TIP3   OH229577   4.633   3.987   0.362  0.8595 -0.3239 -0.1220
 2673TIP3    H129578   4.608   4.079   0.372  1.4060 -0.1935  0.0812
 2673TIP3    H229579   4.729   3.988   0.360  0.8618 -0.8305 -0.6957
 2674TIP3   OH229580   3.211   6.528   7.254 -0.2813 -0.1146  0.1339
 2674TIP3    H129581   3.254   6.521   7.339 -1.3247  0.3608  0.7256
 2674TIP3    H229582   3.177   6.441   7.237  1.4178 -0.6735 -0.6534
 2675TIP3   OH229583   6.987   1.920   6.277 -0.7203  0.5123 -0.0418
 2675TIP3    H129584   6.949   1.969   6.350 -0.5205  1.4605 -0.5492
 2675TIP3    H229585   7.028   1.987   6.223 -1.6601 -0.0554 -1.5144
 2676TIP3   OH229586   2.494   6.214   1.574 -0.1857 -0.1572 -0.4137
 2676TIP3    H129587   2.515   6.154   1.646 -3.3606  1.5170  2.2365
 2676TIP3    H229588   2.572   6.267   1.563  0.1610  0.1579  2.6271
 2677TIP3   OH229589   3.056   1.292   6.641 -0.2928  0.4376 -0.8291
 2677TIP3    H129590   3.086   1.207   6.671  0.9117  0.4731 -1.8796
 2677TIP3    H229591   2.965   1.298   6.672 -0.0941 -0.8226  0.0444
 2678TIP3   OH229592   4.504   4.998   0.816  0.4373 -0.2413  0.6025
 2678TIP3    H129593   4.450   5.068   0.851 -2.4920 -1.3538 -1.3435
 2678TIP3    H229594   4.454   4.963   0.742  2.9376 -2.7073 -0.1046
 2679TIP3   OH229595   6.310   3.848   0.938  0.3279  0.2453 -0.4411
 2679TIP3    H129596   6.389   3.837   0.884  0.5781 -0.8082  0.1134
 2679TIP3    H229597   6.316   3.938   0.970 -0.2680  1.2145 -2.8249
 2680TIP3   OH229598   1.654   3.012   5.450  0.8246 -0.0399 -0.1462
 2680TIP3    H129599   1.603   3.051   5.379  2.7972  0.6943 -1.2336
 2680TIP3    H229600   1.663   2.920   5.425  2.0329  0.3391 -1.2391
 2681TIP3   OH229601   1.177   3.420   6.883 -0.0132  0.6545  0.2789
 2681TIP3    H129602   1.144   3.461   6.963 -1.7456 -0.8790  0.4108
 2681TIP3    H229603   1.187   3.492   6.821 -1.4851  1.4830  0.9619
 2682TIP3   OH229604   3.009   6.744   6.673  0.3521  0.3962  0.0515
 2682TIP3    H129605   2.977   6.834   6.676 -1.0894  0.0034 -1.5566
 2682TIP3    H229606   2.964   6.700   6.745 -2.1216  0.0943 -1.5615
 2683TIP3   OH229607   1.396   0.267   0.769  0.1024  0.2105 -0.2627
 2683TIP3    H129608   1.367   0.176   0.767 -0.0250  0.2266  0.5597
 2683TIP3    H229609   1.472   0.269   0.711  0.9506 -0.7409  0.7556
 2684TIP3   OH229610   5.886   0.976   6.312  0.6275 -0.2550 -0.1943
 2684TIP3    H129611   5.975   1.011   6.321  1.1911 -1.5539 -0.4895
 2684TIP3    H229612   5.883   0.944   6.222 -1.3267  2.8836 -1.4317
 2685TIP3   OH229613   6.534   0.589   0.729 -1.2300 -0.0269 -0.0442
 2685TIP3    H129614   6.606   0.549   0.680 -1.0730 -0.2055  0.3308
 2685TIP3    H229615   6.573   0.667   0.768 -0.8948 -0.8109  1.2175
 2686TIP3   OH229616   6.143   4.301   0.100 -0.0516 -0.3267 -0.2200
 2686TIP3    H129617   6.183   4.214   0.103 -1.1367 -0.8130  0.7293
 2686TIP3    H229618   6.075   4.293   0.033 -2.3380 -1.2399  2.0446
 2687TIP3   OH229619   0.029   5.160   6.804 -1.3194 -0.4102  0.1307
 2687TIP3    H129620  -0.057   5.127   6.829 -1.7507  0.5760 -0.0044
 2687TIP3    H229621   0.090   5.114   6.862 -1.8226 -1.8378 -0.4104
 2688TIP3   OH229622   3.349   0.440   0.593 -0.1885  0.2368 -0.1665
 2688TIP3    H129623   3.350   0.351   0.558 -0.8412 -0.1273  0.7034
 2688TIP3    H229624   3.258   0.455   0.617  0.1558  0.5927  1.0237
 2689TIP3   OH229625   3.769   2.249   7.040  0.0771  0.2276  0.0755
 2689TIP3    H129626   3.746   2.309   7.111  3.4080  0.0735  1.4666
 2689TIP3    H229627   3.739   2.163   7.072 -0.1078  0.4245  0.4450
 2690TIP3   OH229628   6.039   5.988   7.889  0.4934  0.3212 -0.3955
 2690TIP3    H129629   6.079   6.071   7.863  1.0661 -0.0867 -0.8586
 2690TIP3    H229630   6.110   5.939   7.931  0.0747  0.1942  0.1735
 2691TIP3   OH229631   1.721   0.567   0.479  0.3655  0.0085  0.8494
 2691TIP3    H129632   1.756   0.625   0.411 -0.9971 -0.4141 -0.2578
 2691TIP3    H229633   1.721   0.620   0.558 -1.6925  1.8995 -0.3158
 2692TIP3   OH229634   0.013   3.181   0.323 -0.1991 -0.0554 -0.0215
 2692TIP3    H129635   0.023   3.194   0.417  1.3672  0.7664 -0.2597
 2692TIP3    H229636   0.086   3.124   0.299 -1.5264 -1.6204 -0.5125
 2693TIP3   OH229637   3.010   4.788   6.347 -0.3028  0.1946 -0.4901
 2693TIP3    H129638   2.997   4.741   6.429  0.9033  1.1207  0.2759
 2693TIP3    H229639   3.050   4.724   6.288  1.0129  0.1172  0.4281
 2694TIP3   OH229640   2.908   1.215   6.335  0.9258  0.0064  0.4332
 2694TIP3    H129641   2.923   1.148   6.402 -1.0103 -0.2610  0.6309
 2694TIP3    H229642   2.983   1.275   6.345  1.5570 -0.9447  1.6937
 2695TIP3   OH229643   6.697   1.235   1.680 -0.1548 -0.1146 -0.7535
 2695TIP3    H129644   6.728   1.204   1.594 -0.5000  0.4730 -1.0943
 2695TIP3    H229645   6.772   1.283   1.716 -0.1734  0.0583 -0.9428
 2696TIP3   OH229646   0.634   0.442   1.404  1.1653 -0.2092 -0.0413
 2696TIP3    H129647   0.639   0.404   1.316  1.2908 -1.1703  0.3615
 2696TIP3    H229648   0.721   0.427   1.442  1.1096  0.1906  0.2461
 2697TIP3   OH229649   2.522   1.205   7.930 -0.5831 -0.1942 -0.1539
 2697TIP3    H129650   2.571   1.128   7.957  3.6681  2.9334  2.2515
 2697TIP3    H229651   2.477   1.235   8.009  0.9744  1.7735  0.0485
 2698TIP3   OH229652   5.781   0.102   6.924  0.1360 -0.1335 -0.2512
 2698TIP3    H129653   5.805   0.181   6.973  1.7197  1.6982 -3.5477
 2698TIP3    H229654   5.825   0.031   6.969 -1.5270  0.6956  2.9951
 2699TIP3   OH229655   4.182   5.274   7.606  0.2210  0.0120 -0.5247
 2699TIP3    H129656   4.265   5.321   7.601 -0.2115  1.5646  3.1842
 2699TIP3    H229657   4.208   5.183   7.623  1.1061  0.0292 -1.6684
 2700TIP3   OH229658   6.415   7.096   7.024 -0.3072 -0.4355  0.7354
 2700TIP3    H129659   6.353   7.074   6.954 -2.1049  0.2395  2.0550
 2700TIP3    H229660   6.360   7.120   7.099  1.5212  1.9548  1.4482
 2701TIP3   OH229661   1.491   5.207   7.749 -1.3306 -0.5876  0.5293
 2701TIP3    H129662   1.512   5.292   7.709  1.1155 -1.5679 -0.5138
 2701TIP3    H229663   1.398   5.212   7.769 -1.2020  2.4580  0.8229
 2702TIP3   OH229664   2.367   4.624   7.372 -0.0826 -0.6790 -0.3752
 2702TIP3    H129665   2.439   4.685   7.358 -2.7838  2.5944 -1.3927
 2702TIP3    H229666   2.357   4.578   7.288 -0.3610  0.2920 -0.8837
 2703TIP3   OH229667   3.010   2.832   6.297  0.4246  0.3192  0.1006
 2703TIP3    H129668   2.966   2.895   6.240  1.5347 -0.0063 -1.1524
 2703TIP3    H229669   3.098   2.867   6.308  0.8946 -0.7452 -0.1802
 2704TIP3   OH229670   3.718   1.597   0.833  0.5285 -0.0643  0.5925
 2704TIP3    H129671   3.776   1.650   0.887 -0.5122 -0.6822  2.3855
 2704TIP3    H229672   3.641   1.652   0.819  0.8366  0.1396 -0.4270
 2705TIP3   OH229673   6.683   5.479   6.247 -0.1838  0.4289 -0.0252
 2705TIP3    H129674   6.778   5.479   6.234 -0.0617  0.5698  0.7794
 2705TIP3    H229675   6.649   5.419   6.182  0.4754  0.2698 -0.2279
 2706TIP3   OH229676   6.562   6.866   7.013 -0.0961 -0.0454  0.1266
 2706TIP3    H129677   6.618   6.866   6.935 -0.1994 -0.0155  0.0525
 2706TIP3    H229678   6.517   6.951   7.011 -2.2391 -1.1290 -1.3152
 2707TIP3   OH229679   3.825   5.212   0.624  0.1385 -0.4258 -0.0142
 2707TIP3    H129680   3.740   5.167   0.629 -1.4581  2.3395 -0.4252
 2707TIP3    H229681   3.839   5.246   0.712  0.5390 -0.3861 -0.0938
 2708TIP3   OH229682   0.656   6.178   6.872 -0.0357  0.2697  0.8772
 2708TIP3    H129683   0.635   6.155   6.963 -1.5150  0.3881  0.5933
 2708TIP3    H229684   0.726   6.118   6.847  0.2508  0.1073  2.0320
 2709TIP3   OH229685   2.097   4.114   7.670  0.1113 -0.8289  0.0123
 2709TIP3    H129686   2.128   4.187   7.617 -2.1663  0.0637 -0.2353
 2709TIP3    H229687   2.173   4.057   7.679  1.4914  0.6760 -1.3107
 2710TIP3   OH229688   1.933   1.216   1.664  0.1537 -0.0951 -0.1170
 2710TIP3    H129689   1.934   1.295   1.718  1.5847  0.3141 -0.7012
 2710TIP3    H229690   1.996   1.234   1.594  0.1021 -1.5545 -0.5628
 2711TIP3   OH229691   0.151   4.874   6.642  0.3002  0.3087 -0.4400
 2711TIP3    H129692   0.174   4.927   6.565 -2.3117  0.8633 -0.9524
 2711TIP3    H229693   0.133   4.787   6.606  1.6971 -0.1909 -0.0114
 2712TIP3   OH229694   4.349   6.500   8.005 -0.0678 -0.5247 -0.5022
 2712TIP3    H129695   4.288   6.499   8.079  0.8883 -1.3950  0.2922
 2712TIP3    H229696   4.349   6.591   7.976  0.9724  0.2729  1.7657
 2713TIP3   OH229697   2.706   4.644   5.969 -0.1962 -0.0180 -0.0001
 2713TIP3    H129698   2.791   4.675   5.939 -0.3764 -0.0971 -0.5999
 2713TIP3    H229699   2.686   4.569   5.913 -0.4314 -0.3202  0.4765
 2714TIP3   OH229700   3.868   5.450   0.225 -0.6326  0.2451 -0.9104
 2714TIP3    H129701   3.947   5.500   0.207  0.3990 -1.0688 -0.2109
 2714TIP3    H229702   3.853   5.462   0.319 -0.5622 -0.4652 -0.8031
 2715TIP3   OH229703   4.809   3.466   0.845 -0.0069  0.5189  0.6601
 2715TIP3    H129704   4.825   3.472   0.939  0.0890 -2.0470  0.8747
 2715TIP3    H229705   4.740   3.400   0.837  0.7035 -0.0624 -1.0996
 2716TIP3   OH229706   4.703   3.837   7.127  0.0004 -0.1082 -0.1678
 2716TIP3    H129707   4.770   3.792   7.179  0.6357 -1.9480 -2.4397
 2716TIP3    H229708   4.629   3.844   7.187  1.2775 -0.5081  1.5584
 2717TIP3   OH229709   5.717   2.981   7.333  0.5584 -0.7190  0.2962
 2717TIP3    H129710   5.642   2.928   7.305 -1.2909  2.5198 -1.4321
 2717TIP3    H229711   5.682   3.040   7.400  1.4368  1.0289 -0.7165
 2718TIP3   OH229712   2.084   0.081   5.725 -0.6473  0.0088 -0.1600
 2718TIP3    H129713   1.994   0.050   5.726 -0.5337 -0.3511 -0.9554
 2718TIP3    H229714   2.112   0.077   5.817 -1.2410 -0.4459  0.0012
 2719TIP3   OH229715   4.020   0.142   7.581  0.4383  0.0963 -0.5337
 2719TIP3    H129716   3.952   0.206   7.598  0.5406 -0.4335  2.5584
 2719TIP3    H229717   3.976   0.072   7.532  0.0539  1.8976 -2.9088
 2720TIP3   OH229718   6.357   6.243   1.307  0.4132 -0.0721  0.1634
 2720TIP3    H129719   6.370   6.225   1.400 -1.7726 -0.4266  0.4658
 2720TIP3    H229720   6.441   6.275   1.276  1.2073 -0.0078  2.2509
 2721TIP3   OH229721   5.450   6.380   1.802  0.2435  0.4224 -0.0589
 2721TIP3    H129722   5.407   6.322   1.739 -0.2961  0.7836 -0.0334
 2721TIP3    H229723   5.424   6.346   1.887  0.6389  0.1816 -0.0308
 2722TIP3   OH229724   5.287   1.483   2.001 -0.3972  0.1229  0.5054
 2722TIP3    H129725   5.304   1.574   2.025 -0.5264  0.2525  0.1252
 2722TIP3    H229726   5.211   1.488   1.943 -0.7621 -0.2895  0.9453
 2723TIP3   OH229727   1.596   5.471   7.134 -0.0776  0.2818 -0.4595
 2723TIP3    H129728   1.635   5.529   7.200 -1.3015 -0.5859  1.1047
 2723TIP3    H229729   1.615   5.383   7.165 -1.0566 -0.1492 -1.0281
 2724TIP3   OH229730   6.948   0.543   0.265 -0.3731  0.3261  0.8195
 2724TIP3    H129731   7.010   0.472   0.277 -1.1534 -0.1572  2.2680
 2724TIP3    H229732   7.000   0.615   0.229  0.6463 -0.6037  0.3791
 2725TIP3   OH229733   5.479   3.124   7.087  0.2463 -0.0792  0.4051
 2725TIP3    H129734   5.504   3.209   7.051 -0.3608 -0.7487 -1.7202
 2725TIP3    H229735   5.562   3.079   7.104  0.5512  0.2656 -0.1611
 2726TIP3   OH229736   0.668   0.412   7.152 -0.7094 -0.5217  0.2916
 2726TIP3    H129737   0.751   0.443   7.117  0.0811 -1.6606  1.0693
 2726TIP3    H229738   0.657   0.325   7.114 -2.3310  0.1924 -0.9957
 2727TIP3   OH229739   6.706   2.318   6.396 -0.4791 -0.2975 -0.0096
 2727TIP3    H129740   6.638   2.300   6.460  0.8027 -0.0724  1.4867
 2727TIP3    H229741   6.731   2.409   6.412 -0.5205 -0.0538 -1.2367
 2728TIP3   OH229742   2.984   1.689   0.735 -0.0811  0.0462  0.1828
 2728TIP3    H129743   2.985   1.760   0.670 -2.0404  0.0765  0.1327
 2728TIP3    H229744   3.050   1.715   0.799  2.0791 -0.0969 -1.8467
 2729TIP3   OH229745   0.858   5.885   7.197  0.0687 -0.3339 -0.0427
 2729TIP3    H129746   0.837   5.878   7.290  1.3046 -1.0938  0.2010
 2729TIP3    H229747   0.886   5.797   7.172 -1.7203 -0.5464 -1.5342
 2730TIP3   OH229748   2.787   3.240   7.515  0.3136  0.6493  0.1104
 2730TIP3    H129749   2.738   3.321   7.529  1.9037  1.2711  2.9157
 2730TIP3    H229750   2.874   3.258   7.551  1.3035 -1.7418 -0.8408
 2731TIP3   OH229751   0.799   1.890   7.908 -0.0160 -0.0054  0.2371
 2731TIP3    H129752   0.769   1.900   7.998 -1.5763 -1.6089 -0.0704
 2731TIP3    H229753   0.725   1.916   7.854  0.5846  0.0383 -0.6009
 2732TIP3   OH229754   6.965   3.097   8.002 -0.1736  0.0100 -0.2746
 2732TIP3    H129755   6.962   3.028   8.068  0.8589  1.9916  1.9702
 2732TIP3    H229756   6.877   3.135   8.002 -0.8604 -1.4122 -1.7837
 2733TIP3   OH229757   3.928   5.883   0.817 -0.0601 -0.1575  0.4045
 2733TIP3    H129758   3.903   5.833   0.740 -0.2598  1.0127 -0.3143
 2733TIP3    H229759   4.002   5.834   0.854 -0.4632 -1.1532 -0.0620
 2734TIP3   OH229760   2.414   6.118   1.196  0.6826  0.4997  0.3535
 2734TIP3    H129761   2.341   6.068   1.159  1.1290 -0.6159  0.9232
 2734TIP3    H229762   2.373   6.177   1.259  0.1867  0.4582  0.0731
 2735TIP3   OH229763   2.323   0.177   7.345  0.0377  0.2669 -0.0915
 2735TIP3    H129764   2.393   0.128   7.303 -0.0802  0.0957 -0.0895
 2735TIP3    H229765   2.363   0.214   7.423  0.0512 -0.0755  0.0667
 2736TIP3   OH229766   4.075   1.762   6.332 -0.2154  0.6135  0.0798
 2736TIP3    H129767   4.009   1.693   6.342  0.7961 -0.3686  0.2817
 2736TIP3    H229768   4.047   1.812   6.256 -0.8194 -0.2006 -0.2475
 2737TIP3   OH229769   0.604   5.593   7.646 -0.2361 -0.0216 -0.5468
 2737TIP3    H129770   0.584   5.624   7.735 -1.4748  3.3739 -1.8210
 2737TIP3    H229771   0.694   5.623   7.630  0.7426 -2.3854  0.1467
 2738TIP3   OH229772   1.775   6.007   0.698  0.4913  0.0630  0.4427
 2738TIP3    H129773   1.746   5.971   0.615  0.4455  0.1906  0.4039
 2738TIP3    H229774   1.870   5.997   0.697  0.4731 -0.1031  0.4531
 2739TIP3   OH229775   0.589   5.034   0.266  0.2855 -0.2626 -0.6085
 2739TIP3    H129776   0.494   5.027   0.255  0.2290  1.2232 -1.4428
 2739TIP3    H229777   0.612   4.966   0.329 -1.5306  0.2411  0.6620
 2740TIP3   OH229778   6.927   6.087   7.467  0.0365 -0.7426  0.4267
 2740TIP3    H129779   6.938   5.992   7.467 -0.1977 -0.7678  0.1591
 2740TIP3    H229780   6.832   6.101   7.467  0.0089 -0.5149 -1.9318
 2741TIP3   OH229781   3.928   7.147   0.977  0.1923  0.6800  0.2503
 2741TIP3    H129782   4.010   7.149   1.027  0.0133 -0.3388  0.6076
 2741TIP3    H229783   3.937   7.220   0.914  1.7268  0.0816 -0.2849
 2742TIP3   OH229784   7.031   5.708   1.299  0.0160  0.2502 -0.1192
 2742TIP3    H129785   7.120   5.674   1.305  0.1472  0.7628  1.2035
 2742TIP3    H229786   7.041   5.792   1.254  0.0490 -0.1433 -0.8728
 2743TIP3   OH229787   6.431   3.232   7.461  0.2218 -0.3847  0.0267
 2743TIP3    H129788   6.384   3.255   7.541  1.3633 -0.6519  0.7935
 2743TIP3    H229789   6.366   3.245   7.391 -1.6138 -2.6238  1.1944
 2744TIP3   OH229790   6.939   6.171   1.399  0.1520  0.5261  0.2563
 2744TIP3    H129791   6.859   6.220   1.417  0.5206  0.9630  0.7384
 2744TIP3    H229792   6.977   6.154   1.486  0.4258  0.0553  0.0530
 2745TIP3   OH229793   3.402   5.159   8.028  0.1678  0.2204 -0.5249
 2745TIP3    H129794   3.412   5.116   7.944 -0.3185 -0.3557 -0.2977
 2745TIP3    H229795   3.323   5.119   8.066  0.2136  0.6827  0.0693
 2746TIP3   OH229796   3.477   4.508   6.279  0.4497  0.1474  0.0722
 2746TIP3    H129797   3.416   4.564   6.231 -0.0356  0.4901  1.0649
 2746TIP3    H229798   3.504   4.560   6.354 -0.5244 -1.1439  1.3847
 2747TIP3   OH229799   3.936   1.884   0.648  0.1199  0.3377 -0.2301
 2747TIP3    H129800   4.000   1.948   0.615  0.9098 -0.6291 -0.6248
 2747TIP3    H229801   3.927   1.821   0.577  0.2073 -0.5994  0.5724
 2748TIP3   OH229802   0.083   4.536   7.633  0.2200 -0.3416  0.1849
 2748TIP3    H129803   0.055   4.580   7.552 -0.1410  1.1516  1.0835
 2748TIP3    H229804   0.174   4.563   7.645  0.4851 -1.1000 -0.0562
 2749TIP3   OH229805   4.247   3.718   7.248 -0.3019 -0.0108  0.0193
 2749TIP3    H129806   4.252   3.653   7.178  0.3657 -1.1796  1.1104
 2749TIP3    H229807   4.232   3.667   7.328  0.0745  1.1835  0.8886
 2750TIP3   OH229808   2.881   5.437   1.474 -0.3020  0.4277  0.0211
 2750TIP3    H129809   2.833   5.472   1.549  0.3859 -0.0906  0.7164
 2750TIP3    H229810   2.930   5.511   1.440  2.1294  0.0128  2.2385
 2751TIP3   OH229811   0.904   0.953   7.024 -0.9252 -0.4897  0.1828
 2751TIP3    H129812   0.853   0.917   7.096  1.1785 -3.6131  0.3126
 2751TIP3    H229813   0.850   0.939   6.947 -1.5460 -0.8705  0.6762
 2752TIP3   OH229814   2.396   0.128   7.671 -0.1945  0.3475  0.3645
 2752TIP3    H129815   2.322   0.098   7.618  0.4978 -1.6594  0.4568
 2752TIP3    H229816   2.381   0.090   7.757  0.0805  1.3707  0.8811
 2753TIP3   OH229817   4.717   5.731   6.552  0.2725 -0.2240  0.7433
 2753TIP3    H129818   4.727   5.826   6.543 -0.1312 -0.2541 -0.0776
 2753TIP3    H229819   4.623   5.715   6.543  0.4496 -0.8067 -0.2923
 2754TIP3   OH229820   0.798   6.326   7.623  0.0867  0.0639  0.9196
 2754TIP3    H129821   0.846   6.280   7.554 -0.2547 -0.6098  1.1195
 2754TIP3    H229822   0.767   6.406   7.581  1.1668  0.4029  0.7182
 2755TIP3   OH229823   1.123   3.613   7.480  0.1679 -0.4598  0.3615
 2755TIP3    H129824   1.197   3.553   7.471  1.3217  0.6331  2.0425
 2755TIP3    H229825   1.074   3.580   7.555  0.4476  0.3188  0.8961
 2756TIP3   OH229826   1.706   6.806   0.341 -0.3114 -0.1648  0.3131
 2756TIP3    H129827   1.647   6.744   0.299 -1.1299 -0.2791  1.5686
 2756TIP3    H229828   1.689   6.796   0.435  1.6488 -0.1503  0.7291
 2757TIP3   OH229829   4.755   4.539   1.089  0.2188 -0.3027 -0.4319
 2757TIP3    H129830   4.821   4.566   1.153 -1.5017  1.5981  0.6838
 2757TIP3    H229831   4.683   4.505   1.142  0.1920 -2.2402 -1.6106
 2758TIP3   OH229832   4.521   1.178   7.178 -0.4044 -0.0797  0.2350
 2758TIP3    H129833   4.499   1.144   7.092  0.5989  1.0708 -0.5034
 2758TIP3    H229834   4.518   1.273   7.168  2.3093  0.1262  0.7300
 2759TIP3   OH229835   2.162   0.497   7.405 -0.2216 -0.5383 -0.3144
 2759TIP3    H129836   2.142   0.410   7.370 -0.9336 -0.1529 -0.9137
 2759TIP3    H229837   2.252   0.491   7.436 -0.4008 -1.6098  0.0435
 2760TIP3   OH229838   4.710   0.159   7.824 -0.2875  0.2963 -0.0510
 2760TIP3    H129839   4.708   0.139   7.731 -0.2274 -0.6953  0.1529
 2760TIP3    H229840   4.800   0.139   7.850  0.1558  2.0731 -0.0868
 2761TIP3   OH229841   4.022   2.276   0.918 -0.0980  0.4341  0.5182
 2761TIP3    H129842   4.029   2.324   1.000 -0.1131 -1.1340  1.4711
 2761TIP3    H229843   4.099   2.303   0.868 -0.6392  2.2245  0.5431
 2762TIP3   OH229844   3.947   0.615   7.939  0.4645 -0.3106  0.3310
 2762TIP3    H129845   4.000   0.689   7.909 -0.4915  0.0293 -0.5632
 2762TIP3    H229846   3.941   0.626   8.034  1.4416 -0.0007  0.3673
 2763TIP3   OH229847   1.739   7.008   7.547 -0.1105  0.7481 -0.2305
 2763TIP3    H129848   1.696   7.087   7.513 -1.2516  0.5201  0.6246
 2763TIP3    H229849   1.681   6.936   7.522 -0.3795  0.4596  1.1528
 2764TIP3   OH229850   4.571   1.678   0.818  0.1909 -0.1821 -0.0740
 2764TIP3    H129851   4.661   1.646   0.825 -0.4035 -1.9723 -0.0446
 2764TIP3    H229852   4.550   1.711   0.906  1.0842  1.0821 -0.3140
 2765TIP3   OH229853   4.194   6.720   7.413  0.2104 -0.5022 -0.0431
 2765TIP3    H129854   4.163   6.792   7.468 -1.0763 -0.8196 -0.3000
 2765TIP3    H229855   4.159   6.641   7.456  1.0231 -0.9258 -0.1343
 2766TIP3   OH229856   1.538   0.060   6.681 -0.3281  0.1843 -0.0472
 2766TIP3    H129857   1.463   0.012   6.645  0.3192 -1.3960  0.6734
 2766TIP3    H229858   1.526   0.055   6.775  0.4335  0.3464  0.0608
 2767TIP3   OH229859   1.565   6.281   1.374  0.1413  0.1554  0.2675
 2767TIP3    H129860   1.567   6.317   1.462 -0.8792 -1.1922  0.8824
 2767TIP3    H229861   1.529   6.193   1.385  2.6964 -1.1750 -1.1002
 2768TIP3   OH229862   0.128   1.835   1.680 -0.3288 -0.3191  0.6019
 2768TIP3    H129863   0.105   1.924   1.653 -1.7039 -1.2712 -1.6107
 2768TIP3    H229864   0.051   1.802   1.725  0.1806 -0.4050  1.4287
 2769TIP3   OH229865   5.113   6.081   0.255  0.0948  0.8380  0.6617
 2769TIP3    H129866   5.154   6.048   0.335  0.7049  0.1642  0.0910
 2769TIP3    H229867   5.175   6.058   0.185 -1.3757 -0.5011 -0.2809
 2770TIP3   OH229868   2.697   0.184   7.662 -0.8869  0.1097 -0.7482
 2770TIP3    H129869   2.605   0.160   7.656 -0.4706 -1.4849 -1.3174
 2770TIP3    H229870   2.733   0.161   7.576 -0.1547  1.6834 -0.9030
 2771TIP3   OH229871   2.251   5.599   1.693 -0.3152  0.0589 -0.1650
 2771TIP3    H129872   2.199   5.534   1.739 -0.2511  0.6195  0.7439
 2771TIP3    H229873   2.283   5.657   1.763 -0.2640  0.9774 -0.9298
 2772TIP3   OH229874   2.024   7.143   7.384 -0.1584  0.4749 -0.4864
 2772TIP3    H129875   1.930   7.133   7.396  0.0641 -1.4046  0.1666
 2772TIP3    H229876   2.034   7.186   7.299 -1.5944  0.9156 -0.4537
 2773TIP3   OH229877   1.070   3.829   1.328 -0.0579 -0.2050  0.4107
 2773TIP3    H129878   0.995   3.871   1.369  0.4482 -0.8810  2.1152
 2773TIP3    H229879   1.123   3.797   1.401  0.6731 -1.8563 -0.7694
 2774TIP3   OH229880   5.952   1.146   5.838 -0.0424  0.0964 -0.3658
 2774TIP3    H129881   5.914   1.068   5.798 -0.0826 -0.6847  1.1036
 2774TIP3    H229882   6.008   1.112   5.908  0.8999  1.3538 -0.4617
 2775TIP3   OH229883   2.957   5.836   1.711  0.2039 -0.3608 -0.2405
 2775TIP3    H129884   2.874   5.823   1.664 -0.3558  0.3348  0.5421
 2775TIP3    H229885   3.012   5.763   1.682 -1.1165 -1.5804  0.1895
 2776TIP3   OH229886   6.762   5.295   7.622  0.3331 -0.2833  0.7161
 2776TIP3    H129887   6.668   5.276   7.619  0.0727  0.8828 -2.2887
 2776TIP3    H229888   6.797   5.234   7.686 -2.0665 -2.7224 -0.0950
 2777TIP3   OH229889   6.833   3.141   6.307 -0.3492 -0.4279  0.3387
 2777TIP3    H129890   6.824   3.050   6.279 -0.6388  0.1202 -1.4663
 2777TIP3    H229891   6.746   3.167   6.336 -0.4868 -0.4621 -0.0364
 2778TIP3   OH229892   6.746   0.412   0.646  0.8340  0.4814  0.1162
 2778TIP3    H129893   6.795   0.474   0.700  1.8677  0.0914 -0.3484
 2778TIP3    H229894   6.772   0.326   0.679 -0.2980  0.2685  0.5028
 2779TIP3   OH229895   4.594   6.251   0.413  0.5183 -0.0867 -0.1534
 2779TIP3    H129896   4.615   6.215   0.327 -0.3495  0.7208 -0.7250
 2779TIP3    H229897   4.678   6.255   0.458  0.8808 -1.1684 -0.7065
 2780TIP3   OH229898   3.658   0.730   7.348  0.1474 -0.0388 -0.6735
 2780TIP3    H129899   3.669   0.672   7.272 -0.0824  0.5966 -1.2062
 2780TIP3    H229900   3.563   0.735   7.359  0.1616  0.3074 -0.6940
 2781TIP3   OH229901   3.383   5.214   1.371 -0.0830  0.3143  0.4465
 2781TIP3    H129902   3.377   5.120   1.389 -1.8239 -0.3285 -2.7428
 2781TIP3    H229903   3.476   5.234   1.372  0.3324 -1.5236  0.8384
 2782TIP3   OH229904   3.399   3.748   7.049 -0.1801  0.1556  0.1759
 2782TIP3    H129905   3.402   3.794   7.133  1.0718 -0.4724  0.5057
 2782TIP3    H229906   3.373   3.659   7.071  2.6563 -0.7514  0.3250
 2783TIP3   OH229907   1.715   2.883   6.398  0.2282  0.3353 -0.3053
 2783TIP3    H129908   1.712   2.949   6.328 -0.5508 -0.4356 -1.0234
 2783TIP3    H229909   1.708   2.799   6.353  0.1462 -0.1988  0.6680
 2784TIP3   OH229910   5.492   6.036   5.708 -0.6144  0.0023 -0.4315
 2784TIP3    H129911   5.403   6.064   5.684  0.1306  1.5430 -1.5889
 2784TIP3    H229912   5.491   5.941   5.699 -2.1716 -0.0170 -0.3186
 2785TIP3   OH229913   1.566   0.433   6.064 -0.4832  0.6670 -0.0233
 2785TIP3    H129914   1.572   0.375   5.988  1.2668  1.2317 -0.3652
 2785TIP3    H229915   1.504   0.502   6.038 -0.2411  0.6057 -0.7662
 2786TIP3   OH229916   3.166   2.460   7.175 -0.1914 -0.1485  0.4873
 2786TIP3    H129917   3.180   2.367   7.192 -3.2897 -0.6550  0.8597
 2786TIP3    H229918   3.185   2.503   7.258  0.1887 -0.5894  0.6320
 2787TIP3   OH229919   4.985   2.807   7.294 -0.0569  0.3410  0.2712
 2787TIP3    H129920   5.045   2.854   7.237  0.5149  0.2497  0.7918
 2787TIP3    H229921   5.039   2.742   7.339 -0.1875  1.3655  1.9929
 2788TIP3   OH229922   0.447   4.053   7.383 -0.3108  0.3939  0.2889
 2788TIP3    H129923   0.522   4.017   7.430 -1.2376  2.3083  3.5187
 2788TIP3    H229924   0.392   3.977   7.364 -0.2886 -0.4733  3.1983
 2789TIP3   OH229925   5.110   4.319   0.771 -0.1085 -0.2721  0.2883
 2789TIP3    H129926   5.165   4.363   0.836 -0.2805 -0.1115  0.3241
 2789TIP3    H229927   5.149   4.342   0.687 -0.2302 -0.0058  0.3034
 2790TIP3   OH229928   5.471   2.380   0.577  0.8241  0.1945 -0.2883
 2790TIP3    H129929   5.489   2.470   0.604  1.8938 -0.5231  1.5439
 2790TIP3    H229930   5.377   2.368   0.591  0.5216  1.2356 -1.2896
 2791TIP3   OH229931   5.854   6.830   1.359 -0.1580  0.2015 -0.2017
 2791TIP3    H129932   5.807   6.758   1.400 -1.6030  0.6169 -1.0364
 2791TIP3    H229933   5.791   6.867   1.297  1.1778  1.0164 -1.1252
 2792TIP3   OH229934   4.430   5.524   6.789  0.2005 -0.1449  0.1795
 2792TIP3    H129935   4.360   5.578   6.826  0.1351  0.4224 -0.7327
 2792TIP3    H229936   4.386   5.469   6.725  0.1283 -1.9199  1.6674
 2793TIP3   OH229937   4.900   2.461   6.893 -0.3311 -0.1353 -0.0100
 2793TIP3    H129938   4.905   2.455   6.797 -0.5389 -0.4117 -0.0045
 2793TIP3    H229939   4.821   2.412   6.916 -0.4647  0.2134  0.2793
 2794TIP3   OH229940   3.876   3.249   6.136 -0.3799 -0.1496 -0.4997
 2794TIP3    H129941   3.832   3.296   6.207 -0.3104 -0.5181 -0.2105
 2794TIP3    H229942   3.967   3.280   6.138 -0.5094  0.2572 -0.7917
 2795TIP3   OH229943   6.176   6.190   6.640 -0.1202  0.4903 -0.2231
 2795TIP3    H129944   6.166   6.226   6.552  0.0936 -0.0766 -0.4868
 2795TIP3    H229945   6.158   6.263   6.699 -1.3533  0.6085 -0.7220
 2796TIP3   OH229946   4.277   3.043   7.156 -0.0355  0.1452  0.5774
 2796TIP3    H129947   4.346   2.976   7.161 -0.5577 -0.4604 -0.0058
 2796TIP3    H229948   4.244   3.050   7.245  1.0234  0.7149  0.9403
 2797TIP3   OH229949   0.815   3.430   6.299  0.3802 -0.1003 -0.5863
 2797TIP3    H129950   0.817   3.522   6.322  0.9747 -0.0280 -0.9252
 2797TIP3    H229951   0.855   3.385   6.373  3.5734  0.2468 -1.9730
 2798TIP3   OH229952   6.908   3.011   7.571 -0.2337  0.3222  0.2373
 2798TIP3    H129953   6.970   2.959   7.520  0.6001 -0.6820  2.1613
 2798TIP3    H229954   6.962   3.070   7.623 -0.6962 -1.3215  2.7806
 2799TIP3   OH229955   2.231   4.762   0.317 -0.5653 -0.1049 -0.5190
 2799TIP3    H129956   2.182   4.801   0.245 -1.2018 -1.8076 -1.0541
 2799TIP3    H229957   2.234   4.668   0.296  2.8811 -0.1366 -0.4893
 2800TIP3   OH229958   3.059   2.436   6.004 -0.1654 -0.3200  0.0934
 2800TIP3    H129959   2.969   2.445   5.972  0.1740  0.1256 -0.7835
 2800TIP3    H229960   3.089   2.526   6.018 -0.9477 -0.4837  3.7212
 2801TIP3   OH229961   3.002   2.416   2.326 -0.3471 -0.3806  0.3824
 2801TIP3    H129962   2.913   2.452   2.326 -0.4091 -0.4998  1.2797
 2801TIP3    H229963   3.006   2.364   2.406  0.2758 -1.0376 -0.0650
 2802TIP3   OH229964   6.469   4.812   6.415 -0.2150  0.0007  0.8683
 2802TIP3    H129965   6.559   4.793   6.441  0.0040  1.4679  1.2827
 2802TIP3    H229966   6.478   4.858   6.331 -0.8187 -3.1343 -1.0664
 2803TIP3   OH229967   5.028   3.059   1.312  0.4613 -0.2899 -0.6136
 2803TIP3    H129968   5.100   3.122   1.318 -1.1780  1.6530 -0.5503
 2803TIP3    H229969   5.068   2.981   1.272  2.6434  0.6069 -0.3294
 2804TIP3   OH229970   3.025   1.126   1.126  0.0903 -1.5813  0.2886
 2804TIP3    H129971   2.957   1.103   1.062 -1.3220 -0.3476  1.2827
 2804TIP3    H229972   3.004   1.072   1.203  1.7450 -3.0161 -0.2120
 2805TIP3   OH229973   7.076   4.530   6.323  0.5588 -0.0747 -0.0085
 2805TIP3    H129974   7.138   4.563   6.388 -0.2709  1.3276  0.1124
 2805TIP3    H229975   7.087   4.587   6.248  0.5747 -0.8630 -0.6233
 2806TIP3   OH229976   0.341   4.589   7.042  0.3017 -0.5390 -0.4013
 2806TIP3    H129977   0.273   4.619   7.102 -1.4881 -0.6163 -2.2819
 2806TIP3    H229978   0.333   4.494   7.041  0.1694 -0.5254 -0.9216
 2807TIP3   OH229979   5.781   7.120   0.649  0.0030 -0.4261 -0.3346
 2807TIP3    H129980   5.758   7.191   0.709 -0.3631 -1.3752  0.7131
 2807TIP3    H229981   5.827   7.162   0.577 -0.2479  0.8670  0.2293
 2808TIP3   OH229982   6.549   4.084   7.091 -0.1932  0.0555  0.0073
 2808TIP3    H129983   6.570   3.998   7.054 -0.9577 -0.1450  0.0135
 2808TIP3    H229984   6.534   4.067   7.184  2.1079  0.6203  0.5484
 2809TIP3   OH229985   7.165   3.454   5.785 -0.3906  0.2314 -0.2519
 2809TIP3    H129986   7.163   3.550   5.786 -0.9521  0.2208  0.1476
 2809TIP3    H229987   7.154   3.430   5.693  0.8744  0.5664 -0.5068
 2810TIP3   OH229988   0.607   4.624   7.237  0.1099 -0.4369  0.1597
 2810TIP3    H129989   0.539   4.610   7.303 -0.7020  1.0118 -0.3299
 2810TIP3    H229990   0.578   4.701   7.189  1.1365 -0.9435 -1.3271
 2811TIP3   OH229991   0.505   2.650   0.612 -0.5222 -0.2712 -0.2385
 2811TIP3    H129992   0.531   2.560   0.632  0.4951  0.2816  1.0426
 2811TIP3    H229993   0.560   2.704   0.668 -0.3688  1.2128 -1.7351
 2812TIP3   OH229994   2.908   2.220   1.426  0.3304 -0.0949  0.1518
 2812TIP3    H129995   2.921   2.305   1.468 -2.1805  1.1215 -1.3034
 2812TIP3    H229996   2.884   2.161   1.498 -0.7201  1.1407  0.8529
 2813TIP3   OH229997   1.186   4.454   0.763 -0.1629  0.6974 -0.3084
 2813TIP3    H129998   1.211   4.402   0.839  0.7616  1.2121 -0.2493
 2813TIP3    H229999   1.094   4.430   0.747 -0.3887  0.6237  0.9950
 2814TIP3   OH230000   2.984   1.598   6.282 -0.2617 -0.1701 -0.1630
 2814TIP3    H130001   2.979   1.676   6.228  1.0481 -0.3031 -0.5091
 2814TIP3    H230002   2.947   1.528   6.227 -0.5411  0.0165 -0.2144
 2815TIP3   OH230003   3.326   2.985   7.027  0.5240 -0.0832 -0.4317
 2815TIP3    H130004   3.270   3.040   6.972  1.5103  0.9216 -0.4558
 2815TIP3    H230005   3.304   2.895   7.000 -1.9497  0.1831  0.4138
 2816TIP3   OH230006   6.264   0.355   0.455  0.1191 -0.4507 -0.0162
 2816TIP3    H130007   6.352   0.393   0.458 -0.2749  0.5359 -0.3379
 2816TIP3    H230008   6.262   0.305   0.373  1.4180 -3.2360  1.5239
 2817TIP3   OH230009   2.583   2.188   7.101 -0.1998  0.3079 -0.1189
 2817TIP3    H130010   2.542   2.168   7.185 -1.2431 -1.6289 -1.0377
 2817TIP3    H230011   2.554   2.277   7.082 -1.3175  0.1688  0.7943
 2818TIP3   OH230012   6.572   3.397   6.201 -0.3982  0.5877 -0.5345
 2818TIP3    H130013   6.478   3.381   6.194  0.0357 -1.7815 -1.7965
 2818TIP3    H230014   6.600   3.348   6.278  0.1165 -0.4626 -1.3704
 2819TIP3   OH230015   5.628   2.675   0.891 -0.2350 -0.4112 -0.5063
 2819TIP3    H130016   5.722   2.695   0.894 -0.2203 -0.5328 -0.0179
 2819TIP3    H230017   5.610   2.635   0.976 -1.6451  3.5970  1.3568
 2820TIP3   OH230018   4.198   0.073   1.648 -0.5462  1.0489 -0.4618
 2820TIP3    H130019   4.118   0.051   1.695  0.8062 -1.5815  0.7912
 2820TIP3    H230020   4.259   0.100   1.716  0.2528  1.0036 -1.1535
 2821TIP3   OH230021   1.331   2.994   0.479 -0.1324 -0.8543 -0.6864
 2821TIP3    H130022   1.326   3.057   0.551  1.1175  1.0003 -2.1278
 2821TIP3    H230023   1.325   2.909   0.521 -1.5853  0.1910  1.3850
 2822TIP3   OH230024   1.731   5.437   1.805 -0.2256  0.2447 -0.5928
 2822TIP3    H130025   1.748   5.348   1.775 -1.6174  0.0611 -0.9094
 2822TIP3    H230026   1.771   5.442   1.892  0.2531 -0.5288 -0.7583
 2823TIP3   OH230027   6.402   1.578   1.145  0.2033  0.2748  0.3865
 2823TIP3    H130028   6.311   1.588   1.174  0.3639  0.5650  0.8088
 2823TIP3    H230029   6.454   1.596   1.224  0.6972  2.2604 -0.3304
 2824TIP3   OH230030   1.166   5.549   6.584  0.6179 -0.2125 -0.3558
 2824TIP3    H130031   1.206   5.501   6.657 -1.3139 -0.2802  0.7115
 2824TIP3    H230032   1.128   5.481   6.528 -0.8886 -0.0321  0.4142
 2825TIP3   OH230033   0.465   6.755   1.163  0.6630  0.0376  0.5684
 2825TIP3    H130034   0.518   6.695   1.215 -1.8029 -1.6161  1.3692
 2825TIP3    H230035   0.394   6.701   1.129 -1.2318  2.3276  0.6188
 2826TIP3   OH230036   4.742   3.356   0.291 -0.0067  0.4510  0.2418
 2826TIP3    H130037   4.688   3.419   0.339  0.8225  0.6619  0.9161
 2826TIP3    H230038   4.707   3.270   0.317 -0.1530  0.5916  0.5143
 2827TIP3   OH230039   1.687   1.125   0.108 -0.1770  0.4872 -0.3159
 2827TIP3    H130040   1.595   1.109   0.131  0.0903 -1.7406 -0.5522
 2827TIP3    H230041   1.737   1.063   0.162  1.0269  0.4144 -1.4570
 2828TIP3   OH230042   2.152   3.232   1.623 -0.3490  0.0089  0.3276
 2828TIP3    H130043   2.217   3.221   1.553 -2.1592  1.7923 -1.7963
 2828TIP3    H230044   2.166   3.322   1.654 -2.1242  0.6898 -0.6611
 2829TIP3   OH230045   4.005   1.371   6.803 -0.2041  0.6895 -0.1537
 2829TIP3    H130046   3.942   1.397   6.736  0.2290 -0.5069 -1.0662
 2829TIP3    H230047   3.992   1.433   6.874 -3.2409 -0.2111  0.2069
 2830TIP3   OH230048   3.523   4.226   6.235 -0.0574 -0.3575  0.9495
 2830TIP3    H130049   3.616   4.246   6.222  0.1688 -2.0915 -0.5180
 2830TIP3    H230050   3.477   4.302   6.199  0.7755  0.1180  0.8578
 2831TIP3   OH230051   3.499   6.821   6.124 -0.2792  0.5965  0.2868
 2831TIP3    H130052   3.420   6.801   6.074 -0.0045 -1.1018  0.4631
 2831TIP3    H230053   3.518   6.740   6.172  0.7184  1.4600  1.4151
 2832TIP3   OH230054   6.013   4.280   7.601 -0.1599 -0.2504  0.2324
 2832TIP3    H130055   5.928   4.243   7.626 -0.7714 -0.1100 -1.5231
 2832TIP3    H230056   5.993   4.338   7.528  1.5425 -0.8346 -0.7507
 2833TIP3   OH230057   6.194   4.948   7.837 -0.1690  0.3261 -0.7295
 2833TIP3    H130058   6.239   4.966   7.920 -1.5883  1.0905 -0.0750
 2833TIP3    H230059   6.242   5.000   7.773  0.2632  0.6502 -0.1610
 2834TIP3   OH230060   4.818   0.414   6.389 -0.5638 -0.4623  0.4277
 2834TIP3    H130061   4.807   0.495   6.439 -0.0005  0.0100 -0.1890
 2834TIP3    H230062   4.826   0.346   6.456  2.7372  0.4450  1.1713
 2835TIP3   OH230063   6.071   6.847   0.824  0.1909 -0.0182  0.1539
 2835TIP3    H130064   6.080   6.942   0.814  0.8655 -0.1034 -0.1233
 2835TIP3    H230065   5.977   6.832   0.831  0.1021  0.7207  0.7230
 2836TIP3   OH230066   3.521   4.924   7.581 -0.9750  0.5890 -0.1929
 2836TIP3    H130067   3.614   4.943   7.587 -1.2999  3.8102 -2.7530
 2836TIP3    H230068   3.517   4.828   7.576  1.9270  0.1953  2.1840
 2837TIP3   OH230069   1.422   1.682   0.233  0.0477  0.1933  0.0362
 2837TIP3    H130070   1.509   1.697   0.269  0.2964 -1.1496  0.0304
 2837TIP3    H230071   1.395   1.597   0.268 -0.8371  0.1142 -0.7817
 2838TIP3   OH230072   6.690   2.166   0.996  0.6881  0.3144 -0.5493
 2838TIP3    H130073   6.749   2.206   1.059 -0.1843 -0.5126  0.8395
 2838TIP3    H230074   6.694   2.073   1.016  0.5668  0.0032 -1.8892
 2839TIP3   OH230075   6.214   6.162   0.139  0.2517 -0.0462 -0.1723
 2839TIP3    H130076   6.160   6.238   0.117  1.7531  0.9532 -0.5036
 2839TIP3    H230077   6.184   6.136   0.226 -1.2892 -0.0115 -0.6646
 2840TIP3   OH230078   0.217   5.355   7.321  0.7013 -0.0367 -0.0026
 2840TIP3    H130079   0.256   5.429   7.368 -1.0788  0.6971  0.4187
 2840TIP3    H230080   0.285   5.326   7.261  2.4286  0.1397  1.7755
 2841TIP3   OH230081   5.898   2.357   7.672  0.1585  0.1154  0.3854
 2841TIP3    H130082   5.953   2.415   7.619 -1.3727 -0.0374 -1.4581
 2841TIP3    H230083   5.877   2.284   7.614  1.3242 -1.9414  2.3694
 2842TIP3   OH230084   5.703   6.630   1.433  0.4005  0.1421  0.2302
 2842TIP3    H130085   5.641   6.562   1.458 -0.1195  0.8352  0.8896
 2842TIP3    H230086   5.746   6.596   1.355 -0.7355 -0.4084 -0.1784
 2843TIP3   OH230087   2.375   4.357   0.412  0.2533 -0.6387  0.3188
 2843TIP3    H130088   2.348   4.288   0.472 -2.8543  1.0021  1.0533
 2843TIP3    H230089   2.376   4.316   0.326 -3.4576 -1.3585  0.4341
 2844TIP3   OH230090   5.322   1.941   6.878 -0.0226 -0.5526 -0.2301
 2844TIP3    H130091   5.396   1.913   6.931 -0.4502 -2.0091 -0.3469
 2844TIP3    H230092   5.245   1.912   6.927 -0.4806 -0.2053 -0.7311
 2845TIP3   OH230093   1.860   1.343   7.674  0.3834  0.6149 -0.2248
 2845TIP3    H130094   1.778   1.332   7.625  0.9700 -0.0222 -1.0775
 2845TIP3    H230095   1.847   1.293   7.755 -0.2641  0.9693 -0.0979
 2846TIP3   OH230096   2.352   3.158   1.140  0.0421  0.2381 -0.1055
 2846TIP3    H130097   2.263   3.191   1.151 -0.7284 -1.8227  0.3447
 2846TIP3    H230098   2.343   3.085   1.079  1.2857 -0.5242  0.5785
 2847TIP3   OH230099   5.353   5.663   1.236 -0.0307 -0.2706  0.1737
 2847TIP3    H130100   5.345   5.698   1.148  0.9473 -2.5018 -0.8607
 2847TIP3    H230101   5.445   5.636   1.244 -0.0526  0.0119  1.9448
 2848TIP3   OH230102   1.502   4.512   1.962  0.4900  0.1673  0.4039
 2848TIP3    H130103   1.425   4.470   1.924  1.1809 -0.4498 -0.3436
 2848TIP3    H230104   1.479   4.525   2.054 -0.8099  0.7514  0.0168
 2849TIP3   OH230105   5.828   3.921   7.405 -0.1825 -0.1026  0.3644
 2849TIP3    H130106   5.805   3.831   7.429  1.7115 -0.4337  1.0384
 2849TIP3    H230107   5.825   3.969   7.487  1.9074 -0.2668  0.5844
 2850TIP3   OH230108   7.143   2.973   0.686  0.0906 -0.5311 -0.0002
 2850TIP3    H130109   7.224   2.942   0.646 -0.7270 -1.6505 -0.8714
 2850TIP3    H230110   7.084   2.898   0.681 -0.6336 -0.1375  1.7185
 2851TIP3   OH230111   0.128   4.939   1.065  0.5054  0.1372 -0.0684
 2851TIP3    H130112   0.082   5.016   1.097  0.9495 -0.2500  1.6287
 2851TIP3    H230113   0.216   4.970   1.043  0.5146  0.2168  0.0839
 2852TIP3   OH230114   3.951   1.261   0.959  0.1904  0.8746 -0.2758
 2852TIP3    H130115   4.028   1.315   0.941 -0.5482  3.5264  3.3993
 2852TIP3    H230116   3.942   1.264   1.055 -2.4953 -2.2624 -0.2786
 2853TIP3   OH230117   0.244   1.904   7.591  0.4059 -0.6538 -0.2156
 2853TIP3    H130118   0.237   1.809   7.589 -0.1572 -0.6807  1.6128
 2853TIP3    H230119   0.273   1.925   7.680  1.0071  0.8698 -0.7279
 2854TIP3   OH230120   1.273   3.605   6.386  0.1777  0.1100 -0.3823
 2854TIP3    H130121   1.364   3.623   6.405  0.9011 -1.0016 -2.4302
 2854TIP3    H230122   1.245   3.677   6.329 -0.5489  0.9415  0.9656
 2855TIP3   OH230123   4.718   3.918   5.731 -0.1479 -0.5081 -0.3412
 2855TIP3    H130124   4.677   3.892   5.649 -1.0758 -0.4060  0.0853
 2855TIP3    H230125   4.762   4.000   5.710 -1.9882  0.5435 -0.2901
 2856TIP3   OH230126   4.929   2.568   6.110  1.0805  0.3186  0.2673
 2856TIP3    H130127   4.971   2.482   6.107  0.4865  0.0240  0.3238
 2856TIP3    H230128   4.836   2.550   6.099  0.7793  0.8166  1.7970
 2857TIP3   OH230129   0.178   2.737   6.749 -0.1730  0.0221  0.1655
 2857TIP3    H130130   0.102   2.681   6.737 -0.2517  0.1412  0.1118
 2857TIP3    H230131   0.252   2.676   6.757 -0.2220 -0.0807 -0.1677
 2858TIP3   OH230132   5.909   4.819   0.529  0.6545 -0.3966  0.5214
 2858TIP3    H130133   5.928   4.892   0.588  0.2290  0.1571 -0.0143
 2858TIP3    H230134   5.990   4.807   0.479  1.2327 -1.2769  1.6258
 2859TIP3   OH230135   5.591   0.433   6.562  0.2111  0.0619  0.0928
 2859TIP3    H130136   5.520   0.379   6.526  0.2834  0.0305 -0.0026
 2859TIP3    H230137   5.578   0.519   6.522  1.2938 -0.3952 -1.3620
 2860TIP3   OH230138   4.691   4.612   7.539 -1.1116  0.3534 -0.3869
 2860TIP3    H130139   4.751   4.594   7.466 -0.6196 -0.7625  0.2567
 2860TIP3    H230140   4.629   4.538   7.537 -1.7807  0.9039 -0.3516
 2861TIP3   OH230141   5.814   4.434   7.088 -0.2907  0.0137 -0.0128
 2861TIP3    H130142   5.728   4.466   7.063 -0.5778 -0.5139  0.2833
 2861TIP3    H230143   5.849   4.394   7.009  0.2835  1.4743 -0.5315
 2862TIP3   OH230144   2.630   1.093   6.304 -0.1025 -0.8535 -0.0794
 2862TIP3    H130145   2.684   1.165   6.336  1.1051 -2.0630  0.6868
 2862TIP3    H230146   2.629   1.104   6.209  1.3083 -0.6605 -0.0931
 2863TIP3   OH230147   3.829   6.462   0.415 -0.4506  0.1380 -0.2797
 2863TIP3    H130148   3.893   6.398   0.445 -0.3866  1.0015  1.5815
 2863TIP3    H230149   3.880   6.541   0.396 -0.6951  0.1162 -1.0380
 2864TIP3   OH230150   6.848   5.136   7.805  0.0215  0.0130 -0.1064
 2864TIP3    H130151   6.760   5.107   7.829  0.3419 -1.7403 -0.8801
 2864TIP3    H230152   6.890   5.155   7.888 -0.8103  0.0221  0.3253
 2865TIP3   OH230153   2.778   2.253   6.420 -0.5890  0.1796 -1.0767
 2865TIP3    H130154   2.695   2.208   6.433 -0.5593  0.3683 -0.1471
 2865TIP3    H230155   2.783   2.268   6.326 -2.4980  1.8035 -0.9915
 2866TIP3   OH230156   2.318   3.034   0.107 -0.6301  0.4212 -0.1851
 2866TIP3    H130157   2.331   3.088   0.029 -0.5083  1.0095  0.2325
 2866TIP3    H230158   2.243   2.978   0.085  0.3739 -0.5303 -1.2923
 2867TIP3   OH230159   1.478   6.885   7.829 -0.2722  0.2406 -0.0688
 2867TIP3    H130160   1.539   6.925   7.766 -0.8211 -0.7982 -1.3110
 2867TIP3    H230161   1.510   6.914   7.914  1.5852  0.2504 -0.7071
 2868TIP3   OH230162   5.597   2.640   1.535 -0.4618  0.7687 -1.0149
 2868TIP3    H130163   5.540   2.645   1.459  1.4927 -0.5736 -2.6757
 2868TIP3    H230164   5.684   2.665   1.503  0.0718  2.3032  1.3029
 2869TIP3   OH230165   2.640   5.691   6.904  0.5718 -0.2711  0.0324
 2869TIP3    H130166   2.661   5.607   6.864 -2.7900 -1.7322  0.9919
 2869TIP3    H230167   2.568   5.726   6.851  1.3985  1.6773  0.1133
 2870TIP3   OH230168   1.189   1.271   6.882 -0.0830 -0.2232  0.2609
 2870TIP3    H130169   1.171   1.365   6.889 -2.7784 -0.3688 -2.5591
 2870TIP3    H230170   1.136   1.232   6.951  0.6210  0.2274  1.0877
 2871TIP3   OH230171   5.208   3.840   0.995  0.1021  0.6266 -1.0785
 2871TIP3    H130172   5.201   3.866   0.903 -0.0342  1.5562 -0.8108
 2871TIP3    H230173   5.129   3.876   1.036 -0.0560 -0.1595 -0.6822
 2872TIP3   OH230174   1.376   0.163   6.381 -0.3977 -0.3546  0.0737
 2872TIP3    H130175   1.464   0.185   6.412 -0.6325 -1.4662  1.6542
 2872TIP3    H230176   1.334   0.248   6.366  0.5403  0.1961  0.4908
 2873TIP3   OH230177   4.446   3.879   0.512  0.4916  0.2700 -0.7719
 2873TIP3    H130178   4.486   3.908   0.430  0.0258  0.2486 -1.0102
 2873TIP3    H230179   4.498   3.922   0.581  0.2682  1.0987 -1.1014
 2874TIP3   OH230180   4.797   1.091   1.813 -0.1162  0.4058  0.1629
 2874TIP3    H130181   4.721   1.043   1.845  0.5331  0.0919  1.2786
 2874TIP3    H230182   4.770   1.183   1.817 -0.8406  0.2409 -0.5794
 2875TIP3   OH230183   4.384   4.819   5.619  0.0541  0.3835  0.0215
 2875TIP3    H130184   4.391   4.803   5.525 -4.8295 -1.2593 -0.3545
 2875TIP3    H230185   4.459   4.773   5.657  0.8922 -0.9082 -2.9301
 2876TIP3   OH230186   1.873   6.664   6.731  0.1502  0.1063 -0.1739
 2876TIP3    H130187   1.868   6.723   6.656 -1.6449 -0.6134 -0.6736
 2876TIP3    H230188   1.966   6.655   6.748  0.5243  2.2314 -0.7357
 2877TIP3   OH230189   0.008   2.863   1.970 -0.1480 -0.1046 -0.0917
 2877TIP3    H130190  -0.084   2.858   1.996  0.1003 -0.8807  0.6559
 2877TIP3    H230191   0.009   2.833   1.879 -0.8114  1.2325 -0.5728
 2878TIP3   OH230192   1.879   0.929   6.953 -0.2406  0.6031  0.3727
 2878TIP3    H130193   1.829   0.942   6.872 -0.7491  0.8561  0.7200
 2878TIP3    H230194   1.818   0.952   7.023  1.0316  3.1410  0.7458
 2879TIP3   OH230195   6.466   6.684   1.177  0.2927 -0.0457 -0.2480
 2879TIP3    H130196   6.484   6.736   1.256 -0.5062 -1.1118  0.6684
 2879TIP3    H230197   6.502   6.736   1.105 -1.1350  2.1444  0.5309
 2880TIP3   OH230198   4.891   6.335   8.034  0.2082  0.2194 -0.0412
 2880TIP3    H130199   4.859   6.276   7.966  0.0263  0.9122 -0.5592
 2880TIP3    H230200   4.986   6.337   8.022  0.4557 -1.5394  1.2580
 2881TIP3   OH230201   6.998   3.906   6.598  0.1623 -0.0684 -0.2054
 2881TIP3    H130202   6.927   3.842   6.597  0.9059 -0.9262  0.4730
 2881TIP3    H230203   6.992   3.950   6.514  0.3325 -1.8238 -1.1736
 2882TIP3   OH230204   3.897   5.625   6.050 -1.0563 -0.3338 -0.2146
 2882TIP3    H130205   3.936   5.603   6.134  3.9362  1.8964 -1.6141
 2882TIP3    H230206   3.922   5.553   5.992  1.6247  1.2823 -1.2104
 2883TIP3   OH230207   5.357   2.575   6.263 -0.1675  0.8890  0.0590
 2883TIP3    H130208   5.434   2.594   6.209  0.6335 -1.4353  0.2613
 2883TIP3    H230209   5.317   2.499   6.221 -0.4320 -0.0052  1.8321
 2884TIP3   OH230210   0.876   5.602   7.179  0.2762  0.0928  0.0903
 2884TIP3    H130211   0.828   5.616   7.097  1.1227  0.5654 -0.3371
 2884TIP3    H230212   0.947   5.543   7.155  0.1240 -0.3198  0.6454
 2885TIP3   OH230213   3.470   0.255   7.915  0.0394 -0.1584 -0.2066
 2885TIP3    H130214   3.435   0.342   7.935 -1.3899 -0.5866 -0.7205
 2885TIP3    H230215   3.423   0.196   7.975 -0.9841 -0.8788 -1.6619
 2886TIP3   OH230216   0.469   1.478   0.442  0.7968  0.0891  0.1114
 2886TIP3    H130217   0.534   1.547   0.456  0.7345 -0.0044  0.8563
 2886TIP3    H230218   0.518   1.408   0.399  1.0098  0.3197 -0.0285
 2887TIP3   OH230219   4.186   0.906   7.387  0.2112 -0.3156 -0.2029
 2887TIP3    H130220   4.266   0.958   7.384 -0.0496  0.1437  0.4149
 2887TIP3    H230221   4.129   0.947   7.321  0.1673 -0.0802 -0.0227
 2888TIP3   OH230222   5.288   5.297   1.883 -0.1151 -0.2589  0.0285
 2888TIP3    H130223   5.369   5.302   1.934 -0.1214 -1.1833  0.1390
 2888TIP3    H230224   5.257   5.388   1.879  2.3976  0.6512 -2.4106
 2889TIP3   OH230225   3.177   4.439   6.353  0.5058 -0.1119  0.4587
 2889TIP3    H130226   3.215   4.514   6.306  0.9858  0.0395  1.0662
 2889TIP3    H230227   3.239   4.368   6.339  0.3657 -0.2228  0.4010
 2890TIP3   OH230228   1.007   6.657   6.390  0.2962 -0.3655 -0.4330
 2890TIP3    H130229   1.041   6.746   6.391 -0.9961  0.1862 -1.6274
 2890TIP3    H230230   1.000   6.635   6.297 -0.5953 -1.2229 -0.1916
 2891TIP3   OH230231   2.738   1.511   6.401  0.0454  0.6463 -0.0484
 2891TIP3    H130232   2.805   1.575   6.377  1.8268 -0.9582  0.3321
 2891TIP3    H230233   2.787   1.430   6.415 -1.8669 -0.3566  1.3327
 2892TIP3   OH230234   0.277   6.060   6.290  0.0471 -0.1438 -0.0409
 2892TIP3    H130235   0.341   6.055   6.219  2.1640 -0.3574  1.7746
 2892TIP3    H230236   0.330   6.067   6.369 -2.2171  1.5257  1.4479
 2893TIP3   OH230237   5.797   6.584   0.416  0.2398 -0.2985 -0.2344
 2893TIP3    H130238   5.878   6.621   0.381  0.0056 -0.5945 -1.1084
 2893TIP3    H230239   5.741   6.659   0.432  1.2819  0.0860  2.0240
 2894TIP3   OH230240   6.638   3.449   6.809 -0.1324  0.1339 -0.2766
 2894TIP3    H130241   6.630   3.453   6.713 -2.5466  0.5032 -0.1322
 2894TIP3    H230242   6.654   3.357   6.828  0.7858  0.1214 -1.0428
 2895TIP3   OH230243   3.909   6.175   0.781  0.1301 -0.6130 -0.2915
 2895TIP3    H130244   3.930   6.088   0.815 -0.3324 -1.1279 -1.2896
 2895TIP3    H230245   3.988   6.227   0.797  0.6010 -1.3572 -0.1478
 2896TIP3   OH230246   5.794   4.887   8.032 -0.2207  0.0667 -0.0356
 2896TIP3    H130247   5.699   4.904   8.027 -0.5042 -1.2355  0.4872
 2896TIP3    H230248   5.802   4.822   8.101  0.7913 -1.7400 -1.7626
 2897TIP3   OH230249   1.155   6.499   5.879 -0.2207  0.0578  0.1919
 2897TIP3    H130250   1.124   6.433   5.818  1.3467  1.1089 -1.9212
 2897TIP3    H230251   1.249   6.506   5.860 -0.2204  2.4220  0.7233
 2898TIP3   OH230252   0.582   6.242   1.847  0.0047  0.3981  0.3162
 2898TIP3    H130253   0.519   6.308   1.875 -0.9856 -0.9169  1.2846
 2898TIP3    H230254   0.567   6.232   1.753 -2.3591 -0.9884  0.7703
 2899TIP3   OH230255   2.782   0.201   0.196 -0.2698  0.5992 -0.1851
 2899TIP3    H130256   2.720   0.150   0.249 -0.8779  1.0101 -0.4833
 2899TIP3    H230257   2.809   0.141   0.126 -1.0415  0.6963 -0.5805
 2900TIP3   OH230258   4.307   4.852   5.891  0.1222  0.2169 -0.0196
 2900TIP3    H130259   4.389   4.869   5.938 -0.3163  0.8243  0.5598
 2900TIP3    H230260   4.333   4.805   5.813  0.9667 -0.1019  0.4390
 2901TIP3   OH230261   7.125   0.957   7.264  0.3045  0.0090 -0.2717
 2901TIP3    H130262   7.194   0.938   7.200 -0.0287  1.0966 -0.9834
 2901TIP3    H230263   7.104   0.872   7.303  1.1659 -0.5278 -0.9421
 2902TIP3   OH230264   6.518   3.655   1.071  0.3161  0.0332 -0.3124
 2902TIP3    H130265   6.512   3.744   1.035  1.7060 -0.5139 -2.0563
 2902TIP3    H230266   6.559   3.604   1.001  0.0020 -1.8859  0.8403
 2903TIP3   OH230267   4.933   6.192   6.298 -0.1985 -0.6837 -0.5151
 2903TIP3    H130268   4.844   6.227   6.292 -0.4778 -1.2432  0.2982
 2903TIP3    H230269   4.933   6.117   6.237  0.0920  0.0600 -1.4548
 2904TIP3   OH230270   5.514   2.806   6.684  0.5553  0.4377  0.1647
 2904TIP3    H130271   5.501   2.819   6.590  0.9245  0.2812  0.0874
 2904TIP3    H230272   5.609   2.813   6.695  0.7404 -1.5841  0.1997
 2905TIP3   OH230273   3.669   5.861   6.205 -0.2356  0.8363  0.2602
 2905TIP3    H130274   3.575   5.878   6.204 -0.2725  0.6737 -1.2132
 2905TIP3    H230275   3.677   5.768   6.227 -0.5078  0.4672 -1.1454
 2906TIP3   OH230276   2.392   0.587   0.214  0.7738 -0.4220  0.1691
 2906TIP3    H130277   2.428   0.661   0.262  0.9725  0.4002 -1.2192
 2906TIP3    H230278   2.460   0.519   0.220  0.0296 -1.0670  2.6310
 2907TIP3   OH230279   3.455   1.261   1.054 -0.6755 -0.0665 -0.6993
 2907TIP3    H130280   3.520   1.325   1.084 -0.6247 -0.5121  0.1623
 2907TIP3    H230281   3.498   1.176   1.068 -1.5274 -0.3756  0.1014
 2908TIP3   OH230282   5.935   3.238   7.935  0.8888  0.2193 -0.3367
 2908TIP3    H130283   5.933   3.235   8.031 -1.4499 -1.1793 -0.3366
 2908TIP3    H230284   5.988   3.163   7.910 -0.5826 -0.9717 -0.0714
 2909TIP3   OH230285   2.872   3.425   0.375 -0.0401  0.0002  0.0858
 2909TIP3    H130286   2.792   3.376   0.358  0.6319 -1.6527  1.3419
 2909TIP3    H230287   2.896   3.462   0.291 -1.8728  0.1595 -0.4102
 2910TIP3   OH230288   1.779   6.106   1.309 -0.9239 -0.5050  0.1539
 2910TIP3    H130289   1.728   6.187   1.303  1.6394  1.2546  0.1520
 2910TIP3    H230290   1.829   6.103   1.228  0.9482 -0.6424  1.2505
 2911TIP3   OH230291   2.945   2.720   7.233 -0.2594  0.3979 -0.6184
 2911TIP3    H130292   2.982   2.800   7.272  0.4117 -0.2309  0.0674
 2911TIP3    H230293   2.970   2.650   7.294 -0.7781 -0.3475 -1.2489
 2912TIP3   OH230294   0.741   7.050   0.220 -0.5585 -0.9298  0.5123
 2912TIP3    H130295   0.648   7.073   0.217  0.1213  2.8783  2.6052
 2912TIP3    H230296   0.765   7.061   0.311  2.5669  1.4754 -0.4374
 2913TIP3   OH230297   4.398   4.654   7.338  0.3640 -0.7279 -0.6172
 2913TIP3    H130298   4.484   4.689   7.363 -0.2882  1.2529 -0.9943
 2913TIP3    H230299   4.388   4.679   7.247 -1.2069  0.3232 -0.1803
 2914TIP3   OH230300   1.135   6.940   7.626 -0.1349  0.3126 -0.1802
 2914TIP3    H130301   1.177   6.972   7.546 -1.9191  0.5633 -1.0780
 2914TIP3    H230302   1.123   6.846   7.612 -0.1993  0.3063 -0.0880
 2915TIP3   OH230303   3.751   6.470   7.773 -0.0847  0.2728 -0.4468
 2915TIP3    H130304   3.656   6.485   7.770  0.0860  1.7908  0.6437
 2915TIP3    H230305   3.789   6.556   7.753  1.0254  0.1458  0.9609
 2916TIP3   OH230306   3.210   4.755   7.311 -0.8437 -0.0295 -0.2330
 2916TIP3    H130307   3.262   4.802   7.247 -1.6094  1.3144  0.1127
 2916TIP3    H230308   3.122   4.791   7.304 -0.9793  0.0791  1.4782
 2917TIP3   OH230309   1.900   1.504   1.070 -0.1535  0.0447 -0.1361
 2917TIP3    H130310   1.941   1.469   0.991  2.5660  1.1539  0.6702
 2917TIP3    H230311   1.938   1.453   1.142  0.8667  1.9486  0.7395
 2918TIP3   OH230312   3.613   4.618   6.754  0.0791  0.2244 -0.0095
 2918TIP3    H130313   3.551   4.547   6.740  0.0592 -0.4090  2.7704
 2918TIP3    H230314   3.559   4.691   6.784  0.4916  0.1318  0.9928
 2919TIP3   OH230315   4.303   1.576   6.321  0.1829  0.3696  0.3333
 2919TIP3    H130316   4.252   1.496   6.335 -0.3041  0.8381  1.3518
 2919TIP3    H230317   4.269   1.638   6.385 -0.4822  1.8895 -1.3755
 2920TIP3   OH230318   2.703   1.217   7.169 -0.1525  0.2440  0.5194
 2920TIP3    H130319   2.613   1.198   7.142  0.2656 -1.1130  0.0160
 2920TIP3    H230320   2.693   1.261   7.254 -1.2655 -0.7355  0.9289
 2921TIP3   OH230321   1.652   2.572   1.825  0.1127 -0.5533 -0.4259
 2921TIP3    H130322   1.728   2.547   1.877 -0.1474 -3.0444 -1.1054
 2921TIP3    H230323   1.582   2.586   1.889  0.2399 -1.9013  0.0463
 2922TIP3   OH230324   2.458   4.758   0.671  0.2285  0.2831 -0.2129
 2922TIP3    H130325   2.445   4.751   0.766  0.4609 -1.1072 -0.2686
 2922TIP3    H230326   2.376   4.795   0.639  0.0913  0.6311  0.5024
 2923TIP3   OH230327   4.821   5.880   5.611 -0.3181  0.0802 -0.5225
 2923TIP3    H130328   4.875   5.816   5.659  0.1512  0.9430  0.1206
 2923TIP3    H230329   4.832   5.857   5.519 -0.0899 -0.7155 -0.3071
 2924TIP3   OH230330   6.897   3.088   0.799 -0.4700 -0.7112  0.1020
 2924TIP3    H130331   6.943   3.171   0.814 -1.8822  0.3042 -0.8430
 2924TIP3    H230332   6.962   3.032   0.755  0.5724 -0.1967  0.9401
 2925TIP3   OH230333   2.107   3.657   7.740 -0.2747  0.0835 -0.0649
 2925TIP3    H130334   2.044   3.597   7.698  0.8832 -0.0826 -1.6465
 2925TIP3    H230335   2.182   3.602   7.760  0.8459  0.9765 -1.6185
 2926TIP3   OH230336   4.727   2.113   0.577 -0.0803  0.4353 -0.2087
 2926TIP3    H130337   4.690   2.168   0.508  0.4619  0.9475 -0.1021
 2926TIP3    H230338   4.650   2.075   0.621 -0.4350  0.2809 -0.9396
 2927TIP3   OH230339   2.624   5.738   7.199 -0.6093 -0.1364 -0.3505
 2927TIP3    H130340   2.600   5.824   7.233 -1.0724 -0.1303 -0.6870
 2927TIP3    H230341   2.649   5.754   7.108  2.8380  0.2194  0.5231
 2928TIP3   OH230342   3.691   0.602   1.112 -0.4503  0.0586 -0.1846
 2928TIP3    H130343   3.778   0.566   1.129 -0.4704 -0.7172 -1.5921
 2928TIP3    H230344   3.633   0.526   1.114 -0.3233 -0.3820 -4.4684
 2929TIP3   OH230345   3.427   1.830   7.534 -0.4168 -0.0526 -0.4540
 2929TIP3    H130346   3.450   1.739   7.550 -0.8218 -0.1222 -0.2540
 2929TIP3    H230347   3.339   1.827   7.495 -0.2787  0.2308 -0.7997
 2930TIP3   OH230348   3.129   2.784   1.343  0.0302 -0.4660 -0.8408
 2930TIP3    H130349   3.183   2.705   1.342 -2.7403 -2.5276 -0.9122
 2930TIP3    H230350   3.039   2.751   1.347 -1.2321  2.7409  1.5233
 2931TIP3   OH230351   6.683   5.369   2.307 -0.1548 -0.3161  0.6504
 2931TIP3    H130352   6.675   5.274   2.313  0.8985 -0.5967 -1.5740
 2931TIP3    H230353   6.761   5.389   2.358  0.8677 -0.9533 -0.5898
 2932TIP3   OH230354   3.709   4.802   1.333 -0.0986  0.0233  0.1759
 2932TIP3    H130355   3.703   4.858   1.411 -2.2949  1.0491 -0.6433
 2932TIP3    H230356   3.797   4.764   1.338  0.3334  1.1125  2.4161
 2933TIP3   OH230357   3.063   2.169   5.713 -0.6521 -0.2354  0.1825
 2933TIP3    H130358   3.155   2.185   5.734 -0.8974  1.9947 -0.2705
 2933TIP3    H230359   3.060   2.165   5.617 -1.0968  0.1389  0.1800
 2934TIP3   OH230360   2.874   5.384   6.516  0.5976  0.0617  0.7309
 2934TIP3    H130361   2.895   5.461   6.570  0.5758  0.4378  0.2061
 2934TIP3    H230362   2.800   5.344   6.561  0.6999  0.2670  1.0885
 2935TIP3   OH230363   6.389   5.646   1.265  0.0197 -0.4485 -0.0639
 2935TIP3    H130364   6.383   5.555   1.295 -1.2456 -0.2428  0.3596
 2935TIP3    H230365   6.302   5.666   1.232  0.2654  0.6479 -0.0843
 2936TIP3   OH230366   1.967   4.784   1.161  0.0332 -0.1092 -0.2842
 2936TIP3    H130367   1.965   4.868   1.116  1.9383 -1.5527 -3.3545
 2936TIP3    H230368   1.923   4.723   1.102 -0.1654 -1.5482  1.2554
 2937TIP3   OH230369   6.918   0.115   7.514 -0.1654  0.0133  0.5012
 2937TIP3    H130370   6.999   0.150   7.477 -0.3414 -0.0861  0.0190
 2937TIP3    H230371   6.947   0.066   7.592  0.2201  0.0995  0.4146
 2938TIP3   OH230372   2.561   1.933   1.152  0.0134 -0.2938  0.1789
 2938TIP3    H130373   2.634   1.889   1.110 -0.2964 -1.3048  0.6663
 2938TIP3    H230374   2.601   1.985   1.222  0.1212 -2.5067  1.8327
 2939TIP3   OH230375   2.963   2.925   7.915  0.0011  0.1345 -0.0036
 2939TIP3    H130376   2.989   2.893   7.829  0.7960 -0.0429  0.2942
 2939TIP3    H230377   2.902   2.860   7.949  1.2786 -0.8700  0.4238
 2940TIP3   OH230378   5.676   6.652   0.691 -0.0617  0.6158  0.2388
 2940TIP3    H130379   5.588   6.620   0.712  0.1075  0.8097  1.2671
 2940TIP3    H230380   5.704   6.597   0.617 -1.3413  1.0756 -0.6297
 2941TIP3   OH230381   3.804   1.939   6.865  0.2448 -0.1907 -0.2379
 2941TIP3    H130382   3.713   1.963   6.878  0.2929  0.6585 -1.3349
 2941TIP3    H230383   3.801   1.847   6.838 -0.4405  0.2726 -1.8524
 2942TIP3   OH230384   5.625   5.892   8.004 -0.4661 -0.8256  0.0877
 2942TIP3    H130385   5.551   5.895   8.064  0.2117 -3.0573  1.1536
 2942TIP3    H230386   5.593   5.935   7.925 -2.2600 -0.1062  1.1311
 2943TIP3   OH230387   3.188   3.492   5.968 -0.1648  0.1237 -0.5152
 2943TIP3    H130388   3.195   3.565   5.907  0.2261  1.3555  0.9423
 2943TIP3    H230389   3.207   3.530   6.054  2.4075 -2.1272  0.0596
 2944TIP3   OH230390   6.418   1.700   0.049  0.1052  0.3053  0.2078
 2944TIP3    H130391   6.403   1.794   0.046  0.2557  0.3233 -0.0330
 2944TIP3    H230392   6.333   1.663   0.073 -1.3455  0.1781 -4.1947
 2945TIP3   OH230393   3.696   6.547   1.882 -0.1021  0.3589  0.4217
 2945TIP3    H130394   3.619   6.586   1.840 -0.2620  0.5808  0.9100
 2945TIP3    H230395   3.688   6.453   1.865 -0.3210  0.4154  0.2102
 2946TIP3   OH230396   1.930   0.090   6.463 -0.5695 -0.0637 -0.0186
 2946TIP3    H130397   1.971   0.092   6.377  0.3014 -3.0036  0.2002
 2946TIP3    H230398   1.983   0.149   6.517 -2.5172  3.6802 -1.9015
 2947TIP3   OH230399   4.424   6.801   6.932  0.4953 -0.1376  0.3850
 2947TIP3    H130400   4.395   6.830   6.846  0.4023 -0.3877  0.3319
 2947TIP3    H230401   4.461   6.714   6.918 -0.9917 -0.8914  0.8438
 2948TIP3   OH230402   4.814   2.876   1.205 -0.3417 -0.6231 -0.0786
 2948TIP3    H130403   4.765   2.797   1.181 -1.0939 -1.5632  3.8086
 2948TIP3    H230404   4.895   2.871   1.155 -1.3007 -2.6789 -1.5643
 2949TIP3   OH230405   1.787   4.765   7.882 -1.0029  0.1832 -0.0979
 2949TIP3    H130406   1.866   4.799   7.840 -0.1971  0.9886  1.9384
 2949TIP3    H230407   1.728   4.841   7.887 -0.4728  0.5213  1.5540
 2950TIP3   OH230408   5.709   2.611   0.537  0.0453 -0.3495  0.3383
 2950TIP3    H130409   5.691   2.576   0.450 -2.3600 -0.6226  0.8786
 2950TIP3    H230410   5.791   2.659   0.527  0.2488 -1.0380 -1.8650
 2951TIP3   OH230411   2.413   2.643   7.371 -0.1531  0.1368 -0.1366
 2951TIP3    H130412   2.345   2.639   7.439 -0.0779  0.8656 -0.0106
 2951TIP3    H230413   2.374   2.698   7.303 -0.0504 -0.2204 -0.4862
 2952TIP3   OH230414   0.805   6.004   0.688 -0.5335  0.2384  0.3214
 2952TIP3    H130415   0.823   5.972   0.776  0.8720  0.2998  0.0792
 2952TIP3    H230416   0.817   6.099   0.693 -0.5476  0.2546  0.0892
 2953TIP3   OH230417   5.508   4.772   7.967  0.2519 -0.5000  0.3245
 2953TIP3    H130418   5.502   4.680   7.944  1.1243 -1.3095  2.9690
 2953TIP3    H230419   5.436   4.786   8.029 -0.9046  1.0750 -1.2785
 2954TIP3   OH230420   0.797   0.925   6.523 -0.0702 -0.4537  0.2573
 2954TIP3    H130421   0.835   0.856   6.468  0.4701 -0.5612  0.7604
 2954TIP3    H230422   0.824   1.006   6.481 -0.3809 -0.5421 -0.1182
 2955TIP3   OH230423   3.504   2.744   7.684 -0.5603  0.3075 -1.2661
 2955TIP3    H130424   3.459   2.783   7.608  0.3271  3.1480 -0.4598
 2955TIP3    H230425   3.597   2.753   7.663 -0.3117 -0.6522 -0.6248
 2956TIP3   OH230426   6.137   5.686   1.450 -0.5579  0.3077  0.3509
 2956TIP3    H130427   6.075   5.667   1.379 -0.5255 -0.0217  0.4073
 2956TIP3    H230428   6.103   5.638   1.525 -0.0500 -0.1664  0.2880
 2957TIP3   OH230429   2.317   0.744   6.752 -0.2585 -0.5252  0.4927
 2957TIP3    H130430   2.310   0.763   6.846 -0.5037  0.4132  0.2996
 2957TIP3    H230431   2.297   0.651   6.745 -2.3648 -0.1857  1.1678
 2958TIP3   OH230432   2.931   5.156   7.054  0.1610 -0.1116  0.1098
 2958TIP3    H130433   2.986   5.227   7.085  0.7586 -1.3008  1.9183
 2958TIP3    H230434   2.847   5.169   7.099  0.0089 -0.1100 -0.1702
 2959TIP3   OH230435   6.470   3.352   1.271  0.1522 -0.6499  0.1209
 2959TIP3    H130436   6.385   3.346   1.227 -0.0426 -0.4385  0.4628
 2959TIP3    H230437   6.503   3.438   1.247  0.4333 -0.8670 -0.2942
 2960TIP3   OH230438   1.468   6.245   7.394 -0.0812 -0.2141  0.6616
 2960TIP3    H130439   1.392   6.303   7.389  0.4067  0.3352 -0.9677
 2960TIP3    H230440   1.541   6.303   7.419 -0.0484 -0.6055  1.5023
 2961TIP3   OH230441   4.537   7.164   0.653  0.0487 -0.0670 -0.7511
 2961TIP3    H130442   4.464   7.105   0.632  0.7489 -0.2168 -3.1197
 2961TIP3    H230443   4.529   7.181   0.746 -1.8176 -1.6983 -0.5570
 2962TIP3   OH230444   6.821   2.253   7.750  0.5256 -0.1459 -0.2723
 2962TIP3    H130445   6.802   2.204   7.830  0.2685  0.3759 -0.0126
 2962TIP3    H230446   6.738   2.254   7.702  0.0391  1.5305  0.5370
 2963TIP3   OH230447   2.073   6.458   2.095  0.3851 -0.4829  0.1947
 2963TIP3    H130448   1.999   6.427   2.148  1.0020  1.0009  2.0259
 2963TIP3    H230449   2.045   6.544   2.064  1.2682  0.0264  0.7796
 2964TIP3   OH230450   0.838   2.901   7.933 -0.1164  0.0655  0.1100
 2964TIP3    H130451   0.920   2.914   7.884  0.5538 -2.6822  0.3618
 2964TIP3    H230452   0.859   2.833   7.997 -1.9324  1.1522  1.9431
 2965TIP3   OH230453   0.395   6.833   7.045  0.0880  0.1398  0.3315
 2965TIP3    H130454   0.407   6.878   6.962  0.0559 -1.6708 -0.7176
 2965TIP3    H230455   0.474   6.854   7.096 -0.7669  2.8424  0.6902
 2966TIP3   OH230456   1.366   0.671   7.229  0.0979 -0.4946 -0.2467
 2966TIP3    H130457   1.294   0.615   7.258 -1.9044  2.5966  1.1974
 2966TIP3    H230458   1.325   0.754   7.207  3.0103  0.7254 -1.5589
 2967TIP3   OH230459   1.271   6.721   6.042 -0.4393  0.0625  0.3470
 2967TIP3    H130460   1.332   6.758   5.978 -1.6507 -0.1108 -0.9477
 2967TIP3    H230461   1.213   6.665   5.991 -1.6867  0.2132  1.5408
 2968TIP3   OH230462   1.539   6.830   0.585 -0.1529 -0.1646 -0.2251
 2968TIP3    H130463   1.549   6.925   0.578  1.3106 -0.3976 -1.9349
 2968TIP3    H230464   1.526   6.814   0.678  3.0017  1.4478  0.6319
 2969TIP3   OH230465   1.454   1.312   1.743  0.3387 -0.0707  0.0340
 2969TIP3    H130466   1.378   1.271   1.783  0.1910 -1.5310 -1.6027
 2969TIP3    H230467   1.527   1.290   1.802  0.2593 -2.7769 -0.7558
 2970TIP3   OH230468   4.152   4.503   1.272  0.1022  0.2857  0.8424
 2970TIP3    H130469   4.174   4.596   1.262  0.6250 -0.0238 -1.2857
 2970TIP3    H230470   4.223   4.468   1.326  0.8185  0.8098  0.2632
 2971TIP3   OH230471   0.628   0.767   7.653  0.4590  0.0464 -0.0281
 2971TIP3    H130472   0.679   0.772   7.734  0.9314  0.1974 -0.3326
 2971TIP3    H230473   0.693   0.763   7.583  0.0745  1.3531 -0.4958
 2972TIP3   OH230474   1.602   6.175   6.184 -0.0110 -0.3753 -0.0279
 2972TIP3    H130475   1.528   6.215   6.231 -0.3146 -2.0101  0.9465
 2972TIP3    H230476   1.564   6.100   6.139  0.8933 -0.6717 -0.3129
 2973TIP3   OH230477   4.895   3.577   6.743 -0.3639  0.3357 -0.2171
 2973TIP3    H130478   4.888   3.671   6.765 -2.7788  0.3054 -0.5713
 2973TIP3    H230479   4.980   3.569   6.700  0.3709  2.1574  0.7511
 2974TIP3   OH230480   2.905   6.142   0.881  0.0996  0.0056  0.0728
 2974TIP3    H130481   2.849   6.216   0.857  1.5152  0.6012 -1.6565
 2974TIP3    H230482   2.993   6.170   0.855  0.8828 -1.7372  0.7223
 2975TIP3   OH230483   3.921   2.919   7.315  0.1035 -0.0679  0.2665
 2975TIP3    H130484   3.994   2.914   7.377  1.6605  0.3228 -1.4304
 2975TIP3    H230485   3.956   2.878   7.235 -0.4306  2.7873 -1.5628
 2976TIP3   OH230486   4.210   3.134   7.442  0.3887  0.1225  0.3096
 2976TIP3    H130487   4.273   3.181   7.497 -2.0130  1.2843  2.2594
 2976TIP3    H230488   4.186   3.057   7.494 -2.2398  1.4595  1.2729
 2977TIP3   OH230489   1.229   4.288   7.720 -0.0348 -0.1786  0.0483
 2977TIP3    H130490   1.310   4.310   7.675 -0.5078  0.1769 -0.6650
 2977TIP3    H230491   1.244   4.201   7.757  0.6099 -0.1827 -0.2138
 2978TIP3   OH230492   2.295   1.754   7.145  0.2942  0.5407 -0.4044
 2978TIP3    H130493   2.216   1.741   7.197  0.9487  3.0548  1.3870
 2978TIP3    H230494   2.336   1.668   7.143 -1.8928 -0.5723 -0.4334
 2979TIP3   OH230495   1.527   1.458   1.516  0.4414 -0.1333  0.2064
 2979TIP3    H130496   1.487   1.399   1.580 -1.1321 -0.3260 -0.8886
 2979TIP3    H230497   1.583   1.401   1.463  1.9816  0.0740  1.5120
 2980TIP3   OH230498   0.136   0.705   0.713 -0.3043 -0.1967  0.5020
 2980TIP3    H130499   0.080   0.636   0.677 -0.8550 -0.1882  1.3345
 2980TIP3    H230500   0.146   0.767   0.641 -0.3654 -0.7994 -0.0375
 2981TIP3   OH230501   6.058   4.889   6.257 -0.6835 -0.4854  0.1150
 2981TIP3    H130502   6.105   4.861   6.178  1.6333  1.0252  0.8761
 2981TIP3    H230503   6.046   4.808   6.307  0.4352 -1.0303 -0.4552
 2982TIP3   OH230504   1.052   5.322   0.182 -0.1156  0.0562  0.1337
 2982TIP3    H130505   1.026   5.411   0.158  0.9934  0.1879 -0.6657
 2982TIP3    H230506   1.035   5.270   0.103  0.1025 -0.2498  0.2843
 2983TIP3   OH230507   6.847   6.295   6.463 -0.1432  1.1540 -0.1415
 2983TIP3    H130508   6.758   6.323   6.441  0.0749  2.3793  0.4448
 2983TIP3    H230509   6.873   6.353   6.534  1.6528  1.8221 -1.2648
 2984TIP3   OH230510   0.597   7.106   5.889 -0.3477  0.3068  0.3734
 2984TIP3    H130511   0.575   7.132   5.978 -1.4134  0.3803  0.0974
 2984TIP3    H230512   0.623   7.188   5.846  0.1912  0.2677  0.6164
 2985TIP3   OH230513   7.151   2.105   6.193 -0.0470  1.1436 -0.1722
 2985TIP3    H130514   7.213   2.171   6.223 -0.4056  1.2647  0.2990
 2985TIP3    H230515   7.100   2.150   6.126 -0.4057  1.3959  0.2701
 2986TIP3   OH230516   5.746   5.905   6.947 -0.1340 -0.1468  0.0445
 2986TIP3    H130517   5.746   5.947   7.033  0.5622  0.9848 -0.4803
 2986TIP3    H230518   5.655   5.911   6.918 -0.1611  0.4986  0.2355
 2987TIP3   OH230519   1.472   6.073   7.962  0.2279  0.6126  0.1637
 2987TIP3    H130520   1.504   6.018   7.891  1.7944  1.7008 -0.0333
 2987TIP3    H230521   1.550   6.094   8.013 -0.7869  0.2783  1.9348
 2988TIP3   OH230522   5.602   3.646   7.107 -0.0672 -0.3896  0.2454
 2988TIP3    H130523   5.684   3.692   7.086  1.0629 -2.1247  0.5978
 2988TIP3    H230524   5.542   3.669   7.036  1.1443 -0.0267 -0.6946
 2989TIP3   OH230525   3.503   0.278   6.243  0.2069  0.9100  0.2841
 2989TIP3    H130526   3.536   0.319   6.322 -0.2112  0.9963  0.4160
 2989TIP3    H230527   3.473   0.351   6.188 -1.9703  0.7591  1.1511
 2990TIP3   OH230528   1.224   6.932   0.573  0.1253 -0.1716 -0.5707
 2990TIP3    H130529   1.145   6.891   0.538  0.3482 -1.1398  0.0206
 2990TIP3    H230530   1.244   6.881   0.652  0.5118  0.9857  0.0903
 2991TIP3   OH230531   1.942   1.532   6.532  0.0749  0.0670 -0.4771
 2991TIP3    H130532   1.972   1.457   6.584 -3.2922 -0.2609  1.2831
 2991TIP3    H230533   1.941   1.605   6.594 -2.5995  0.0126 -0.3461
 2992TIP3   OH230534   5.916   5.135   7.311 -0.1282  0.1557 -0.3309
 2992TIP3    H130535   5.947   5.133   7.402 -0.5410  0.8956 -0.1625
 2992TIP3    H230536   5.952   5.217   7.276 -0.3097  0.0750 -0.7123
 2993TIP3   OH230537   3.608   1.571   6.993 -0.6460 -0.5787 -0.1365
 2993TIP3    H130538   3.638   1.480   6.981 -1.1333 -0.6357 -1.0179
 2993TIP3    H230539   3.663   1.622   6.934  0.8547 -0.0163  1.6534
 2994TIP3   OH230540   4.145   2.994   0.033 -0.2145  0.1348  0.1682
 2994TIP3    H130541   4.157   3.029  -0.055 -0.9773 -0.4981 -0.2073
 2994TIP3    H230542   4.052   3.010   0.053  0.1066  0.8841  1.1390
 2995TIP3   OH230543   3.486   0.412   0.850  0.3424  0.1611 -0.2947
 2995TIP3    H130544   3.411   0.399   0.907  1.0404 -0.1451  0.5724
 2995TIP3    H230545   3.528   0.326   0.844  0.0486  0.0859 -1.6239
 2996TIP3   OH230546   0.508   6.891   6.792 -0.9104 -0.0941 -0.0370
 2996TIP3    H130547   0.487   6.929   6.707 -1.2061  1.2175  0.5981
 2996TIP3    H230548   0.524   6.798   6.774  0.8812  0.4954 -1.8134
 2997TIP3   OH230549   2.468   6.276   7.373 -0.3488 -0.6794  0.2097
 2997TIP3    H130550   2.410   6.294   7.447 -0.9697 -0.8192 -0.2397
 2997TIP3    H230551   2.515   6.359   7.359 -0.7310 -0.4390  0.3255
 2998TIP3   OH230552   6.849   5.159   6.444  0.1839 -0.1198  0.2414
 2998TIP3    H130553   6.858   5.254   6.451  0.5308 -0.2820  3.2022
 2998TIP3    H230554   6.933   5.124   6.475  0.7606 -1.4528 -2.5148
 2999TIP3   OH230555   5.021   4.520   6.379 -0.1621 -0.4733  0.5251
 2999TIP3    H130556   5.019   4.610   6.412  2.2599 -0.1011 -0.1007
 2999TIP3    H230557   5.024   4.529   6.283  0.2574 -1.1918  0.4590
 3000TIP3   OH230558   3.680   0.406   5.987  0.2485  0.1807 -0.2449
 3000TIP3    H130559   3.718   0.410   6.074  0.3592 -2.0575 -0.1153
 3000TIP3    H230560   3.586   0.421   6.000  0.4901  1.6000 -0.0124
 3001TIP3   OH230561   5.340   0.970   7.044  0.2736 -0.3276 -0.5935
 3001TIP3    H130562   5.338   0.894   6.987 -1.5755 -0.4646 -0.3872
 3001TIP3    H230563   5.274   1.029   7.008  0.5784  0.5057  0.1728
 3002TIP3   OH230564   0.332   0.227   5.867 -0.0364  0.1593 -0.1884
 3002TIP3    H130565   0.356   0.247   5.777 -2.0713 -0.0180 -0.8199
 3002TIP3    H230566   0.337   0.132   5.872  0.8963  0.2206  0.1488
 3003TIP3   OH230567   0.341   5.132   1.068  0.1852  0.0923  0.1176
 3003TIP3    H130568   0.283   5.199   1.030 -0.1653 -0.6129 -0.6388
 3003TIP3    H230569   0.426   5.174   1.074  0.2021  0.3115 -1.3000
 3004TIP3   OH230570   0.259   1.616   6.530  0.5393 -0.5114 -0.1828
 3004TIP3    H130571   0.206   1.654   6.601  1.2484  2.0129 -0.8811
 3004TIP3    H230572   0.199   1.558   6.484 -0.5852 -0.4597  1.1373
 3005TIP3   OH230573   2.994   5.453   6.194 -0.2545  0.2800  0.3053
 3005TIP3    H130574   2.930   5.517   6.164 -1.7613 -0.3702  1.9328
 3005TIP3    H230575   3.069   5.504   6.223 -1.3818  1.3222  1.4636
 3006TIP3   OH230576   6.896   6.184   2.043 -0.5413 -0.4819  0.2409
 3006TIP3    H130577   6.888   6.208   1.951 -0.0688 -2.9266 -0.5082
 3006TIP3    H230578   6.815   6.136   2.062 -0.4345 -0.3750  0.9751
 3007TIP3   OH230579   1.327   6.153   1.460  0.6641 -0.3474  0.1047
 3007TIP3    H130580   1.367   6.079   1.415  1.9873  0.1523  0.4253
 3007TIP3    H230581   1.346   6.139   1.552  1.7412  0.8468  0.0846
 3008TIP3   OH230582   4.201   5.817   1.264 -0.2980 -0.7293 -0.2287
 3008TIP3    H130583   4.175   5.745   1.206 -2.7346 -2.0948  2.2738
 3008TIP3    H230584   4.296   5.807   1.273  0.1367 -0.6772 -3.5055
 3009TIP3   OH230585   4.569   3.563   7.211  0.3654  0.2359 -0.2865
 3009TIP3    H130586   4.648   3.608   7.240 -1.3164  2.0560  1.8961
 3009TIP3    H230587   4.554   3.594   7.122  2.2991 -0.4954 -0.9074
 3010TIP3   OH230588   5.048   3.649   1.423 -0.1628 -0.5319  0.6893
 3010TIP3    H130589   5.124   3.608   1.464  0.2371 -0.6799 -0.1778
 3010TIP3    H230590   5.079   3.678   1.338 -0.5778  1.0835  1.0375
 3011TIP3   OH230591   5.461   2.090   6.487 -0.5047  0.0379  0.5231
 3011TIP3    H130592   5.464   2.157   6.419  1.3355 -0.2270  0.2811
 3011TIP3    H230593   5.552   2.059   6.494 -1.1877 -1.9905  1.0632
 3012TIP3   OH230594   1.958   2.205   1.235 -0.4030 -0.9787  0.5666
 3012TIP3    H130595   2.023   2.230   1.169 -0.5631  1.4439  1.2237
 3012TIP3    H230596   1.991   2.243   1.317 -2.7838  0.7214  0.8458
 3013TIP3   OH230597   4.839   6.476   7.133  0.4883 -0.3774 -0.0387
 3013TIP3    H130598   4.904   6.407   7.122  0.9147  0.3791 -3.3292
 3013TIP3    H230599   4.874   6.550   7.082 -0.7258  1.7516  1.9981
 3014TIP3   OH230600   4.880   4.404   7.084 -0.1243  0.6355 -0.0546
 3014TIP3    H130601   4.964   4.357   7.086  0.0888  0.9827 -0.6398
 3014TIP3    H230602   4.830   4.359   7.015  0.1956  1.4481 -0.8331
 3015TIP3   OH230603   6.028   0.327   1.441 -0.3600 -0.0680 -0.3414
 3015TIP3    H130604   5.970   0.323   1.365  0.4221  0.2228 -0.9734
 3015TIP3    H230605   5.975   0.294   1.513 -1.3792  0.4236 -0.8461
 3016TIP3   OH230606   2.626   1.873   0.250  0.2871 -0.2271  0.6192
 3016TIP3    H130607   2.626   1.959   0.209 -0.5657 -0.5739 -0.1361
 3016TIP3    H230608   2.663   1.888   0.337  0.8121  0.7668  0.2385
 3017TIP3   OH230609   4.718   6.015   6.124 -0.5600  0.1355  0.1512
 3017TIP3    H130610   4.802   5.978   6.097 -0.0225  0.4637  1.3002
 3017TIP3    H230611   4.707   5.987   6.215  0.3965  3.5103  1.4921
 3018TIP3   OH230612   0.972   0.261   6.437  0.0538 -0.0417 -0.6327
 3018TIP3    H130613   1.025   0.302   6.506 -1.9718  1.7390 -0.0166
 3018TIP3    H230614   0.883   0.286   6.458 -0.9608 -2.0029 -2.2591
 3019TIP3   OH230615   5.151   5.592   0.073 -0.1587 -0.1783  0.5755
 3019TIP3    H130616   5.189   5.590   0.161  0.6806 -2.8381  0.2409
 3019TIP3    H230617   5.067   5.546   0.082 -0.7822  0.8527  0.2423
 3020TIP3   OH230618   4.988   4.857   0.128  0.0002 -0.2946 -0.3865
 3020TIP3    H130619   4.916   4.898   0.175  1.2720  1.0568  0.4555
 3020TIP3    H230620   4.978   4.887   0.037  0.6393  1.5772  0.1218
 3021TIP3   OH230621   0.107   2.145   1.164 -0.0381 -0.6876 -0.1644
 3021TIP3    H130622   0.187   2.151   1.216  0.0197 -2.4934  0.0278
 3021TIP3    H230623   0.136   2.115   1.078 -0.4863 -1.1352 -0.1628
 3022TIP3   OH230624   1.545   3.026   7.377 -0.4752  0.0460  0.1441
 3022TIP3    H130625   1.640   3.030   7.386 -0.3965 -2.2155  1.2348
 3022TIP3    H230626   1.531   2.970   7.301 -0.8663 -0.6812  0.7270
 3023TIP3   OH230627   2.867   5.403   0.787  0.3010  0.4209 -0.1903
 3023TIP3    H130628   2.810   5.479   0.796 -2.0855 -1.2895 -0.0701
 3023TIP3    H230629   2.918   5.420   0.708 -1.9866  1.0745 -1.6160
 3024TIP3   OH230630   6.848   3.637   7.380 -0.5878  0.6792 -0.0984
 3024TIP3    H130631   6.909   3.699   7.338 -0.6593  0.1301 -1.0602
 3024TIP3    H230632   6.886   3.551   7.362 -1.0254  0.3892  0.3352
 3025TIP3   OH230633   5.331   4.661   7.363 -0.6798  0.5455  0.7660
 3025TIP3    H130634   5.282   4.711   7.298 -1.0819 -0.9931 -0.1584
 3025TIP3    H230635   5.408   4.714   7.381  1.1764 -0.3399 -3.4251
 3026TIP3   OH230636   5.527   1.129   0.005  0.0727  1.0389 -0.5004
 3026TIP3    H130637   5.601   1.123  -0.055  0.4302 -1.0065  0.0636
 3026TIP3    H230638   5.536   1.052   0.061 -3.5659 -0.4421 -1.6867
 3027TIP3   OH230639   6.889   1.844   7.956 -0.3304 -0.3241 -0.3234
 3027TIP3    H130640   6.843   1.880   7.880  1.6851  0.2856 -1.3192
 3027TIP3    H230641   6.949   1.913   7.983  0.4402 -1.3115  0.5527
 3028TIP3   OH230642   6.320   6.780   6.122  0.8316 -0.0995  0.2533
 3028TIP3    H130643   6.270   6.859   6.100  0.9482 -0.3527 -0.9625
 3028TIP3    H230644   6.263   6.707   6.096  0.6155 -0.4454  1.6016
 3029TIP3   OH230645   5.166   3.167   6.192 -0.6722  0.4439  0.1364
 3029TIP3    H130646   5.210   3.122   6.120 -1.2254  0.9783 -0.5504
 3029TIP3    H230647   5.073   3.152   6.177 -0.7616 -0.1250  1.2068
 3030TIP3   OH230648   1.089   5.799   7.869  0.3664 -0.0053 -0.2894
 3030TIP3    H130649   1.141   5.819   7.792 -0.1353 -0.8539 -0.8689
 3030TIP3    H230650   1.153   5.776   7.936  0.7792  0.0096 -0.6753
 3031TIP3   OH230651   4.981   1.512   1.306  0.6112  0.2219  0.1349
 3031TIP3    H130652   5.062   1.507   1.255  0.0914 -2.9230 -0.5825
 3031TIP3    H230653   4.911   1.513   1.241  0.0074  1.5421  0.7693
 3032TIP3   OH230654   6.968   4.178   6.128  0.1091 -0.4507  0.2251
 3032TIP3    H130655   6.896   4.237   6.152  0.4644 -0.2698  0.8905
 3032TIP3    H230656   6.934   4.127   6.056 -0.8498 -0.6622  0.8069
 3033TIP3   OH230657   4.908   1.644   0.050  0.3398  0.0490  0.1765
 3033TIP3    H130658   4.934   1.553   0.066 -0.5218  0.0865  1.9591
 3033TIP3    H230659   4.982   1.682   0.002 -0.0622 -2.0634 -2.3150
 3034TIP3   OH230660   0.995   1.768   2.221  0.3354  0.1523 -0.1060
 3034TIP3    H130661   0.963   1.691   2.174  2.5691 -0.8871 -0.0660
 3034TIP3    H230662   0.989   1.743   2.313  2.7504 -0.7859 -0.1384
 3035TIP3   OH230663   7.132   0.196   6.866  0.6717 -0.3986  0.8856
 3035TIP3    H130664   7.114   0.208   6.773  1.1824  0.1259  0.8533
 3035TIP3    H230665   7.068   0.253   6.910  0.9182 -0.0771  0.8312
 3036TIP3   OH230666   2.431   1.904   7.393  0.4275  0.2968 -0.6177
 3036TIP3    H130667   2.385   1.985   7.410  0.0368  0.6857 -3.1095
 3036TIP3    H230668   2.390   1.869   7.313  0.9995 -2.0333  0.0106
 3037TIP3   OH230669   5.292   6.868   7.129  0.3299 -0.1219  0.3265
 3037TIP3    H130670   5.220   6.848   7.189  2.8091  0.5498  3.8080
 3037TIP3    H230671   5.315   6.783   7.091 -0.7407 -0.7392  0.9974
 3038TIP3   OH230672   5.090   3.227   6.755  0.0628  0.5264  0.7402
 3038TIP3    H130673   5.140   3.206   6.834  1.0975  2.1066  0.5572
 3038TIP3    H230674   5.143   3.294   6.710 -1.0093  0.4235 -0.7615
 3039TIP3   OH230675   1.603   6.591   6.692 -0.0245 -0.2876  0.2004
 3039TIP3    H130676   1.686   6.595   6.738  0.5454 -1.5250 -0.6770
 3039TIP3    H230677   1.602   6.670   6.638  0.1587  0.1939  0.8876
 3040TIP3   OH230678   5.041   5.910   5.857  0.7249 -0.3447  0.1223
 3040TIP3    H130679   4.993   5.976   5.806 -0.5704  0.3263  2.0993
 3040TIP3    H230680   5.009   5.826   5.824  0.5814  0.0496 -0.7724
 3041TIP3   OH230681   4.403   1.435   7.329 -0.3738  0.7330  0.2137
 3041TIP3    H130682   4.309   1.431   7.311 -0.5193 -1.3534  1.1491
 3041TIP3    H230683   4.413   1.393   7.414  1.6380 -1.6480 -1.0488
 3042TIP3   OH230684   5.141   0.590   6.361  0.0783  0.6080  0.1819
 3042TIP3    H130685   5.110   0.581   6.451  1.8208  0.8452  0.8481
 3042TIP3    H230686   5.133   0.683   6.341 -1.6898  0.3610 -0.4866
 3043TIP3   OH230687   5.637   4.758   6.421  0.4963 -0.2135 -0.0704
 3043TIP3    H130688   5.709   4.784   6.479  0.7701  2.2937 -1.3976
 3043TIP3    H230689   5.681   4.716   6.347  0.3492 -1.1251  0.3492
 3044TIP3   OH230690   3.454   1.936   5.807  0.3052  0.3704 -0.7845
 3044TIP3    H130691   3.455   2.027   5.778 -2.2000  1.6419  2.5505
 3044TIP3    H230692   3.531   1.929   5.864  0.9125  0.1154 -1.6087
 3045TIP3   OH230693   2.315   6.987   0.379  0.2491  0.5633 -0.0220
 3045TIP3    H130694   2.392   6.940   0.347  0.9718  2.4617 -1.2956
 3045TIP3    H230695   2.242   6.927   0.366  1.2098 -0.4671 -0.8431
 3046TIP3   OH230696   4.593   3.838   0.960  0.2848 -0.6856  0.0408
 3046TIP3    H130697   4.581   3.828   1.054 -0.2433 -0.1843  0.0330
 3046TIP3    H230698   4.650   3.765   0.935 -1.1561 -1.9791  0.4194
 3047TIP3   OH230699   0.511   1.063   1.069  0.0094 -0.1285  0.2166
 3047TIP3    H130700   0.558   1.144   1.048 -0.5644  0.8413  2.4426
 3047TIP3    H230701   0.466   1.041   0.987 -0.3968  2.2038 -0.2868
 3048TIP3   OH230702   0.529   1.599   0.878  0.3505 -0.5081  0.0236
 3048TIP3    H130703   0.625   1.601   0.883  0.3595 -2.3117  2.4653
 3048TIP3    H230704   0.510   1.522   0.824  0.2765 -0.6070  0.1917
 3049TIP3   OH230705   0.663   3.602   0.514  0.3482 -0.2481 -0.2949
 3049TIP3    H130706   0.605   3.582   0.588 -2.2787  2.0716 -1.5212
 3049TIP3    H230707   0.624   3.555   0.441 -1.0540  2.4580 -1.4463
 3050TIP3   OH230708   0.686   5.220   1.240 -0.4256 -0.1926 -0.7952
 3050TIP3    H130709   0.683   5.230   1.145 -0.4266 -3.7014 -1.2865
 3050TIP3    H230710   0.604   5.259   1.271 -1.1551 -0.3663 -2.4168
 3051TIP3   OH230711   6.242   4.179   7.752  0.2009 -0.0049  0.1080
 3051TIP3    H130712   6.169   4.223   7.709  0.7606 -0.0706 -0.9644
 3051TIP3    H230713   6.267   4.109   7.691  0.5748 -0.5561  0.8815
 3052TIP3   OH230714   1.145   0.841   7.253  0.0702  0.1868  0.4173
 3052TIP3    H130715   1.151   0.928   7.293  1.2250  0.8128 -0.9995
 3052TIP3    H230716   1.052   0.818   7.259 -0.5801  2.2523 -0.5917
 3053TIP3   OH230717   6.078   3.964   0.034 -0.2357  0.0493 -0.4223
 3053TIP3    H130718   6.031   3.883   0.052 -0.2145  0.3771  1.2902
 3053TIP3    H230719   6.171   3.939   0.038 -0.1795  0.3970  1.7006
 3054TIP3   OH230720   1.311   3.746   7.117 -0.2866  0.1713 -0.3874
 3054TIP3    H130721   1.352   3.721   7.200  2.4718 -2.4801 -2.3345
 3054TIP3    H230722   1.217   3.751   7.138  0.3212  0.2673  2.9717
 3055TIP3   OH230723   0.538   5.309   0.217  0.0933 -0.2500 -0.1440
 3055TIP3    H130724   0.559   5.217   0.233 -0.7386 -0.4768 -0.2739
 3055TIP3    H230725   0.455   5.306   0.168  0.5663  0.5418 -1.0169
 3056TIP3   OH230726   0.162   5.385   6.913 -0.0355 -1.0010 -0.0024
 3056TIP3    H130727   0.067   5.374   6.900 -0.0367 -0.2658 -0.6903
 3056TIP3    H230728   0.184   5.320   6.980 -1.3278 -0.0150  1.4427
 3057TIP3   OH230729   6.079   2.769   6.872 -0.5246  0.0260  0.2236
 3057TIP3    H130730   6.143   2.833   6.905 -0.2071  0.9569 -1.9874
 3057TIP3    H230731   6.002   2.783   6.926  0.7234 -0.2967  2.1865
 3058TIP3   OH230732   1.374   0.295   5.841 -0.9677  0.1593  0.4745
 3058TIP3    H130733   1.402   0.341   5.762  1.0116  0.8327  1.4952
 3058TIP3    H230734   1.284   0.269   5.823 -1.0453  1.5322 -1.4361
 3059TIP3   OH230735   6.541   5.501   5.800  0.1250  0.2543  0.5613
 3059TIP3    H130736   6.452   5.538   5.804  0.7252  1.7848  0.3128
 3059TIP3    H230737   6.547   5.462   5.713  0.0529  1.0807  0.1841
 3060TIP3   OH230738   1.033   6.860   6.186 -0.6380  0.5052  0.1419
 3060TIP3    H130739   1.047   6.946   6.146 -0.8655  1.1950  1.4757
 3060TIP3    H230740   1.114   6.812   6.170 -0.1048  1.3443  0.2930
 3061TIP3   OH230741   0.553   0.338   0.630  0.1923  0.0508 -0.0808
 3061TIP3    H130742   0.493   0.264   0.630  1.5593 -1.1131  1.1252
 3061TIP3    H230743   0.525   0.392   0.704 -1.2309  1.1674 -1.3669
 3062TIP3   OH230744   5.047   0.618   7.110 -0.3768  0.4264 -0.4154
 3062TIP3    H130745   4.965   0.583   7.073 -1.0746  1.2193  0.3359
 3062TIP3    H230746   5.072   0.553   7.175  0.0247 -0.2041 -1.1755
 3063TIP3   OH230747   0.288   3.158   0.025  0.8136 -0.4153 -0.0752
 3063TIP3    H130748   0.245   3.100   0.089  2.5223 -0.3495  1.2060
 3063TIP3    H230749   0.381   3.144   0.039  1.2598  1.5102 -0.8183
 3064TIP3   OH230750   1.711   0.126   1.173  0.2924  0.2825 -1.0148
 3064TIP3    H130751   1.616   0.113   1.175  0.4264 -0.5940  0.3515
 3064TIP3    H230752   1.737   0.130   1.265  1.5717  0.6747 -1.3729
 3065TIP3   OH230753   5.706   6.367   6.174  0.3239 -0.1078 -0.3149
 3065TIP3    H130754   5.612   6.381   6.164  0.0176 -0.4999  1.5451
 3065TIP3    H230755   5.736   6.339   6.088 -0.4284  4.1470 -2.1829
 3066TIP3   OH230756   2.784   3.010   0.432  0.7038 -0.0288 -0.4985
 3066TIP3    H130757   2.736   3.003   0.349  2.6827 -1.4194 -1.6199
 3066TIP3    H230758   2.840   3.086   0.420 -0.0938  0.6884  0.2093
 3067TIP3   OH230759   4.572   5.766   5.889  0.4505 -0.2661 -0.1081
 3067TIP3    H130760   4.542   5.693   5.834  0.6047  0.6796 -1.4994
 3067TIP3    H230761   4.492   5.810   5.917  0.3457 -1.1008  0.9545
 3068TIP3   OH230762   5.847   0.841   1.584 -0.0348 -0.7307  0.2216
 3068TIP3    H130763   5.849   0.934   1.562  1.1492 -0.9935 -0.9481
 3068TIP3    H230764   5.939   0.817   1.595 -0.3792 -1.5486  1.5815
 3069TIP3   OH230765   3.199   0.477   6.357 -0.1461  0.4686 -0.7745
 3069TIP3    H130766   3.112   0.489   6.396 -0.1330 -1.4562 -0.0377
 3069TIP3    H230767   3.182   0.477   6.263 -1.1643 -1.0216 -0.6309
 3070TIP3   OH230768   2.008   2.752   0.724 -0.5443  0.3558 -0.1166
 3070TIP3    H130769   2.056   2.809   0.784 -0.1295 -0.8748  0.7654
 3070TIP3    H230770   2.069   2.737   0.652  0.2764 -0.8759  0.8062
 3071TIP3   OH230771   4.607   4.485   0.370  0.6098 -0.1819  0.0073
 3071TIP3    H130772   4.656   4.451   0.295 -0.6022  0.7540 -1.2737
 3071TIP3    H230773   4.584   4.575   0.345 -1.9072 -0.6267  0.4041
 3072TIP3   OH230774   7.158   3.360   5.525 -0.0743  0.2311  0.1731
 3072TIP3    H130775   7.084   3.390   5.473 -0.1093  2.1827  1.2576
 3072TIP3    H230776   7.205   3.300   5.467  0.1746  2.6632 -2.3301
 3073TIP3   OH230777   5.911   4.830   7.365 -0.3047  0.4134  0.1812
 3073TIP3    H130778   5.933   4.783   7.284  0.2258  0.1199  0.4860
 3073TIP3    H230779   5.985   4.888   7.380  0.1352 -0.3315  1.0347
 3074TIP3   OH230780   3.320   3.473   7.079  0.1467 -0.4595  0.0592
 3074TIP3    H130781   3.304   3.406   7.145  3.0882 -1.2857  0.0562
 3074TIP3    H230782   3.248   3.461   7.016 -1.3128 -1.2848  1.7700
 3075TIP3   OH230783   2.142   0.441   6.140  0.4767  0.3815 -0.2875
 3075TIP3    H130784   2.214   0.378   6.146  2.3136  2.4469  0.8448
 3075TIP3    H230785   2.137   0.462   6.047  0.6709 -0.4879 -0.5055
 3076TIP3   OH230786   6.737   3.191   6.855  0.0028 -0.1266  0.1882
 3076TIP3    H130787   6.822   3.201   6.812  0.1259  1.7064  0.7506
 3076TIP3    H230788   6.751   3.121   6.919  0.3749 -1.4924 -1.3141
 3077TIP3   OH230789   5.936   1.481   7.044  0.0488 -0.3567 -0.3274
 3077TIP3    H130790   5.853   1.460   7.086  0.6726 -0.0994  1.0775
 3077TIP3    H230791   5.992   1.512   7.115  1.5083 -0.9960 -1.1591
 3078TIP3   OH230792   1.263   2.612   6.709 -0.2495  0.5184 -0.1340
 3078TIP3    H130793   1.225   2.589   6.624 -0.4249  0.0727  0.0650
 3078TIP3    H230794   1.194   2.659   6.755 -0.8862 -1.0770  0.5809
 3079TIP3   OH230795   7.142   1.659   1.006  0.1438  0.4904 -0.3715
 3079TIP3    H130796   7.124   1.619   1.091 -0.4589 -0.8232 -1.0859
 3079TIP3    H230797   7.075   1.623   0.948 -0.5250  2.6656 -1.0596
 3080TIP3   OH230798   5.002   3.251   7.853 -0.0798  0.1283 -0.1300
 3080TIP3    H130799   5.035   3.161   7.841  0.1725  0.2699 -0.5102
 3080TIP3    H230800   5.028   3.274   7.942  1.5262  0.5108 -0.6664
 3081TIP3   OH230801   5.149   6.310   7.386  0.7458 -0.0196  0.5143
 3081TIP3    H130802   5.089   6.378   7.415  1.3249  1.8299 -2.2398
 3081TIP3    H230803   5.094   6.248   7.337  0.6306  0.1005  0.4903
 3082TIP3   OH230804   1.661   4.081   6.399 -0.1034  0.4272  0.2496
 3082TIP3    H130805   1.625   4.006   6.352  1.5182  0.7872 -1.6562
 3082TIP3    H230806   1.622   4.157   6.356  0.6608  0.7434  0.1136
 3083TIP3   OH230807   3.100   5.116   7.718  0.4731 -0.3097  0.3664
 3083TIP3    H130808   3.150   5.184   7.763 -0.0423 -1.0293  2.1176
 3083TIP3    H230809   3.009   5.146   7.722  0.5429  0.3103 -1.5461
 3084TIP3   OH230810   6.063   2.171   7.198  0.5746  0.4742  0.1324
 3084TIP3    H130811   5.987   2.138   7.151  2.0069 -0.2388 -1.8359
 3084TIP3    H230812   6.073   2.261   7.167  1.3432  0.1000 -0.7658
 3085TIP3   OH230813   5.209   6.779   0.937  0.5791 -1.0823  0.1199
 3085TIP3    H130814   5.269   6.789   0.863 -0.0138 -0.1389 -0.2536
 3085TIP3    H230815   5.124   6.763   0.896  0.1786 -0.1791  0.5811
 3086TIP3   OH230816   1.345   0.727   0.030  0.3523 -0.3426  0.1700
 3086TIP3    H130817   1.379   0.638   0.020  2.0001  0.0703  1.5467
 3086TIP3    H230818   1.363   0.750   0.121  1.1620  1.8554 -0.4659
 3087TIP3   OH230819   1.184   2.364   6.861  0.6957 -0.6189  1.0232
 3087TIP3    H130820   1.245   2.392   6.793 -0.2153 -0.6673  0.1604
 3087TIP3    H230821   1.232   2.377   6.943  0.8285  2.1889  0.6140
 3088TIP3   OH230822   1.623   3.683   6.975 -0.4304 -0.7111  0.2486
 3088TIP3    H130823   1.574   3.601   6.981 -1.6995  0.0031 -0.1801
 3088TIP3    H230824   1.702   3.659   6.926 -0.8129 -1.6542  0.0578
 3089TIP3   OH230825   4.839   5.497   7.980  0.2977 -0.1891 -0.0576
 3089TIP3    H130826   4.807   5.583   8.008  2.2529  0.6579 -0.2725
 3089TIP3    H230827   4.855   5.449   8.061  0.7129  0.2502  0.1249
 3090TIP3   OH230828   1.977   4.369   8.027 -0.3208 -0.4612 -0.1736
 3090TIP3    H130829   2.000   4.433   8.094 -1.5462 -0.7010  0.5093
 3090TIP3    H230830   1.929   4.420   7.961  1.6545 -0.0472 -1.3694
 3091TIP3   OH230831   0.586   5.705   7.253 -0.1478  0.0424 -0.4634
 3091TIP3    H130832   0.609   5.767   7.323  0.4012 -0.1309 -0.4823
 3091TIP3    H230833   0.649   5.724   7.184 -1.1187  0.6775 -1.2008
 3092TIP3   OH230834   4.535   4.364   7.543 -0.4677 -0.3695 -0.5142
 3092TIP3    H130835   4.450   4.337   7.577 -0.8121 -0.2268 -1.2493
 3092TIP3    H230836   4.532   4.344   7.450  0.2894 -0.3188 -0.5618
 3093TIP3   OH230837   6.943   6.066   7.128  0.0204  0.3487  0.1358
 3093TIP3    H130838   6.959   6.078   7.034  0.2005  0.5213  0.1869
 3093TIP3    H230839   6.851   6.042   7.134 -0.5479  2.2864  0.0570
 3094TIP3   OH230840   6.567   4.725   8.005  0.0856  0.2077 -0.0205
 3094TIP3    H130841   6.544   4.698   7.916  0.2193 -0.9469  0.2726
 3094TIP3    H230842   6.611   4.648   8.042  0.3260  0.7928  0.9308
 3095TIP3   OH230843   5.421   5.166   7.282 -0.0464 -0.0307  0.2098
 3095TIP3    H130844   5.438   5.096   7.219  0.1518  0.5237 -0.3627
 3095TIP3    H230845   5.489   5.156   7.348 -1.9399 -2.4560  1.9989
 3096TIP3   OH230846   3.852   0.982   0.781 -0.8953 -0.4417  0.0915
 3096TIP3    H130847   3.864   0.916   0.713  1.5767  0.3483 -0.3385
 3096TIP3    H230848   3.815   1.057   0.734 -0.2900 -0.2950 -0.1589
 3097TIP3   OH230849   2.188   0.510   0.404 -0.2647  0.3121 -0.5164
 3097TIP3    H130850   2.270   0.516   0.356 -0.1590 -0.9293 -0.5184
 3097TIP3    H230851   2.172   0.599   0.436  0.5880  0.7610 -1.3100
 3098TIP3   OH230852   0.068   5.410   0.685 -0.3723  0.2914  0.1477
 3098TIP3    H130853   0.102   5.497   0.664 -2.6298  1.2026 -0.0678
 3098TIP3    H230854  -0.021   5.426   0.717 -0.9804 -1.9678 -0.1988
 3099TIP3   OH230855   5.518   4.985   7.801 -0.1964 -0.2458 -0.2410
 3099TIP3    H130856   5.490   5.052   7.863 -2.0409 -1.3537  0.2098
 3099TIP3    H230857   5.527   4.905   7.853 -1.3390 -1.0990 -1.2716
 3100TIP3   OH230858   4.592   0.372   7.257 -0.2833 -0.1294  0.5177
 3100TIP3    H130859   4.528   0.402   7.322 -1.7655  2.6150 -1.9538
 3100TIP3    H230860   4.544   0.309   7.204 -0.6842  1.1667 -0.7127
 3101TIP3   OH230861   3.440   6.007   7.392 -0.1452  0.2235 -0.0314
 3101TIP3    H130862   3.468   5.981   7.305 -0.9471  0.4260 -0.3635
 3101TIP3    H230863   3.509   5.976   7.451  0.1538 -0.3619 -0.6841
 3102TIP3   OH230864   4.302   7.108   5.735 -0.3001 -0.8222  0.1426
 3102TIP3    H130865   4.366   7.059   5.787  0.0130 -0.3911  0.1769
 3102TIP3    H230866   4.219   7.094   5.781  0.2767  1.1610  1.9896
 3103TIP3   OH230867   5.248   5.904   6.975  0.3310  0.0299 -0.2946
 3103TIP3    H130868   5.182   5.877   6.911  1.0694 -0.7038 -0.7674
 3103TIP3    H230869   5.239   5.841   7.046  0.0065  0.3980 -0.0083
 3104TIP3   OH230870   6.779   0.801   6.147 -0.2271 -0.0658  0.6559
 3104TIP3    H130871   6.827   0.740   6.090 -1.0649  0.1168 -0.2711
 3104TIP3    H230872   6.835   0.878   6.152 -0.3435  0.1011 -0.3274
 3105TIP3   OH230873   6.812   6.610   7.030  0.2748 -0.1945  0.2085
 3105TIP3    H130874   6.753   6.540   7.057 -2.5720  1.6770 -0.6722
 3105TIP3    H230875   6.766   6.655   6.959  1.8634  2.6007  0.7613
 3106TIP3   OH230876   5.476   6.643   6.645  0.0550  0.6124 -0.3982
 3106TIP3    H130877   5.491   6.734   6.671  1.2166  0.4814 -0.5887
 3106TIP3    H230878   5.494   6.592   6.724  0.2364  0.4807 -0.5247
 3107TIP3   OH230879   0.712   6.907   1.243  0.0133  0.1042  0.5306
 3107TIP3    H130880   0.730   6.923   1.336 -1.6255  1.4280  0.6720
 3107TIP3    H230881   0.676   6.819   1.240  2.1702 -0.8526  0.8012
 3108TIP3   OH230882   1.698   1.878   1.580 -0.2398  0.2562  0.0236
 3108TIP3    H130883   1.734   1.935   1.512 -0.4656  0.6770  0.2527
 3108TIP3    H230884   1.667   1.938   1.648 -3.0805  0.0750 -0.9601
 3109TIP3   OH230885   1.656   1.525   6.446 -0.1283  0.3807  0.5706
 3109TIP3    H130886   1.740   1.501   6.485 -0.2496  0.3668  0.8250
 3109TIP3    H230887   1.654   1.621   6.451  0.1631  0.4229 -0.0433
 3110TIP3   OH230888   6.805   0.776   7.025 -0.1931 -0.3765  0.1975
 3110TIP3    H130889   6.880   0.717   7.037  1.1970  0.8981 -1.5684
 3110TIP3    H230890   6.736   0.739   7.080  1.4733 -2.0629  1.2784
 3111TIP3   OH230891   2.799   6.254   7.385 -0.1840  0.1526  0.7712
 3111TIP3    H130892   2.798   6.320   7.454  0.6108 -0.1086  1.0457
 3111TIP3    H230893   2.886   6.262   7.346 -0.4529 -0.0373  0.1274
 3112TIP3   OH230894   1.664   6.585   6.270 -0.0950  0.1976 -0.0003
 3112TIP3    H130895   1.610   6.656   6.236  1.3779  1.8541  0.9086
 3112TIP3    H230896   1.703   6.545   6.193  0.1052  1.2736 -0.4716
 3113TIP3   OH230897   2.837   4.818   0.337  0.3804 -0.4485  0.4082
 3113TIP3    H130898   2.778   4.813   0.413 -0.9680  0.4188 -0.5215
 3113TIP3    H230899   2.788   4.870   0.273  2.4419  0.8864 -0.1865
 3114TIP3   OH230900   2.515   0.240   8.013 -0.3207  0.5503  0.7630
 3114TIP3    H130901   2.496   0.322   7.968  0.9277  1.9010  2.5797
 3114TIP3    H230902   2.604   0.218   7.986 -0.1000  0.6106  1.4198
 3115TIP3   OH230903   4.857   6.925   7.825 -0.0119  0.0917 -0.3639
 3115TIP3    H130904   4.794   6.861   7.859  0.9374  0.0393  1.4115
 3115TIP3    H230905   4.919   6.938   7.896  0.8411  1.6739 -1.3322
 3116TIP3   OH230906   5.803   6.415   7.149  0.3027  1.0268  0.4891
 3116TIP3    H130907   5.724   6.469   7.153  0.6591  1.4725  1.9359
 3116TIP3    H230908   5.797   6.371   7.064 -1.3656  1.2527  0.4544
 3117TIP3   OH230909   4.492   0.210   1.532  0.1877 -0.4406 -0.0198
 3117TIP3    H130910   4.529   0.128   1.498  1.6749 -1.1328  2.8834
 3117TIP3    H230911   4.432   0.181   1.602 -0.4315  0.9283  0.0403
 3118TIP3   OH230912   3.838   5.019   6.567 -0.9685  0.2534 -0.8673
 3118TIP3    H130913   3.842   5.015   6.662  1.4575 -1.4543 -0.9536
 3118TIP3    H230914   3.852   5.112   6.546  0.2890  0.3954  0.4394
 3119TIP3   OH230915   0.401   4.186   1.151 -0.0187  0.2261  0.1904
 3119TIP3    H130916   0.430   4.107   1.105  3.6228  2.0635 -1.1587
 3119TIP3    H230917   0.347   4.232   1.087 -2.1884 -1.0697  0.9963
 3120TIP3   OH230918   0.920   4.767   0.344 -0.1012  0.3103 -0.0428
 3120TIP3    H130919   1.004   4.730   0.372  0.4204  1.9085  0.6119
 3120TIP3    H230920   0.935   4.796   0.254 -0.4401 -0.8180 -0.4740
 3121TIP3   OH230921   5.634   6.640   7.925  0.4713  0.3453 -0.7733
 3121TIP3    H130922   5.714   6.610   7.884  0.7477  0.7206 -0.5164
 3121TIP3    H230923   5.656   6.725   7.963  0.6746 -0.6480  1.4751
 3122TIP3   OH230924   3.305   3.534   7.385 -0.0935  0.0661  0.6521
 3122TIP3    H130925   3.344   3.491   7.460 -0.4007  0.2678  0.9282
 3122TIP3    H230926   3.219   3.494   7.376  0.7268 -1.4772 -0.8817
 3123TIP3   OH230927   5.051   3.734   7.604  0.2684  0.0125 -0.2459
 3123TIP3    H130928   5.125   3.746   7.664  1.3339 -0.4291 -1.4174
 3123TIP3    H230929   5.027   3.642   7.615  1.0514 -0.3117 -1.1072
 3124TIP3   OH230930   0.768   6.637   1.222 -0.3965 -0.1396  0.7387
 3124TIP3    H130931   0.704   6.593   1.166 -2.7520  1.9694  1.5763
 3124TIP3    H230932   0.788   6.573   1.290  1.0748 -2.0523 -1.3095
 3125TIP3   OH230933   4.744   6.285   1.541  0.3136 -0.0765  0.3112
 3125TIP3    H130934   4.791   6.223   1.597  1.6781  0.0716 -0.6412
 3125TIP3    H230935   4.666   6.308   1.592  1.1205 -0.5378  1.8113
 3126TIP3   OH230936   0.693   0.087   7.847 -0.1585 -0.8131 -0.5390
 3126TIP3    H130937   0.684   0.074   7.942  0.2283 -2.1203 -0.6613
 3126TIP3    H230938   0.610   0.053   7.811  0.5746 -2.3997 -0.8143
 3127TIP3   OH230939   5.488   0.306   7.236 -0.0687  0.2993 -1.0735
 3127TIP3    H130940   5.471   0.347   7.321  0.5562 -0.5350 -0.5199
 3127TIP3    H230941   5.460   0.371   7.172  2.2106  2.2552 -0.2791
 3128TIP3   OH230942   2.312   4.842   7.932  0.1260 -0.4043  0.6533
 3128TIP3    H130943   2.259   4.861   7.855  0.1443 -3.7869 -0.3128
 3128TIP3    H230944   2.402   4.846   7.901  0.2461  0.2081  1.0437
 3129TIP3   OH230945   3.278   1.793   1.374  0.2876  0.1309 -0.2506
 3129TIP3    H130946   3.321   1.830   1.452  0.6402 -0.5076 -0.1317
 3129TIP3    H230947   3.220   1.862   1.344  0.3476  0.4915  0.4266
 3130TIP3   OH230948   6.478   1.398   0.160  0.6851 -0.0286  0.0282
 3130TIP3    H130949   6.399   1.452   0.160  1.2622  0.8266 -0.3616
 3130TIP3    H230950   6.536   1.440   0.223  0.7776 -0.7469  0.4366
 3131TIP3   OH230951   1.536   6.855   0.865  0.1417 -0.0457 -0.1719
 3131TIP3    H130952   1.527   6.834   0.958 -0.0499  0.4423 -0.0768
 3131TIP3    H230953   1.546   6.950   0.863 -1.8033  0.2016 -0.7715
 3132TIP3   OH230954   2.028   4.456   6.572 -0.2031  0.3921  0.0293
 3132TIP3    H130955   1.957   4.481   6.513  0.5016  0.2917 -0.8781
 3132TIP3    H230956   2.035   4.529   6.634  0.2742  1.3853 -1.1498
 3133TIP3   OH230957   0.623   0.861   6.886 -0.1509  0.0245  0.0081
 3133TIP3    H130958   0.565   0.801   6.935  1.5825 -0.7656  1.2070
 3133TIP3    H230959   0.615   0.944   6.932  0.5877 -0.4128  0.9618
 3134TIP3   OH230960   3.335   5.929   7.649  0.0603 -0.7954 -0.1152
 3134TIP3    H130961   3.358   5.938   7.556  0.5177  1.9875  0.1690
 3134TIP3    H230962   3.306   6.016   7.674 -0.7388 -1.6697  2.2187
 3135TIP3   OH230963   4.518   2.114   6.737 -0.2028  0.0339 -0.2273
 3135TIP3    H130964   4.538   2.034   6.689  1.1466  0.0712  0.2511
 3135TIP3    H230965   4.577   2.114   6.812 -2.1458  0.0528  1.3956
 3136TIP3   OH230966   3.412   0.490   7.494  0.2276 -0.1059 -0.3468
 3136TIP3    H130967   3.450   0.428   7.557 -1.4625 -0.2933  0.5560
 3136TIP3    H230968   3.447   0.463   7.409  0.1026 -1.8646  0.1212
 3137TIP3   OH230969   2.608   6.617   6.416  0.4284  0.0218 -0.4990
 3137TIP3    H130970   2.590   6.536   6.368  1.2993 -0.9239  0.7182
 3137TIP3    H230971   2.703   6.623   6.419  0.3838  0.5031  0.3736
 3138TIP3   OH230972   0.722   3.336   7.032 -0.0868  0.3404  0.2936
 3138TIP3    H130973   0.662   3.278   6.985  1.1091  0.8727 -2.0651
 3138TIP3    H230974   0.677   3.355   7.114 -2.8241  0.1329 -1.0143
 3139TIP3   OH230975   0.393   0.882   1.689  0.3007  0.0348 -0.5127
 3139TIP3    H130976   0.345   0.946   1.742  1.2122  0.6475 -0.4056
 3139TIP3    H230977   0.375   0.798   1.732 -2.1860 -0.0519 -1.5560
 3140TIP3   OH230978   1.320   3.478   0.568 -0.1521  0.2046 -0.2720
 3140TIP3    H130979   1.344   3.409   0.630 -1.2082 -1.7801 -1.9481
 3140TIP3    H230980   1.352   3.559   0.609  1.4333 -1.2697  1.6364
 3141TIP3   OH230981   3.483   2.323   6.387 -0.0160  0.2046  0.2930
 3141TIP3    H130982   3.428   2.262   6.435  0.2589  0.5775  1.1013
 3141TIP3    H230983   3.423   2.367   6.327 -0.1282 -1.1854 -0.6527
 3142TIP3   OH230984   5.733   3.055   0.400  0.2075 -0.1611 -0.0401
 3142TIP3    H130985   5.690   3.028   0.319  0.7093 -0.1445 -0.3210
 3142TIP3    H230986   5.725   3.150   0.401 -1.7145 -0.3049  1.0378
 3143TIP3   OH230987   1.823   3.012   7.282 -0.8154 -0.8674 -0.2728
 3143TIP3    H130988   1.866   2.994   7.198  0.5222  1.4978 -0.1665
 3143TIP3    H230989   1.869   3.088   7.317 -2.2303 -0.9691  2.0006
 3144TIP3   OH230990   5.160   0.846   7.258 -0.4950  0.5409  0.2187
 3144TIP3    H130991   5.087   0.907   7.269  0.4916  1.8633 -0.2711
 3144TIP3    H230992   5.206   0.878   7.181  0.1035 -0.8054 -0.0060
 3145TIP3   OH230993   6.125   3.583   5.412 -0.1936  0.4694  0.4638
 3145TIP3    H130994   6.061   3.514   5.394  1.0942  0.0547 -3.3402
 3145TIP3    H230995   6.196   3.538   5.457 -0.3778 -0.1796  0.1256
 3146TIP3   OH230996   2.089   5.242   6.505 -0.6514  0.0859 -0.1481
 3146TIP3    H130997   2.164   5.300   6.520 -1.1076  0.9020 -0.9293
 3146TIP3    H230998   2.017   5.282   6.554 -0.5124 -0.8982  0.9118
 3147TIP3   OH230999   3.013   1.572   7.611 -0.0559  1.0571  0.3151
 3147TIP3    H131000   3.028   1.589   7.704  1.8907 -0.5432  0.3636
 3147TIP3    H231001   3.089   1.608   7.567  0.6343 -0.9575 -0.2675
 3148TIP3   OH231002   0.057   7.143   6.641  0.2743  0.4161 -0.2003
 3148TIP3    H131003  -0.034   7.164   6.660 -0.0729 -0.6943 -0.5445
 3148TIP3    H231004   0.060   7.138   6.545  0.4036 -0.7346 -0.1473
 3149TIP3   OH231005   4.271   0.891   6.657  0.2493  0.0649 -0.2483
 3149TIP3    H131006   4.195   0.934   6.695  0.1270 -0.9080  0.6417
 3149TIP3    H231007   4.253   0.891   6.563 -0.7902 -0.0474 -0.0636
 3150TIP3   OH231008   3.581   0.219   7.044  0.1364 -0.5156 -0.0447
 3150TIP3    H131009   3.656   0.273   7.069 -0.6978  0.7842 -0.2705
 3150TIP3    H231010   3.595   0.136   7.090  0.6369  0.4276  1.5725
 3151TIP3   OH231011   4.546   6.400   7.804 -0.3554  0.1395 -0.5748
 3151TIP3    H131012   4.510   6.479   7.764  0.9599  1.4600  0.7023
 3151TIP3    H231013   4.553   6.421   7.897 -0.1061 -1.5417 -0.1799
 3152TIP3   OH231014   4.287   1.948   6.423  0.5292  0.5071  0.4439
 3152TIP3    H131015   4.228   1.892   6.372  1.9180 -0.6963  0.0936
 3152TIP3    H231016   4.258   1.937   6.513 -0.3154  0.6023  0.1943
 3153TIP3   OH231017   4.978   0.248   1.064  0.0408  0.1856 -0.5082
 3153TIP3    H131018   4.967   0.330   1.015 -1.7819 -1.0462 -2.3281
 3153TIP3    H231019   4.910   0.251   1.132 -0.6535 -0.1918 -1.1715
 3154TIP3   OH231020   3.019   4.365   6.967 -0.1534  0.1036  0.2585
 3154TIP3    H131021   3.044   4.446   6.923  1.2980 -0.9085 -0.8756
 3154TIP3    H231022   3.096   4.339   7.016 -0.4737 -0.7568  0.3332
 3155TIP3   OH231023   0.722   1.634   6.802 -0.0130 -0.0030 -0.3296
 3155TIP3    H131024   0.710   1.660   6.893 -1.6872  0.3380 -0.6115
 3155TIP3    H231025   0.633   1.618   6.770  0.4574  0.8458 -2.1748
 3156TIP3   OH231026   1.569   4.389   7.816  0.3338  0.0934 -0.2328
 3156TIP3    H131027   1.664   4.397   7.818  0.2664  1.6210 -1.2291
 3156TIP3    H231028   1.550   4.350   7.731  0.0996 -1.2524  0.4153
 3157TIP3   OH231029   0.514   0.625   7.012  0.3692  0.1288 -0.1204
 3157TIP3    H131030   0.437   0.590   7.056  0.7885 -0.1504  0.4039
 3157TIP3    H231031   0.584   0.564   7.035  0.8976  0.7719 -0.0036
 3158TIP3   OH231032   1.498   2.811   6.805 -0.0428 -0.2872  0.5685
 3158TIP3    H131033   1.467   2.721   6.802 -0.4465 -0.1206 -0.3557
 3158TIP3    H231034   1.584   2.805   6.848 -0.2455 -1.0512  0.8836
 3159TIP3   OH231035   5.587   0.998   1.281 -0.0093  0.2933  0.3169
 3159TIP3    H131036   5.525   0.973   1.349 -1.8844 -0.6165 -1.6071
 3159TIP3    H231037   5.627   0.916   1.253  0.6341  0.6349  0.2202
 3160TIP3   OH231038   3.352   4.523   0.587 -0.2423 -0.1605 -0.6485
 3160TIP3    H131039   3.274   4.518   0.642  0.5127 -0.2901  0.4385
 3160TIP3    H231040   3.398   4.441   0.604 -0.2259 -0.4250 -1.8609
 3161TIP3   OH231041   5.437   5.739   5.672  0.4181 -0.3782 -0.1290
 3161TIP3    H131042   5.364   5.689   5.635 -0.2194 -1.4425  2.3511
 3161TIP3    H231043   5.495   5.673   5.708  0.7589  0.5703  1.1262
 3162TIP3   OH231044   4.146   0.140   6.840 -0.1140  0.2378 -0.2433
 3162TIP3    H131045   4.140   0.151   6.935  0.3058 -0.4603 -0.1288
 3162TIP3    H231046   4.150   0.045   6.827  4.0803  0.2623 -0.6287
 3163TIP3   OH231047   3.623   5.720   7.287  0.2198  0.2533  0.1421
 3163TIP3    H131048   3.710   5.748   7.260  0.5531 -0.7555  0.1467
 3163TIP3    H231049   3.566   5.794   7.265  1.2436  1.3927  1.2219
 3164TIP3   OH231050   1.649   2.440   2.334 -0.6865 -0.1878 -0.1927
 3164TIP3    H131051   1.642   2.350   2.303 -0.5170 -0.4311  0.4696
 3164TIP3    H231052   1.559   2.471   2.340 -0.7056  0.2679 -2.0608
 3165TIP3   OH231053   2.395   5.850   0.698  0.3113  0.2091 -0.5418
 3165TIP3    H131054   2.326   5.848   0.764 -0.3831  1.8281 -1.1728
 3165TIP3    H231055   2.385   5.934   0.654  0.4918 -0.9375 -2.9750
 3166TIP3   OH231056   2.574   0.187   6.556  0.1964  0.0817 -0.3422
 3166TIP3    H131057   2.636   0.254   6.584 -0.4284  0.0881  1.0999
 3166TIP3    H231058   2.507   0.236   6.508  0.2774  0.3467 -0.1880
 3167TIP3   OH231059   5.934   0.203   7.925 -1.0076 -0.3689 -0.1985
 3167TIP3    H131060   5.855   0.164   7.963 -0.7271 -1.1017 -0.3675
 3167TIP3    H231061   5.982   0.238   8.000 -1.6953  0.4814 -0.1289
 3168TIP3   OH231062   2.226   5.294   1.396 -0.1522 -0.2468 -0.5482
 3168TIP3    H131063   2.282   5.367   1.420 -0.9997  0.1003  0.4428
 3168TIP3    H231064   2.143   5.334   1.371 -0.0263 -0.7576 -1.8856
 3169TIP3   OH231065   5.323   2.528   0.898 -0.0557  0.6628  0.1797
 3169TIP3    H131066   5.391   2.495   0.957  0.3238  0.5268 -0.3301
 3169TIP3    H231067   5.371   2.579   0.833 -0.5042  1.0667  0.1603
 3170TIP3   OH231068   2.950   3.265   0.806 -0.2655 -0.1212  0.0180
 3170TIP3    H131069   2.940   3.328   0.734 -0.8267  1.0035  1.0555
 3170TIP3    H231070   2.953   3.318   0.885  3.9832 -1.0198  0.6785
 3171TIP3   OH231071   6.643   5.562   6.970  0.5403 -0.3547  0.5326
 3171TIP3    H131072   6.610   5.505   6.900  1.5093  0.1063 -0.3261
 3171TIP3    H231073   6.574   5.561   7.036 -0.2811 -1.0264 -0.3064
 3172TIP3   OH231074   5.755   2.090   6.912 -0.0567  0.0328  0.7968
 3172TIP3    H131075   5.800   2.140   6.844 -0.2726  0.2824  0.8338
 3172TIP3    H231076   5.668   2.131   6.918 -0.2176 -0.3114  0.8667
 3173TIP3   OH231077   1.625   2.850   1.376  0.7932  0.3652 -0.1062
 3173TIP3    H131078   1.677   2.924   1.344 -0.4130  1.8126  1.1079
 3173TIP3    H231079   1.624   2.862   1.471 -0.9316 -0.1745 -0.0311
 3174TIP3   OH231080   4.037   5.638   0.118  0.2569  0.1222  0.6302
 3174TIP3    H131081   3.979   5.684   0.057  0.6502  1.8219  1.4638
 3174TIP3    H231082   4.103   5.597   0.063 -0.7943 -0.4528 -0.2222
 3175TIP3   OH231083   1.204   5.220   2.021  0.4038  0.3943  0.4203
 3175TIP3    H131084   1.279   5.180   2.065 -0.6613 -0.5798  1.4067
 3175TIP3    H231085   1.174   5.288   2.081 -1.1980 -1.0932  1.3797
 3176TIP3   OH231086   6.401   4.920   7.330  0.1948  0.1787  0.0123
 3176TIP3    H131087   6.385   4.963   7.246 -0.2275  1.1589  0.5867
 3176TIP3    H231088   6.487   4.951   7.358  0.9373 -1.1650 -0.6536
 3177TIP3   OH231089   0.488   0.275   7.471  0.0741  0.0633  0.0566
 3177TIP3    H131090   0.407   0.224   7.473 -0.5658  1.0870  0.7960
 3177TIP3    H231091   0.517   0.278   7.563 -0.1821  1.4608  0.1108
 3178TIP3   OH231092   7.043   0.104   6.121 -0.1168  0.0775 -0.4481
 3178TIP3    H131093   7.079   0.016   6.117  3.5506  1.3908 -0.3210
 3178TIP3    H231094   7.016   0.123   6.031  1.2439 -0.4200 -0.9880
 3179TIP3   OH231095   3.518   4.483   1.387  0.1589  0.2338 -0.1279
 3179TIP3    H131096   3.558   4.548   1.444  1.2879 -0.8042  0.3196
 3179TIP3    H231097   3.424   4.497   1.397  0.3607  0.9789  0.9171
 3180TIP3   OH231098   1.375   2.105   6.899  0.7945  0.0956  0.2165
 3180TIP3    H131099   1.290   2.105   6.943  0.7944 -0.5710  0.2298
 3180TIP3    H231100   1.421   2.180   6.936 -0.9596  2.5257 -2.1535
 3181TIP3   OH231101   0.091   2.623   7.409 -0.2637  0.0238 -0.2507
 3181TIP3    H131102   0.077   2.689   7.478 -1.0463 -0.7737  0.3778
 3181TIP3    H231103   0.135   2.551   7.455  1.0909  0.3166 -1.0524
 3182TIP3   OH231104   0.140   3.766   7.626  0.3225  0.1000  0.0005
 3182TIP3    H131105   0.142   3.758   7.721  1.0808 -1.9151 -0.1357
 3182TIP3    H231106   0.097   3.685   7.596  0.1637  0.6638 -1.3753
 3183TIP3   OH231107   3.834   4.741   6.587 -0.0251 -0.4401 -0.3436
 3183TIP3    H131108   3.823   4.836   6.578 -0.2105 -0.4719 -0.4520
 3183TIP3    H231109   3.775   4.717   6.659 -1.9053 -0.8462 -1.9187
 3184TIP3   OH231110   4.080   3.003   2.263  0.4633  0.3649  0.1793
 3184TIP3    H131111   4.139   2.959   2.202 -1.3572  1.6027 -2.6997
 3184TIP3    H231112   3.998   2.953   2.258 -0.0239  1.0546  0.8668
 3185TIP3   OH231113   5.915   1.837   0.125  0.2403 -0.2975 -0.2391
 3185TIP3    H131114   5.892   1.842   0.217 -0.0316  0.0678 -0.3245
 3185TIP3    H231115   5.853   1.896   0.081  1.4689  0.9120 -0.4368
 3186TIP3   OH231116   4.972   0.817   6.660  0.4031  0.2645  0.2432
 3186TIP3    H131117   4.939   0.860   6.738  1.3566  0.0710  0.7561
 3186TIP3    H231118   5.005   0.888   6.605 -1.1872  0.5126 -0.4728
 3187TIP3   OH231119   3.447   0.537   8.003  0.0623  0.3866 -0.1784
 3187TIP3    H131120   3.398   0.562   8.081 -2.8087  0.0162 -1.7489
 3187TIP3    H231121   3.478   0.620   7.966 -2.4036  1.0553 -0.9550
 3188TIP3   OH231122   2.492   7.097   7.885 -0.3781 -0.0512  0.5786
 3188TIP3    H131123   2.428   7.025   7.886 -0.1885 -0.3130 -1.2896
 3188TIP3    H231124   2.574   7.055   7.858  0.1961  0.5646  1.3361
 3189TIP3   OH231125   3.750   0.154   7.929 -0.5442  0.4874 -0.6427
 3189TIP3    H131126   3.820   0.154   7.994  1.9022  1.8605 -3.0731
 3189TIP3    H231127   3.687   0.218   7.961  0.5417  1.0435  0.4518
 3190TIP3   OH231128   6.376   5.033   0.017 -0.3173 -0.2501  0.7330
 3190TIP3    H131129   6.326   4.973   0.072 -0.2816 -0.9401  0.0295
 3190TIP3    H231130   6.312   5.098  -0.012 -0.8864 -1.2314 -0.3124
 3191TIP3   OH231131   4.013   5.959   0.121  0.5982  0.1676  0.5898
 3191TIP3    H131132   3.984   6.019   0.053 -2.5409 -1.7222  0.0744
 3191TIP3    H231133   4.066   5.894   0.076 -0.2016 -0.2308  0.2195
 3192TIP3   OH231134   5.996   3.333   0.171 -0.4145 -0.6777 -0.3425
 3192TIP3    H131135   6.046   3.408   0.137 -0.8898  0.1076  0.6322
 3192TIP3    H231136   6.063   3.274   0.207 -0.0711 -0.4899 -0.6640
 3193TIP3   OH231137   2.618   0.426   0.240 -0.6002  0.1670  0.5282
 3193TIP3    H131138   2.630   0.407   0.333 -0.8862  1.9581  0.9565
 3193TIP3    H231139   2.649   0.347   0.195 -0.9980 -0.9600  2.1489
 3194TIP3   OH231140   5.993   1.739   6.826  0.1505  0.0591  0.2060
 3194TIP3    H131141   6.045   1.674   6.873  0.5919 -0.1393 -0.5298
 3194TIP3    H231142   5.927   1.767   6.889  0.5503 -0.3959  0.8479
 3195TIP3   OH231143   3.618   4.562   7.863  0.5188  0.0289 -0.5716
 3195TIP3    H131144   3.592   4.553   7.955 -0.3294 -2.0706 -0.9316
 3195TIP3    H231145   3.559   4.502   7.817  2.3678 -0.6478 -2.1979
 3196TIP3   OH231146   3.072   6.409   1.633  0.1376  0.4249  0.1677
 3196TIP3    H131147   3.142   6.466   1.664  0.2119 -0.0551  0.8917
 3196TIP3    H231148   3.099   6.384   1.544  2.3599 -2.0363  1.4168
 3197TIP3   OH231149   6.408   1.077   6.363  0.2147 -0.2578  0.0574
 3197TIP3    H131150   6.455   1.136   6.422 -0.5032  0.0209  0.3539
 3197TIP3    H231151   6.475   1.047   6.301  0.3461  1.9748 -0.9850
 3198TIP3   OH231152   2.399   2.781   6.819  0.5743  0.2599 -0.3176
 3198TIP3    H131153   2.349   2.720   6.766  0.3231  0.8892 -0.8281
 3198TIP3    H231154   2.488   2.776   6.785  0.9823 -1.1412  0.8417
 3199TIP3   OH231155   2.695   0.712   7.638 -0.4393 -0.5211 -0.3009
 3199TIP3    H131156   2.620   0.766   7.614 -0.8286 -0.2052  1.4973
 3199TIP3    H231157   2.757   0.773   7.677  1.0166 -0.6953 -2.2121
 3200TIP3   OH231158   6.411   4.977   7.639  0.3415 -0.3853 -0.3128
 3200TIP3    H131159   6.441   5.052   7.588  1.4380  0.0955  0.9859
 3200TIP3    H231160   6.415   4.903   7.578  0.3571  0.3985 -1.2775
 3201TIP3   OH231161   0.675   0.418   1.978 -0.1178  0.2160 -0.2846
 3201TIP3    H131162   0.626   0.399   1.898  1.9848  3.0584 -2.4746
 3201TIP3    H231163   0.689   0.332   2.018 -0.6566 -1.4556 -3.3378
 3202TIP3   OH231164   4.378   2.606   0.127  0.1131  0.1579  0.6216
 3202TIP3    H131165   4.373   2.564   0.213  0.2462  2.0990  1.6324
 3202TIP3    H231166   4.361   2.699   0.144  0.1606  0.6025 -1.4530
 3203TIP3   OH231167   3.921   4.010   0.075  0.4427 -0.3315  0.1045
 3203TIP3    H131168   3.878   3.931   0.044  1.7165 -0.9340 -0.1874
 3203TIP3    H231169   3.966   3.983   0.155  0.9734  0.0623 -0.0571
 3204TIP3   OH231170   5.860   6.177   0.287 -0.1267  0.0240  0.7757
 3204TIP3    H131171   5.917   6.236   0.239 -1.5216  1.4588  0.8013
 3204TIP3    H231172   5.834   6.111   0.223  0.3483  0.2223  0.3740
 3205TIP3   OH231173   0.082   1.700   6.719 -0.8643  0.2253  0.6611
 3205TIP3    H131174   0.026   1.778   6.717 -1.6930 -0.3610  0.1569
 3205TIP3    H231175   0.053   1.652   6.796 -1.2128 -0.1836  0.2818
 3206TIP3   OH231176   2.999   2.835   7.643  0.3201 -0.0697  0.3103
 3206TIP3    H131177   2.963   2.753   7.609  0.6285 -0.6146  1.2567
 3206TIP3    H231178   3.075   2.852   7.587  0.6228 -0.7707  0.4918
 3207TIP3   OH231179   5.749   2.746   0.138 -0.7723  0.3387 -0.0399
 3207TIP3    H131180   5.739   2.840   0.150  0.0620  0.2289  2.0914
 3207TIP3    H231181   5.816   2.721   0.203  0.2323 -1.4737 -1.6684
 3208TIP3   OH231182   1.912   0.107   1.802 -0.1761  0.0086 -0.3230
 3208TIP3    H131183   1.981   0.132   1.862 -1.8026  0.3558  1.5032
 3208TIP3    H231184   1.935   0.019   1.773  1.4287  0.4358 -0.4448
 3209TIP3   OH231185   0.853   1.764   7.400  0.0783  0.3801 -0.1037
 3209TIP3    H131186   0.891   1.839   7.447 -0.2734  0.2124  0.4574
 3209TIP3    H231187   0.780   1.736   7.455  1.0117 -1.2248  0.3969
 3210TIP3   OH231188   1.267   0.909   0.321 -0.3852  0.5114 -0.2513
 3210TIP3    H131189   1.346   0.920   0.374 -0.4896 -0.0306  0.0287
 3210TIP3    H231190   1.235   0.822   0.344  0.2585 -0.2635 -2.1399
 3211TIP3   OH231191   1.715   1.778   7.683  0.3188 -0.1007 -0.5073
 3211TIP3    H131192   1.758   1.703   7.723  0.1824 -0.7193 -1.4736
 3211TIP3    H231193   1.641   1.740   7.635 -0.0795  0.7147 -0.5612
 3212TIP3   OH231194   2.248   3.892   7.701 -0.4278  0.6219  0.4286
 3212TIP3    H131195   2.341   3.877   7.684 -0.6688  1.2655 -1.8027
 3212TIP3    H231196   2.209   3.805   7.697 -0.1843  0.5461 -0.7321
 3213TIP3   OH231197   0.724   6.887   6.502 -0.3157  0.4146 -0.1959
 3213TIP3    H131198   0.734   6.793   6.484 -2.4453 -0.5385  2.8815
 3213TIP3    H231199   0.634   6.907   6.479  0.2527  1.9382 -1.3212
 3214TIP3   OH231200   3.448   0.817   0.690 -0.1453  0.0675  0.4429
 3214TIP3    H131201   3.384   0.883   0.717 -0.6021 -0.9593  1.9811
 3214TIP3    H231202   3.473   0.843   0.601 -0.5159  2.1282  0.9019
 3215TIP3   OH231203   7.054   0.357   0.918 -0.1763  0.0207  0.1520
 3215TIP3    H131204   6.978   0.361   0.976  0.0766 -1.0272  0.5826
 3215TIP3    H231205   7.099   0.277   0.944  0.0152 -0.3987 -1.3984
 3216TIP3   OH231206   3.845   2.314   6.432 -0.1298  0.3548 -0.1778
 3216TIP3    H131207   3.796   2.324   6.350 -1.2769 -3.4300 -0.1412
 3216TIP3    H231208   3.927   2.271   6.405  0.1813  0.4829  0.5412
 3217TIP3   OH231209   1.613   1.388   0.466 -0.2490  0.3490 -0.0187
 3217TIP3    H131210   1.667   1.332   0.521  2.5310  2.2478 -0.6002
 3217TIP3    H231211   1.577   1.453   0.526 -0.2516  0.2514  0.0845
 3218TIP3   OH231212   1.723   6.444   7.282 -0.6660  0.3355  0.1057
 3218TIP3    H131213   1.710   6.498   7.360  0.6006  0.9734 -0.0938
 3218TIP3    H231214   1.772   6.500   7.222  0.3338 -0.8880 -0.2740
 3219TIP3   OH231215   3.335   4.934   1.443 -0.0547  0.2812  0.0010
 3219TIP3    H131216   3.268   4.866   1.451  1.2199 -1.3358 -1.9211
 3219TIP3    H231217   3.375   4.940   1.529 -1.2877 -0.2011  0.6239
 3220TIP3   OH231218   4.347   4.184   7.152  0.0109  0.6875  0.0310
 3220TIP3    H131219   4.442   4.170   7.146 -0.1486  0.1769 -1.6494
 3220TIP3    H231220   4.333   4.268   7.108 -0.3636  0.5555 -0.1040
 3221TIP3   OH231221   6.077   1.222   0.232 -0.1438  0.2525 -0.1820
 3221TIP3    H131222   6.119   1.199   0.149  2.2121 -0.4355  1.1105
 3221TIP3    H231223   6.046   1.312   0.218  0.4918  0.2746 -1.7063
 3222TIP3   OH231224   4.259   1.610   0.630 -0.2522 -0.1532 -0.5505
 3222TIP3    H131225   4.306   1.658   0.561  0.2643  0.2472  0.0703
 3222TIP3    H231226   4.319   1.540   0.656 -0.5327 -0.4334 -0.6454
 3223TIP3   OH231227   2.411   2.938   0.641  0.2144  0.0971 -0.3890
 3223TIP3    H131228   2.503   2.914   0.650  0.7556  1.9909 -0.4420
 3223TIP3    H231229   2.364   2.868   0.685  1.7532 -0.3290  0.6718
 3224TIP3   OH231230   3.011   1.098   0.068  0.3551 -0.0378 -0.0533
 3224TIP3    H131231   3.079   1.078   0.132  1.3134  0.6434 -0.8424
 3224TIP3    H231232   3.048   1.072  -0.016 -1.0489 -1.3014 -0.3178
 3225TIP3   OH231233   4.559   0.325   6.751  0.2064 -0.5893  0.6745
 3225TIP3    H131234   4.498   0.256   6.779 -0.0731 -0.2693  0.8621
 3225TIP3    H231235   4.635   0.277   6.718  0.5903 -0.9887  2.0774
 3226TIP3   OH231236   6.918   4.703   6.744  0.1168 -0.0855 -0.2134
 3226TIP3    H131237   6.998   4.650   6.754  0.4625  0.1063 -1.6552
 3226TIP3    H231238   6.859   4.669   6.811  1.0495 -0.9292  0.2242
 3227TIP3   OH231239   2.503   0.933   7.564 -1.0165 -0.4604 -0.0770
 3227TIP3    H131240   2.567   1.002   7.546 -1.3178  0.1132  0.9626
 3227TIP3    H231241   2.463   0.914   7.479 -0.5187  0.2256 -0.4734
 3228TIP3   OH231242   5.572   0.469   0.047  0.6808 -0.2511  0.2473
 3228TIP3    H131243   5.517   0.545   0.065  1.5341  0.4404  0.0537
 3228TIP3    H231244   5.512   0.395   0.048 -0.2899  0.4970 -0.2142
 3229TIP3   OH231245   4.294   3.699   6.185  0.3174  0.1199 -0.3207
 3229TIP3    H131246   4.281   3.776   6.130 -1.9984  1.1483  1.4755
 3229TIP3    H231247   4.327   3.733   6.268  2.0207 -1.1897 -0.3952
 3230TIP3   OH231248   2.953   2.011   6.386 -0.6317  0.0798 -0.3770
 3230TIP3    H131249   2.928   2.091   6.432  2.2969 -0.1285  1.8800
 3230TIP3    H231250   2.947   1.942   6.453  2.2143 -0.5171 -0.5845
 3231TIP3   OH231251   5.904   4.771   6.850 -0.0542  0.3810 -0.6183
 3231TIP3    H131252   5.854   4.695   6.820 -0.5063  1.4871 -2.9346
 3231TIP3    H231253   5.853   4.806   6.923  1.6507 -3.0704  2.5246
 3232TIP3   OH231254   3.362   2.444   0.135 -0.3035  0.6141 -0.0716
 3232TIP3    H131255   3.308   2.420   0.211 -0.4596 -1.5795 -0.8230
 3232TIP3    H231256   3.445   2.474   0.174 -1.7165  3.4403  1.0707
 3233TIP3   OH231257   3.387   4.968   0.825 -0.5088 -0.0297 -0.3972
 3233TIP3    H131258   3.471   4.974   0.870 -0.0124  0.6248 -1.3800
 3233TIP3    H231259   3.378   4.875   0.804  0.8983  0.1299 -1.9411
 3234TIP3   OH231260   5.520   2.493   1.126 -0.3893  0.0418 -0.6517
 3234TIP3    H131261   5.583   2.423   1.109  0.4056  0.6139 -0.1751
 3234TIP3    H231262   5.459   2.455   1.190  0.4818  0.0121  0.1904
 3235TIP3   OH231263   1.077   2.247   7.358  0.3164  0.1932  0.5653
 3235TIP3    H131264   1.008   2.219   7.297 -0.3705  3.9235 -0.6714
 3235TIP3    H231265   1.155   2.200   7.330 -1.0530 -1.9019  0.0645
 3236TIP3   OH231266   7.070   1.201   1.070 -0.1824 -0.1607 -0.4218
 3236TIP3    H131267   7.081   1.275   1.130  0.5010  2.0492 -3.0735
 3236TIP3    H231268   7.154   1.154   1.075  0.2935  0.6707 -0.4785
 3237TIP3   OH231269   5.981   0.310   0.514  0.5239  0.3758  0.1221
 3237TIP3    H131270   5.924   0.383   0.538 -0.0258  0.5422 -1.5542
 3237TIP3    H231271   6.064   0.351   0.491  0.0973  0.5614 -1.2000
 3238TIP3   OH231272   5.591   5.053   6.679 -0.7640  0.7491 -0.2843
 3238TIP3    H131273   5.641   5.032   6.600 -0.7895 -2.8715  0.4806
 3238TIP3    H231274   5.535   5.126   6.654  0.9493  1.3094 -2.8394
 3239TIP3   OH231275   1.768   1.173   7.901  0.0422 -0.4939 -0.7981
 3239TIP3    H131276   1.687   1.171   7.851  0.0190 -2.9922 -0.7783
 3239TIP3    H231277   1.742   1.152   7.991  0.5934 -0.2764 -0.5802
 3240TIP3   OH231278   5.627   2.495   7.067  0.4103 -0.7614 -0.0969
 3240TIP3    H131279   5.644   2.499   7.161  0.1562 -2.4320  0.0643
 3240TIP3    H231280   5.564   2.565   7.050  3.6405  2.5062  0.1322
 3241TIP3   OH231281   2.463   3.408   5.865 -0.3506 -0.1822 -0.0664
 3241TIP3    H131282   2.368   3.411   5.871 -0.7269 -1.4075 -3.2239
 3241TIP3    H231283   2.489   3.499   5.850 -0.7873  0.3842  2.2589
 3242TIP3   OH231284   6.829   1.204   1.226 -0.4024  0.2478  0.2861
 3242TIP3    H131285   6.869   1.181   1.142  0.6607  0.1262  0.7976
 3242TIP3    H231286   6.790   1.290   1.212  1.1644  0.9579  0.0942
 3243TIP3   OH231287   4.906   6.617   1.676 -0.5894 -0.2798  0.0670
 3243TIP3    H131288   4.974   6.551   1.660  0.0682  0.3399  0.2534
 3243TIP3    H231289   4.888   6.610   1.770  1.1196  1.3098  0.5763
 3244TIP3   OH231290   5.992   3.163   6.419  0.9236  0.1855 -0.3424
 3244TIP3    H131291   5.927   3.179   6.350 -0.6809  0.1558  1.0948
 3244TIP3    H231292   6.010   3.069   6.413  1.0038  0.2309 -0.8841
 3245TIP3   OH231293   6.072   3.631   6.108 -0.1934  0.0092 -0.0610
 3245TIP3    H131294   6.168   3.631   6.108 -0.1598  1.4116 -1.6347
 3245TIP3    H231295   6.048   3.539   6.120  1.3703 -0.6248 -1.4674
 3246TIP3   OH231296   5.615   5.318   0.063 -0.2103 -0.4719  0.1278
 3246TIP3    H131297   5.547   5.260   0.030  0.3646 -0.7953 -0.5353
 3246TIP3    H231298   5.679   5.322  -0.008  0.4495 -0.1634  0.7229
 3247TIP3   OH231299   0.774   1.952   6.998 -0.3159 -0.0421 -0.1111
 3247TIP3    H131300   0.740   2.030   6.956 -2.1449 -0.6201  0.2298
 3247TIP3    H231301   0.815   1.902   6.927  0.4241  0.9607 -0.4105
 3248TIP3   OH231302   0.113   5.070   0.672 -0.3137 -0.0869 -0.1353
 3248TIP3    H131303   0.150   4.988   0.704  0.2922  0.5094  0.7732
 3248TIP3    H231304   0.189   5.119   0.640 -0.3513  0.9344  1.2456
 3249TIP3   OH231305   1.370   5.545   6.963 -0.1872 -0.0964  0.0467
 3249TIP3    H131306   1.386   5.640   6.962  1.8768 -0.3937 -0.4312
 3249TIP3    H231307   1.428   5.511   7.031 -1.1750 -0.9941  0.4671
 3250TIP3   OH231308   4.047   3.931   6.188 -0.4022  0.4927  0.5380
 3250TIP3    H131309   4.119   3.956   6.130  0.3267  2.0489  1.9988
 3250TIP3    H231310   3.968   3.963   6.145 -0.2580 -1.2402 -1.0940
 3251TIP3   OH231311   0.912   0.529   6.173  0.4145  0.4567 -0.1285
 3251TIP3    H131312   1.005   0.516   6.194  0.2617  0.5811  0.6842
 3251TIP3    H231313   0.896   0.472   6.098  0.5259 -1.7128  1.3796
 3252TIP3   OH231314   2.223   3.550   0.593 -0.0094  0.0777 -0.1767
 3252TIP3    H131315   2.219   3.501   0.675 -1.7329  0.1983 -0.1464
 3252TIP3    H231316   2.306   3.596   0.596 -0.3355  0.6327  1.8407
 3253TIP3   OH231317   0.290   0.227   0.084 -0.1443  0.2633 -0.3318
 3253TIP3    H131318   0.259   0.246   0.172 -2.8544 -1.5047 -0.7796
 3253TIP3    H231319   0.287   0.311   0.039 -1.5611  0.7005  0.5126
 3254TIP3   OH231320   6.052   5.317   0.596 -0.0121  0.4087 -0.0291
 3254TIP3    H131321   6.006   5.370   0.661 -0.0568  1.3217 -0.7948
 3254TIP3    H231322   6.141   5.311   0.629 -0.6233 -1.3744  1.4707
 3255TIP3   OH231323   1.398   1.741   1.580 -0.3294 -0.4363  0.2767
 3255TIP3    H131324   1.370   1.831   1.596  0.2651 -0.5113  2.0112
 3255TIP3    H231325   1.324   1.699   1.536 -0.1770  1.1783 -1.6279
 3256TIP3   OH231326   2.040   4.393   1.415  0.0791  0.1091  0.2298
 3256TIP3    H131327   2.107   4.326   1.423 -0.4020 -0.3851  0.2379
 3256TIP3    H231328   2.014   4.389   1.322  0.6730  0.9060  0.0218
 3257TIP3   OH231329   0.991   4.046   7.958 -0.7747  0.1787 -0.7913
 3257TIP3    H131330   0.910   4.075   8.000  0.1929  1.8341  0.0330
 3257TIP3    H231331   0.981   4.072   7.866 -1.5262 -0.4380 -0.8939
 3258TIP3   OH231332   4.711   5.874   7.807  0.5133 -0.4490  0.5164
 3258TIP3    H131333   4.754   5.916   7.881 -0.8668  1.6851  0.1943
 3258TIP3    H231334   4.739   5.925   7.731 -0.1483 -0.9637 -0.0840
 3259TIP3   OH231335   2.941   7.106   0.475  0.7150 -0.0221 -0.7921
 3259TIP3    H131336   2.864   7.079   0.524  1.7896  1.0210  1.6615
 3259TIP3    H231337   2.935   7.202   0.473  1.3677  0.0128 -1.5958
 3260TIP3   OH231338   3.048   2.613   1.056 -0.2082 -0.0845 -0.1595
 3260TIP3    H131339   2.992   2.613   1.134 -0.8333 -0.1019 -0.6039
 3260TIP3    H231340   3.069   2.705   1.043  0.5886 -0.1551  0.5075
 3261TIP3   OH231341   4.529   1.045   0.044  0.0644  0.0018 -0.7467
 3261TIP3    H131342   4.496   1.070  -0.042 -1.8888  0.0804 -0.0466
 3261TIP3    H231343   4.454   1.002   0.086  0.5446  1.0837  1.3578
 3262TIP3   OH231344   6.107   5.650   6.904  0.1991  0.4526  0.2079
 3262TIP3    H131345   6.180   5.666   6.964 -0.5662 -0.8795  1.5573
 3262TIP3    H231346   6.031   5.688   6.947  0.2109  3.0608 -1.8108
 3263TIP3   OH231347   5.240   0.008   6.154 -0.4081 -0.4843 -0.1383
 3263TIP3    H131348   5.185  -0.033   6.087  1.5108 -2.4822 -0.6319
 3263TIP3    H231349   5.197   0.091   6.174 -2.4887 -1.0576 -1.8835
 3264TIP3   OH231350   0.208   7.157   6.899 -0.0905  0.0199  0.1899
 3264TIP3    H131351   0.133   7.215   6.891 -0.2049  0.3021  2.7144
 3264TIP3    H231352   0.186   7.082   6.843 -1.2847  0.9970 -0.7089
 3265TIP3   OH231353   4.693   6.605   0.544  0.0927 -0.0507 -0.4993
 3265TIP3    H131354   4.754   6.662   0.590  0.6502  0.5806 -1.9734
 3265TIP3    H231355   4.736   6.583   0.462  0.0546 -2.9301  0.1304
 3266TIP3   OH231356   4.625   5.269   0.582 -0.0766 -0.0627  0.0148
 3266TIP3    H131357   4.661   5.229   0.503 -0.3481  0.3308 -0.3127
 3266TIP3    H231358   4.574   5.199   0.623 -0.7322  0.0034 -0.6690
 3267TIP3   OH231359   6.639   2.179   6.151  0.7644  0.2608  0.5991
 3267TIP3    H131360   6.612   2.207   6.239  0.1103 -0.7519  0.7385
 3267TIP3    H231361   6.649   2.084   6.158  0.0234  0.0710 -0.5859
 3268TIP3   OH231362   0.878   6.292   6.269  0.0198 -0.3279  0.4152
 3268TIP3    H131363   0.918   6.326   6.189  0.5166 -0.4946  0.5867
 3268TIP3    H231364   0.943   6.310   6.337  0.4106 -1.8474  0.4630
 3269TIP3   OH231365   2.985   1.997   5.917  0.2023 -0.7067 -0.8827
 3269TIP3    H131366   2.895   2.016   5.895 -0.8271 -2.6613  1.1674
 3269TIP3    H231367   3.037   2.044   5.852 -2.2230  1.3253 -1.4957
 3270TIP3   OH231368   4.846   2.534   0.078  0.1392 -0.1658 -0.6385
 3270TIP3    H131369   4.850   2.621   0.117 -0.9762 -1.1403  1.9293
 3270TIP3    H231370   4.759   2.529   0.039  0.3569  0.0039 -1.1466
 3271TIP3   OH231371   7.122   4.832   0.781 -0.0348 -0.6247  0.7364
 3271TIP3    H131372   7.212   4.826   0.815 -0.2829 -2.2843  1.2024
 3271TIP3    H231373   7.129   4.885   0.702  1.3485 -0.6603  0.8139
 3272TIP3   OH231374   7.159   3.254   0.634  0.2554  0.1559 -0.2460
 3272TIP3    H131375   7.163   3.158   0.642 -2.8755 -0.0057  0.6810
 3272TIP3    H231376   7.124   3.283   0.718 -1.7997  1.7959 -1.5789
 3273TIP3   OH231377   3.230   0.959   7.555  0.5558  0.2945  0.7981
 3273TIP3    H131378   3.175   0.885   7.579  0.4702  0.7454  2.0639
 3273TIP3    H231379   3.320   0.929   7.569  0.6379 -0.2698 -0.7737
 3274TIP3   OH231380   7.159   5.895   6.690  0.4254 -0.3106  0.1834
 3274TIP3    H131381   7.244   5.903   6.647  0.7666 -2.7983  0.2510
 3274TIP3    H231382   7.095   5.906   6.619  0.7278  1.8720  0.1849
 3275TIP3   OH231383   3.546   1.990   6.911  0.0209  0.7320  0.5000
 3275TIP3    H131384   3.499   1.983   6.828  2.4884  0.4578 -0.9723
 3275TIP3    H231385   3.509   2.067   6.953 -1.3150  0.8619 -0.8122
 3276TIP3   OH231386   4.240   2.327   7.729 -0.5045 -0.4065 -0.1558
 3276TIP3    H131387   4.238   2.236   7.699 -0.9110 -0.8892  1.2813
 3276TIP3    H231388   4.303   2.370   7.671  2.6131 -2.4588  1.4562
 3277TIP3   OH231389   0.075   1.193   7.336 -0.0404  0.2024 -0.2538
 3277TIP3    H131390   0.043   1.108   7.307 -0.7281  0.2281  0.3959
 3277TIP3    H231391   0.104   1.237   7.256  0.5972 -0.7470 -0.5540
 3278TIP3   OH231392   1.502   2.088   6.203  0.5433  0.0802 -0.1718
 3278TIP3    H131393   1.552   2.023   6.154  1.2800 -0.9928  1.8746
 3278TIP3    H231394   1.551   2.100   6.285 -1.3495  0.6802  0.9495
 3279TIP3   OH231395   2.436   2.284   1.080  0.7729  0.7826 -0.5440
 3279TIP3    H131396   2.383   2.264   1.158  0.9609 -0.7889 -0.7863
 3279TIP3    H231397   2.505   2.342   1.113  0.8317  0.1716  0.4800
 3280TIP3   OH231398   1.836   2.481   7.731  0.0135 -0.1486 -0.3571
 3280TIP3    H131399   1.824   2.558   7.787 -3.1017 -1.0968  0.5022
 3280TIP3    H231400   1.830   2.515   7.642  2.1468  0.9914 -0.1370
 3281TIP3   OH231401   5.001   6.407   6.460  0.2263  0.3364  0.1602
 3281TIP3    H131402   4.949   6.338   6.420  1.3976 -0.6451  0.2702
 3281TIP3    H231403   5.019   6.468   6.389 -1.9295  1.2563  0.3538
 3282TIP3   OH231404   3.117   1.613   7.901  0.1953  0.1091  0.3132
 3282TIP3    H131405   3.030   1.616   7.941 -0.2538  1.4028 -0.6942
 3282TIP3    H231406   3.176   1.602   7.975 -0.8905 -3.2147  0.8503
 3283TIP3   OH231407   3.671   7.021   6.062  0.5615 -0.0384  0.1357
 3283TIP3    H131408   3.731   7.009   5.988  2.1813 -2.5241  1.7100
 3283TIP3    H231409   3.596   6.964   6.043  0.0130  0.8676 -0.4853
 3284TIP3   OH231410   0.132   3.240   7.476  0.5913 -0.7218  0.1659
 3284TIP3    H131411   0.142   3.235   7.571  0.1973 -0.9279  0.1945
 3284TIP3    H231412   0.222   3.241   7.443  0.7284 -0.8759  0.5292
 3285TIP3   OH231413   3.463   0.015   0.320  0.5240 -0.0812 -0.0131
 3285TIP3    H131414   3.435   0.053   0.237  0.8441 -0.5750 -0.3508
 3285TIP3    H231415   3.557   0.034   0.325  0.3913  0.4793  0.5305
 3286TIP3   OH231416   3.079   2.120   7.156 -0.8058  0.5904 -0.8299
 3286TIP3    H131417   3.100   2.104   7.248  0.8952 -0.0587 -1.2819
 3286TIP3    H231418   3.045   2.036   7.124 -0.1754  0.4156 -1.0756
 3287TIP3   OH231419   4.146   4.895   1.093 -0.2819  0.2479 -0.1573
 3287TIP3    H131420   4.141   4.932   1.181 -2.1018  0.8869 -0.4835
 3287TIP3    H231421   4.236   4.862   1.086  0.0203  0.5207  1.7839
 3288TIP3   OH231422   6.114   3.153   1.274 -0.3474  0.1814  0.2786
 3288TIP3    H131423   6.070   3.111   1.200 -0.6831  0.3341  0.3916
 3288TIP3    H231424   6.163   3.082   1.316 -1.3465 -0.2275  0.7925
 3289TIP3   OH231425   1.353   3.170   1.915 -0.2029 -0.5017 -0.5784
 3289TIP3    H131426   1.315   3.082   1.908 -1.2267 -0.0143 -1.4256
 3289TIP3    H231427   1.323   3.202   2.001 -0.3925 -0.7272 -0.5581
 3290TIP3   OH231428   0.788   5.389   1.786  0.0626 -0.6616  0.3821
 3290TIP3    H131429   0.794   5.473   1.740 -1.5034 -0.5116  0.4091
 3290TIP3    H231430   0.825   5.407   1.873  1.6700 -0.5694 -0.2826
 3291TIP3   OH231431   4.181   1.832   7.265 -0.0156 -0.4218 -0.1317
 3291TIP3    H131432   4.264   1.787   7.256  0.3473  0.1843  0.0974
 3291TIP3    H231433   4.192   1.914   7.216  0.4119  0.8244  1.9105
 3292TIP3   OH231434   6.625   4.285   0.657  0.3878  0.5066 -0.9208
 3292TIP3    H131435   6.692   4.343   0.622  1.2760 -0.4404 -0.8564
 3292TIP3    H231436   6.597   4.326   0.738  0.6480  1.0848 -1.1206
 3293TIP3   OH231437   3.571   1.925   0.415 -0.1883 -0.5899  0.1607
 3293TIP3    H131438   3.485   1.966   0.411  0.0463  0.0390  1.1986
 3293TIP3    H231439   3.603   1.928   0.325 -0.1322  1.6283  0.2051
 3294TIP3   OH231440   2.672   6.553   0.304  0.4367 -0.5287 -0.0581
 3294TIP3    H131441   2.764   6.527   0.313  0.5180 -0.9521 -1.7115
 3294TIP3    H231442   2.622   6.479   0.339  0.7068 -0.1372  1.1982
 3295TIP3   OH231443   0.470   1.708   7.009  0.6755  0.2827 -0.0561
 3295TIP3    H131444   0.536   1.682   7.074 -1.0243  2.2090  2.6636
 3295TIP3    H231445   0.455   1.801   7.026 -3.6778 -0.3279  0.4925
 3296TIP3   OH231446   3.638   2.358   6.807  0.2729 -0.2614  0.1189
 3296TIP3    H131447   3.680   2.337   6.890  0.6937 -0.0768 -0.0457
 3296TIP3    H231448   3.545   2.365   6.828  0.4706  0.6154  0.7294
 3297TIP3   OH231449   3.606   6.923   0.199 -0.1362 -0.0809 -0.3396
 3297TIP3    H131450   3.684   6.969   0.165 -0.1686 -0.9799 -1.7252
 3297TIP3    H231451   3.632   6.892   0.285  0.3993  1.2268 -0.0104
 3298TIP3   OH231452   4.652   4.207   1.700 -0.0445  0.0865  0.5523
 3298TIP3    H131453   4.746   4.218   1.713  0.0071  1.2235 -0.4978
 3298TIP3    H231454   4.621   4.164   1.780  1.4340 -0.7979  0.6859
 3299TIP3   OH231455   4.384   5.545   0.639  0.3379  0.4893 -0.0686
 3299TIP3    H131456   4.452   5.610   0.624 -0.2166  1.7741  2.4150
 3299TIP3    H231457   4.302   5.592   0.621 -0.0385  0.2985  1.0622
 3300TIP3   OH231458   4.965   6.864   1.563 -0.0480 -0.3125 -0.5466
 3300TIP3    H131459   4.931   6.783   1.523  1.3747 -0.7161 -0.9784
 3300TIP3    H231460   4.914   6.874   1.643 -0.3217 -1.5910 -0.5385
 3301TIP3   OH231461   1.171   0.121   7.963  0.1883 -0.0336  0.4451
 3301TIP3    H131462   1.243   0.120   8.025  0.5398 -0.8682  0.0259
 3301TIP3    H231463   1.129   0.206   7.977  1.6985  0.7883  0.1721
 3302TIP3   OH231464   4.044   3.137   7.033 -0.4203 -0.8303  0.4635
 3302TIP3    H131465   4.131   3.117   7.067  0.5624 -0.9840 -1.9357
 3302TIP3    H231466   4.001   3.052   7.026  0.2091 -1.0799 -0.6964
 3303TIP3   OH231467   4.499   5.049   2.023  0.1860  0.4529  0.0172
 3303TIP3    H131468   4.465   4.994   1.952 -1.4615 -0.5483  1.4990
 3303TIP3    H231469   4.592   5.059   2.003 -0.4418  1.4603 -3.0625
 3304TIP3   OH231470   3.472   0.021   7.779 -0.2754 -0.0053 -0.5065
 3304TIP3    H131471   3.477  -0.037   7.855  1.0891  0.0751 -0.5077
 3304TIP3    H231472   3.472   0.109   7.816  1.9495  0.0961 -0.5710
 3305TIP3   OH231473   6.174   2.268   6.714 -0.8257 -0.3362 -0.2568
 3305TIP3    H131474   6.182   2.351   6.760 -0.3609 -0.8335  0.5857
 3305TIP3    H231475   6.219   2.205   6.770 -0.8685 -1.0938 -1.0490
 3306TIP3   OH231476   3.478   2.822   0.961  0.2371  0.4843 -0.5512
 3306TIP3    H131477   3.403   2.879   0.951  0.0111  0.7742  2.1088
 3306TIP3    H231478   3.459   2.747   0.904 -2.2171  0.4244  0.2361
 3307TIP3   OH231479   6.268   4.521   0.866 -0.0776  0.6268  0.3862
 3307TIP3    H131480   6.335   4.538   0.933 -1.1910 -1.1343  2.0627
 3307TIP3    H231481   6.197   4.582   0.887 -1.3093 -1.2957  2.2607
 3308TIP3   OH231482   2.495   5.115   7.748  0.1377  0.1342  0.0291
 3308TIP3    H131483   2.539   5.031   7.759  0.0081  0.0370 -0.1929
 3308TIP3    H231484   2.414   5.094   7.703  1.1808  0.6297 -2.2491
 3309TIP3   OH231485   7.008   6.500   1.514  0.2197 -0.1066  0.0325
 3309TIP3    H131486   7.086   6.508   1.459  0.7270 -0.5573  0.6786
 3309TIP3    H231487   7.028   6.429   1.575 -0.9276 -0.6363 -0.1735
 3310TIP3   OH231488   2.703   4.053   0.040  0.7963  0.3304 -0.1355
 3310TIP3    H131489   2.714   4.012  -0.046  2.5230 -0.7113  0.5215
 3310TIP3    H231490   2.763   4.127   0.040 -0.3886  1.3194 -0.3733
 3311TIP3   OH231491   4.470   3.816   6.496 -0.3712 -0.8501 -0.2682
 3311TIP3    H131492   4.505   3.807   6.408 -1.1781 -0.3175 -0.6660
 3311TIP3    H231493   4.378   3.841   6.483  0.1285  1.8697  0.6746
 3312TIP3   OH231494   2.087   3.219   1.222 -0.3803 -0.4205  0.0376
 3312TIP3    H131495   2.038   3.297   1.249 -1.7194 -1.0993 -0.3329
 3312TIP3    H231496   2.034   3.181   1.151  1.0993 -0.7676 -0.9254
 3313TIP3   OH231497   1.239   0.174   6.820  0.0722  0.0598  0.0174
 3313TIP3    H131498   1.227   0.094   6.769 -0.9616 -0.6520  1.3081
 3313TIP3    H231499   1.184   0.239   6.776 -0.5531 -0.4515  0.0314
 3314TIP3   OH231500   3.879   6.681   7.658 -0.4868 -0.0699  0.1073
 3314TIP3    H131501   3.806   6.734   7.689 -0.2034  0.2680  0.2114
 3314TIP3    H231502   3.922   6.736   7.592 -0.8251 -0.6071 -0.5716
 3315TIP3   OH231503   4.857   5.354   7.312  0.3864 -0.1502 -0.0997
 3315TIP3    H131504   4.791   5.322   7.252  1.1039  0.3283 -1.1638
 3315TIP3    H231505   4.928   5.385   7.256  1.6336 -0.8907  1.0112
 3316TIP3   OH231506   2.330   6.839   7.603 -0.2809 -0.2059 -0.2050
 3316TIP3    H131507   2.291   6.922   7.576  0.1696  0.5937  1.4627
 3316TIP3    H231508   2.424   6.858   7.608 -0.1107 -0.9784 -0.3427
 3317TIP3   OH231509   2.061   1.919   8.005 -0.2171 -0.1412  0.1642
 3317TIP3    H131510   1.968   1.918   8.030 -0.3894  2.1872 -0.1786
 3317TIP3    H231511   2.105   1.962   8.077  0.1681  1.1972 -0.8291
 3318TIP3   OH231512   3.008   6.058   6.173  0.0995 -0.0097 -0.1746
 3318TIP3    H131513   3.082   6.111   6.202 -0.5419  1.3549 -0.9097
 3318TIP3    H231514   2.938   6.122   6.158 -0.5069 -0.9955 -1.7423
 3319TIP3   OH231515   6.455   5.955   7.907  0.7438 -0.0648 -0.2395
 3319TIP3    H131516   6.469   5.869   7.947 -1.0539  0.9963  3.1230
 3319TIP3    H231517   6.517   6.012   7.952 -1.2810  1.1798  1.1420
 3320TIP3   OH231518   1.656   0.567   0.879 -0.2153 -0.0143 -0.3759
 3320TIP3    H131519   1.744   0.529   0.879 -0.3238 -0.3267 -1.7390
 3320TIP3    H231520   1.655   0.624   0.956  1.2568  0.1656 -0.4478
 3321TIP3   OH231521   0.641   6.063   0.280  0.3528 -0.1388 -0.0056
 3321TIP3    H131522   0.604   6.021   0.203 -0.4453  0.4247  0.0532
 3321TIP3    H231523   0.690   6.137   0.246 -1.1751  0.9679  0.0696
 3322TIP3   OH231524   3.183   4.083   7.286 -0.2406 -0.2553 -0.0853
 3322TIP3    H131525   3.249   4.131   7.335 -1.0891  0.7993  0.0417
 3322TIP3    H231526   3.223   4.068   7.200  1.9674 -3.6195  1.3022
 3323TIP3   OH231527   4.719   2.820   0.497 -0.8476 -0.0829  0.2475
 3323TIP3    H131528   4.699   2.848   0.407 -1.0812 -1.6799 -0.2344
 3323TIP3    H231529   4.812   2.840   0.508 -0.9510  0.6422 -0.1414
 3324TIP3   OH231530   0.211   5.543   1.536  0.3845 -0.2337  0.2493
 3324TIP3    H131531   0.213   5.529   1.631  2.3544  1.9214  0.6062
 3324TIP3    H231532   0.299   5.522   1.506  0.1432  0.3387 -0.9105
 3325TIP3   OH231533   1.626   2.368   0.506 -0.7933  0.7070 -0.4263
 3325TIP3    H131534   1.585   2.306   0.445  0.1973 -2.7101  2.0364
 3325TIP3    H231535   1.716   2.337   0.515 -0.4902  1.9953  1.5903
 3326TIP3   OH231536   5.494   3.130   6.596 -0.4128 -0.0106 -0.6891
 3326TIP3    H131537   5.499   3.061   6.531 -2.5680 -1.9258  1.0352
 3326TIP3    H231538   5.409   3.171   6.582 -0.1763  0.6916 -0.1590
 3327TIP3   OH231539   6.122   6.557   7.760  0.0039 -0.4283 -0.1310
 3327TIP3    H131540   6.117   6.578   7.853  1.4549  2.2053 -0.5531
 3327TIP3    H231541   6.212   6.527   7.747 -0.6738 -2.5043 -0.4493
 3328TIP3   OH231542   2.776   2.215   5.572  0.1261  0.1304 -0.5529
 3328TIP3    H131543   2.755   2.149   5.638 -1.9191  1.3687  0.1162
 3328TIP3    H231544   2.691   2.243   5.538  0.8968  2.5768 -0.6542
 3329TIP3   OH231545   6.597   2.523   1.530  0.1416 -0.1276 -0.0716
 3329TIP3    H131546   6.526   2.588   1.531  1.2727  1.2583  2.7817
 3329TIP3    H231547   6.556   2.443   1.497 -2.3882  0.9665  0.1468
 3330TIP3   OH231548   2.917   2.352   7.112 -0.5985  0.3797  0.2973
 3330TIP3    H131549   2.946   2.263   7.132 -0.6168  0.7530  2.1409
 3330TIP3    H231550   2.993   2.407   7.133 -1.1609  0.9443  0.9091
 3331TIP3   OH231551   4.625   7.134   1.464  0.3709  0.2025 -0.2461
 3331TIP3    H131552   4.652   7.103   1.550 -1.1283 -0.3202  0.0701
 3331TIP3    H231553   4.599   7.054   1.417  1.9713  0.3692 -1.5244
 3332TIP3   OH231554   2.122   1.290   0.534  0.2249  0.6303  0.4572
 3332TIP3    H131555   2.167   1.311   0.616  0.5270 -0.8915  0.7119
 3332TIP3    H231556   2.149   1.200   0.515  0.1150  0.9469 -1.2898
 3333TIP3   OH231557   5.971   1.479   0.152  0.7400  0.8415  0.3894
 3333TIP3    H131558   5.993   1.526   0.071  0.2176 -2.1162 -1.6271
 3333TIP3    H231559   5.881   1.505   0.171  0.7496  1.3262 -0.1823
 3334TIP3   OH231560   2.974   3.354   6.511 -0.1339  0.6881 -0.1819
 3334TIP3    H131561   3.043   3.325   6.451  1.8048  1.3000  1.6033
 3334TIP3    H231562   2.975   3.449   6.504 -0.8766  0.7001 -0.1831
 3335TIP3   OH231563   1.264   0.783   1.945 -0.1494 -0.1563 -0.2800
 3335TIP3    H131564   1.181   0.822   1.974  0.7307  0.4894  1.5035
 3335TIP3    H231565   1.269   0.700   1.991  0.3978  0.0034 -0.0476
 3336TIP3   OH231566   6.502   2.879   0.973 -0.0934  0.5258 -0.6396
 3336TIP3    H131567   6.415   2.853   1.004  0.2496 -0.6221 -0.5878
 3336TIP3    H231568   6.491   2.886   0.878 -0.0231 -0.5892 -0.7437
 3337TIP3   OH231569   4.489   6.781   8.035 -0.6817  0.4725 -0.0293
 3337TIP3    H131570   4.536   6.844   7.980 -0.7659  1.0173  0.5083
 3337TIP3    H231571   4.534   6.698   8.020 -0.3045  0.7436 -0.4362
 3338TIP3   OH231572   6.346   3.665   2.021 -0.0009 -0.3053 -0.3018
 3338TIP3    H131573   6.335   3.577   1.984 -0.3820  0.3242 -1.7510
 3338TIP3    H231574   6.257   3.697   2.035  0.1367 -0.3804  0.8492
 3339TIP3   OH231575   1.124   4.668   0.941  0.1381 -0.1562 -0.1947
 3339TIP3    H131576   1.176   4.611   0.885  1.6317 -0.3370  1.3101
 3339TIP3    H231577   1.043   4.619   0.956  0.5558 -0.9823 -0.5816
 3340TIP3   OH231578   1.841   2.531   7.434 -0.3314 -0.1873 -0.3162
 3340TIP3    H131579   1.784   2.587   7.382 -0.6419 -0.2114 -0.0062
 3340TIP3    H231580   1.879   2.471   7.371 -0.2937  0.1244 -0.5942
 3341TIP3   OH231581   4.260   1.929   7.869 -0.9517  0.3043 -0.2691
 3341TIP3    H131582   4.335   1.979   7.837  0.5850 -0.9912  1.1006
 3341TIP3    H231583   4.201   1.995   7.904  0.8074  1.2587  1.0700
 3342TIP3   OH231584   2.049   5.921   6.202  0.1002 -0.1478 -0.5251
 3342TIP3    H131585   1.955   5.926   6.187  0.2825 -0.6761 -1.9574
 3342TIP3    H231586   2.074   6.011   6.226 -0.7536  0.0052 -0.1850
 3343TIP3   OH231587   3.376   3.600   0.930  0.6653  0.2751 -0.2669
 3343TIP3    H131588   3.461   3.605   0.973  0.6754 -0.9798 -0.0825
 3343TIP3    H231589   3.383   3.660   0.855  1.6421  0.3330 -0.1423
 3344TIP3   OH231590   3.784   3.201   7.319 -0.0198 -0.0573  0.3075
 3344TIP3    H131591   3.826   3.115   7.309 -0.0025 -0.1557  1.1560
 3344TIP3    H231592   3.856   3.261   7.335 -0.0554  0.0770 -0.0267
 3345TIP3   OH231593   3.624   4.420   7.426 -0.0355  0.3909 -0.1042
 3345TIP3    H131594   3.645   4.411   7.333 -2.0190 -2.2291 -0.4328
 3345TIP3    H231595   3.681   4.355   7.469 -0.6550  0.0395  0.1980
 3346TIP3   OH231596   1.209   1.031   7.743 -0.3687  0.6986 -0.5163
 3346TIP3    H131597   1.234   1.110   7.695 -0.0020  0.5899 -0.5084
 3346TIP3    H231598   1.292   0.989   7.765 -0.5168  0.9202  0.5161
 3347TIP3   OH231599   5.967   1.282   7.457 -0.1475  0.3311  0.2461
 3347TIP3    H131600   5.907   1.306   7.386  0.2599 -0.0512 -0.2380
 3347TIP3    H231601   5.949   1.345   7.527 -1.6508 -0.2462  0.4129
 3348TIP3   OH231602   2.264   2.486   6.908 -0.1001 -0.4098 -0.0911
 3348TIP3    H131603   2.295   2.525   6.826 -0.3457  0.7244  0.3385
 3348TIP3    H231604   2.169   2.492   6.902 -0.0990  0.7042  0.7428
 3349TIP3   OH231605   7.094   0.818   6.013 -0.2403  0.4483  0.0436
 3349TIP3    H131606   7.178   0.841   5.974 -0.5965  2.6214  0.4640
 3349TIP3    H231607   7.033   0.883   5.980 -1.6860 -0.7877  0.1437
 3350TIP3   OH231608   3.606   0.312   6.516  1.0473  0.2156 -0.0693
 3350TIP3    H131609   3.601   0.408   6.511 -0.4687  0.2180  0.8595
 3350TIP3    H231610   3.598   0.292   6.610 -0.8659 -0.8794 -0.4071
 3351TIP3   OH231611   1.541   0.554   1.642  0.0822 -0.1099  0.5451
 3351TIP3    H131612   1.453   0.579   1.672 -0.2899  0.9491 -1.2789
 3351TIP3    H231613   1.598   0.622   1.678 -0.4010  1.3210 -1.2602
 3352TIP3   OH231614   0.613   6.708   6.298  0.3245  0.1161  0.1422
 3352TIP3    H131615   0.547   6.768   6.264 -0.0337  0.6872  1.7300
 3352TIP3    H231616   0.599   6.626   6.250 -1.7301  0.1428  0.6054
 3353TIP3   OH231617   6.087   5.572   8.016 -0.4489  0.1244  0.2564
 3353TIP3    H131618   6.075   5.531   7.930 -0.4633 -0.0294  0.3324
 3353TIP3    H231619   6.124   5.658   7.996 -0.4579  0.0915  0.0954
 3354TIP3   OH231620   0.099   1.467   6.374 -0.3696  0.2172 -0.5096
 3354TIP3    H131621   0.029   1.421   6.421  0.2891 -0.4853 -0.1941
 3354TIP3    H231622   0.068   1.557   6.367 -1.7510 -0.2778 -1.2348
 3355TIP3   OH231623   2.124   3.675   5.807  0.5418 -0.4649  0.2287
 3355TIP3    H131624   2.028   3.670   5.803  0.5701 -0.7374 -0.1506
 3355TIP3    H231625   2.141   3.734   5.879  0.0533  0.9807 -0.7857
 3356TIP3   OH231626   3.841   2.511   0.507 -0.1483  0.3320 -0.1131
 3356TIP3    H131627   3.914   2.572   0.499  0.8433 -0.8694 -0.5360
 3356TIP3    H231628   3.814   2.518   0.599 -0.1964  1.5315 -0.1998
 3357TIP3   OH231629   2.218   6.196   6.715 -0.2303 -0.2183 -0.1491
 3357TIP3    H131630   2.215   6.272   6.657  2.6362 -0.9335 -1.4165
 3357TIP3    H231631   2.309   6.167   6.711 -0.5175 -1.8371  2.7920
 3358TIP3   OH231632   2.472   5.174   7.428 -0.1558 -0.0730 -0.0866
 3358TIP3    H131633   2.419   5.250   7.404  0.4349 -0.0121 -1.2950
 3358TIP3    H231634   2.410   5.103   7.440 -0.5398  0.0405 -1.2888
 3359TIP3   OH231635   7.095   1.485   6.158 -0.4405  0.1972 -0.2126
 3359TIP3    H131636   7.182   1.503   6.193  0.5140  0.2557 -2.4148
 3359TIP3    H231637   7.091   1.389   6.154 -0.9290  0.1665  0.9095
 3360TIP3   OH231638   1.980   6.064   6.632 -0.5234 -0.1221 -0.2030
 3360TIP3    H131639   1.937   6.103   6.707 -1.0978  0.3284 -0.7584
 3360TIP3    H231640   2.069   6.100   6.633  0.1066 -1.5838  1.3410
 3361TIP3   OH231641   6.918   2.286   7.324  0.2586  0.4943 -0.4607
 3361TIP3    H131642   6.969   2.282   7.405 -0.5243  1.2124  0.0824
 3361TIP3    H231643   6.916   2.379   7.301  0.4933  0.2962 -1.3304
 3362TIP3   OH231644   4.607   2.040   2.639 -0.2795  0.4753  0.2532
 3362TIP3    H131645   4.567   2.061   2.554 -0.7290 -2.2325 -0.3135
 3362TIP3    H231646   4.571   1.954   2.661  2.6412 -0.5446  1.4170
 3363TIP3   OH231647   0.827   5.200   8.015  0.6593  0.5011 -0.1680
 3363TIP3    H131648   0.821   5.127   8.076  0.7160  0.6271 -0.0102
 3363TIP3    H231649   0.739   5.236   8.012  0.0781 -0.9372 -1.9601
 3364TIP3   OH231650   3.787   5.869   5.794 -0.0610 -0.5664 -0.4775
 3364TIP3    H131651   3.844   5.927   5.844 -0.9691  0.1630 -0.2720
 3364TIP3    H231652   3.815   5.880   5.703 -1.2691  1.4516 -0.6528
 3365TIP3   OH231653   5.472   5.238   0.836  0.2630  0.5158  0.3207
 3365TIP3    H131654   5.490   5.269   0.747 -0.1659  1.4136  0.5357
 3365TIP3    H231655   5.378   5.247   0.847  0.1146 -0.8965  0.4034
 3366TIP3   OH231656   1.220   2.152   0.573  0.1006  0.3852 -0.0849
 3366TIP3    H131657   1.295   2.124   0.625  0.9073  0.6659 -1.0559
 3366TIP3    H231658   1.187   2.071   0.533  0.3518  0.3546 -0.2348
 3367TIP3   OH231659   2.429   7.093   0.627 -0.2655 -0.4064 -0.1573
 3367TIP3    H131660   2.396   7.057   0.545 -2.5942 -0.2405  0.6376
 3367TIP3    H231661   2.351   7.126   0.672  1.2018  1.4407  1.1982
 3368TIP3   OH231662   0.574   5.937   6.276  0.4796  0.2676 -0.4372
 3368TIP3    H131663   0.545   6.000   6.210  0.7751 -1.3086 -2.1272
 3368TIP3    H231664   0.517   5.862   6.265  1.7472 -0.7604 -0.1818
 3369TIP3   OH231665   6.211   6.394   0.924  0.0533  0.1692  0.6080
 3369TIP3    H131666   6.182   6.423   1.010  0.0933  1.0955  0.3255
 3369TIP3    H231667   6.242   6.474   0.881  1.3923 -0.5055  0.2619
 3370TIP3   OH231668   5.834   4.916   5.797 -0.2540  0.0214  0.4770
 3370TIP3    H131669   5.885   4.856   5.851 -0.0389 -0.6525 -0.4514
 3370TIP3    H231670   5.895   4.987   5.775  0.3360 -0.8296 -0.7075
 3371TIP3   OH231671   3.163   5.505   5.659 -0.1250  0.8072 -0.3597
 3371TIP3    H131672   3.226   5.577   5.659  0.6836  0.1175 -0.9544
 3371TIP3    H231673   3.198   5.442   5.722 -1.1667  1.2044  0.6393
 3372TIP3   OH231674   4.988   1.913   6.758 -0.1617  0.1682 -0.2042
 3372TIP3    H131675   4.961   1.981   6.820  2.2958  1.5055 -0.4368
 3372TIP3    H231676   4.966   1.949   6.672 -2.0350 -0.9472 -0.2426
 3373TIP3   OH231677   7.001   2.557   7.242 -0.2878  0.7148  0.8797
 3373TIP3    H131678   7.065   2.539   7.311 -0.5932 -2.7409  0.4421
 3373TIP3    H231679   7.039   2.630   7.192  3.0165 -0.7127  1.0489
 3374TIP3   OH231680   3.734   1.243   5.924  0.1646  0.2059  0.3172
 3374TIP3    H131681   3.720   1.290   6.006  0.7718 -0.0811  0.5896
 3374TIP3    H231682   3.785   1.166   5.949  1.1283  0.5833 -0.4539
 3375TIP3   OH231683   6.538   2.180   6.573  0.0779  0.2433  0.2750
 3375TIP3    H131684   6.451   2.162   6.537  0.6185  0.1827 -1.0854
 3375TIP3    H231685   6.556   2.106   6.630 -0.9112  0.4516  0.8863
 3376TIP3   OH231686   0.275   2.605   5.533 -0.9729  0.3837 -0.2306
 3376TIP3    H131687   0.357   2.560   5.553 -0.6258  1.2733  0.3998
 3376TIP3    H231688   0.217   2.580   5.605 -0.8104  0.8641  0.0682
 3377TIP3   OH231689   6.861   4.681   0.423 -0.0549 -0.9642 -0.7222
 3377TIP3    H131690   6.883   4.627   0.347  1.7413  0.3322 -1.1732
 3377TIP3    H231691   6.824   4.761   0.385 -0.3830 -0.8471 -0.1661
 3378TIP3   OH231692   0.614   6.270   7.909  0.0304  0.4106 -0.0027
 3378TIP3    H131693   0.638   6.197   7.965 -1.7918 -0.3906 -0.1653
 3378TIP3    H231694   0.635   6.348   7.959  3.8392 -0.0693 -0.5733
 3379TIP3   OH231695   5.510   1.019   0.950 -0.0198  0.4008 -0.4865
 3379TIP3    H131696   5.420   0.997   0.975  0.0977  2.1180  1.6577
 3379TIP3    H231697   5.531   1.098   0.999  1.6833  1.7769 -3.1699
 3380TIP3   OH231698   6.196   6.319   1.666  0.0750  0.3648  1.1420
 3380TIP3    H131699   6.136   6.321   1.739 -0.1642 -0.6702  0.9887
 3380TIP3    H231700   6.214   6.226   1.651  0.0350  0.5403 -0.1727
 3381TIP3   OH231701   5.324   0.074   7.288 -0.4029  0.8507 -0.0708
 3381TIP3    H131702   5.319   0.089   7.383  0.4112  2.5233 -0.2584
 3381TIP3    H231703   5.401   0.124   7.260 -0.0350 -0.4376 -1.4804
 3382TIP3   OH231704   5.469   4.955   0.774  0.1623 -0.9285  0.5527
 3382TIP3    H131705   5.532   4.941   0.703 -0.9328  0.0766 -0.6659
 3382TIP3    H231706   5.494   5.040   0.812  0.5441 -1.3107  1.1762
 3383TIP3   OH231707   2.313   1.210   1.174  0.0868  0.4984 -0.4207
 3383TIP3    H131708   2.278   1.138   1.227 -0.7161  3.1005  2.9109
 3383TIP3    H231709   2.406   1.188   1.164  1.0430  0.9895  4.6518
 3384TIP3   OH231710   7.018   5.171   7.548  0.0808  0.6925 -0.4140
 3384TIP3    H131711   6.971   5.252   7.526 -1.3707 -0.0063  0.0252
 3384TIP3    H231712   6.952   5.114   7.587  0.9396 -0.9316 -1.2109
 3385TIP3   OH231713   4.204   1.996   6.675  0.2292  0.1709 -0.0195
 3385TIP3    H131714   4.130   1.989   6.736  0.4611 -0.9046  0.1560
 3385TIP3    H231715   4.276   2.031   6.728  0.0938  0.3795  0.0275
 3386TIP3   OH231716   4.088   4.688   0.779  0.1372  0.0774  0.0808
 3386TIP3    H131717   4.073   4.631   0.704  2.1855 -2.0586  1.1785
 3386TIP3    H231718   4.149   4.640   0.835  0.4802  2.5491  2.0408
 3387TIP3   OH231719   1.011   0.491   1.245 -0.3268  0.7056  0.3329
 3387TIP3    H131720   1.062   0.557   1.293 -0.4230  0.7605  0.3583
 3387TIP3    H231721   0.982   0.430   1.312  2.3809 -1.1338 -0.0088
 3388TIP3   OH231722   5.117   6.243   1.251  0.1200  0.1931 -0.1885
 3388TIP3    H131723   5.062   6.174   1.214  0.3045 -0.2234  0.2988
 3388TIP3    H231724   5.069   6.324   1.233 -0.8918 -0.1902  0.6073
 3389TIP3   OH231725   6.943   2.707   8.033  0.1249  0.1664  0.0055
 3389TIP3    H131726   6.847   2.707   8.033  0.0840  2.2630 -0.7788
 3389TIP3    H231727   6.967   2.615   8.045 -1.9745 -0.4705 -0.3498
 3390TIP3   OH231728   2.007   5.450   0.241  0.2583  0.0096  0.0062
 3390TIP3    H131729   2.016   5.530   0.188  1.0574  0.0650  0.2198
 3390TIP3    H231730   1.920   5.459   0.282  1.2462  1.9349  1.8906
 3391TIP3   OH231731   2.710   4.644   0.139 -0.1827  0.2927 -0.2000
 3391TIP3    H131732   2.798   4.607   0.142  0.9401  2.6843 -0.7429
 3391TIP3    H231733   2.683   4.649   0.230  0.0820 -0.7982 -0.0532
 3392TIP3   OH231734   3.942   3.641   6.229 -0.2874 -0.2706  0.4477
 3392TIP3    H131735   3.996   3.591   6.169 -2.1644 -1.2503 -0.4881
 3392TIP3    H231736   3.986   3.726   6.235  1.8878 -1.3293  0.5511
 3393TIP3   OH231737   0.651   2.175   7.123  0.2562  0.7714 -0.2589
 3393TIP3    H131738   0.671   2.257   7.078 -1.0969  0.2988 -1.8302
 3393TIP3    H231739   0.733   2.152   7.167  2.8489 -0.1257 -4.7978
 3394TIP3   OH231740   0.117   6.712   1.538 -0.1556 -0.4484 -0.2753
 3394TIP3    H131741   0.109   6.796   1.493  1.0683 -0.8584 -1.3191
 3394TIP3    H231742   0.164   6.733   1.619 -0.6468  0.0041 -0.1053
 3395TIP3   OH231743   3.406   4.977   7.819 -0.1658  0.7184 -0.1941
 3395TIP3    H131744   3.334   4.918   7.843  0.6711  0.1895  1.1112
 3395TIP3    H231745   3.417   4.963   7.725 -0.0638 -1.1620  0.0504
 3396TIP3   OH231746   0.174   0.566   0.412 -0.5040  0.4078 -0.0621
 3396TIP3    H131747   0.246   0.580   0.473 -0.0626 -0.8691 -0.2572
 3396TIP3    H231748   0.181   0.474   0.387 -2.1959  0.2535 -0.1063
 3397TIP3   OH231749   3.663   6.274   0.314  0.5683 -0.3991  0.3463
 3397TIP3    H131750   3.672   6.206   0.380  1.5552 -0.1966  0.4246
 3397TIP3    H231751   3.689   6.355   0.359 -1.0733  0.1388  0.4137
 3398TIP3   OH231752   6.014   4.666   7.175  0.0494 -0.0920 -0.1821
 3398TIP3    H131753   6.090   4.614   7.202 -0.4024 -0.3734  0.5702
 3398TIP3    H231754   5.943   4.603   7.169 -0.2529  0.2647 -0.3546
 3399TIP3   OH231755   2.730   5.291   0.217  0.6095  0.3832 -0.1376
 3399TIP3    H131756   2.657   5.352   0.210  1.3851  1.2835 -0.4943
 3399TIP3    H231757   2.803   5.336   0.176  1.2746 -0.6696 -0.1461
 3400TIP3   OH231758   4.522   1.245   7.715 -0.0204  0.1267 -0.2007
 3400TIP3    H131759   4.473   1.219   7.637 -1.0436 -1.2055  0.8442
 3400TIP3    H231760   4.479   1.325   7.744 -1.2165 -0.6889  0.3455
 3401TIP3   OH231761   3.720   4.211   0.879 -0.0851 -0.7168 -0.2415
 3401TIP3    H131762   3.741   4.265   0.803  0.3157  0.4672  0.6725
 3401TIP3    H231763   3.738   4.268   0.954  0.8333 -2.2916  0.7897
 3402TIP3   OH231764   3.772   7.087   7.740 -0.8048 -0.2105  0.0144
 3402TIP3    H131765   3.800   7.053   7.825 -1.2246 -0.0889  0.2047
 3402TIP3    H231766   3.744   7.177   7.758 -1.5719 -0.4166 -0.1092
 3403TIP3   OH231767   7.156   2.822   7.581 -0.3761 -0.2696  0.2950
 3403TIP3    H131768   7.160   2.897   7.522 -0.5594 -1.5791 -1.4914
 3403TIP3    H231769   7.136   2.859   7.667  0.9799  1.8384 -0.2237
 3404TIP3   OH231770   2.692   2.092   0.099 -0.0456 -0.1860 -0.2716
 3404TIP3    H131771   2.661   2.092   0.009 -0.2006  2.1334 -0.2956
 3404TIP3    H231772   2.787   2.102   0.092 -0.0483 -0.1014 -0.2006
 3405TIP3   OH231773   3.204   5.172   0.443  0.3405 -0.5395  0.2610
 3405TIP3    H131774   3.157   5.159   0.525  0.7839 -0.0068  0.6032
 3405TIP3    H231775   3.139   5.212   0.384 -0.4552 -2.3810 -0.1820
 3406TIP3   OH231776   5.802   6.512   7.716 -0.0597  0.7643 -0.1591
 3406TIP3    H131777   5.891   6.548   7.718  1.1644 -2.0233 -0.2245
 3406TIP3    H231778   5.781   6.507   7.623  1.8297 -3.0889 -0.5454
 3407TIP3   OH231779   1.139   6.926   7.969 -0.1740 -0.0358 -0.0669
 3407TIP3    H131780   1.193   6.905   8.045  1.4982  2.0127 -0.6077
 3407TIP3    H231781   1.053   6.947   8.006 -0.6232 -3.0189  0.8330
 3408TIP3   OH231782   0.970   2.541   0.833  0.1864  0.4348 -0.1563
 3408TIP3    H131783   0.941   2.455   0.803  1.0010 -0.1428  0.6328
 3408TIP3    H231784   0.916   2.560   0.910  0.2228  0.4783 -0.1411
 3409TIP3   OH231785   5.149   5.124   6.545  0.2821  0.2507 -0.5904
 3409TIP3    H131786   5.227   5.087   6.585  0.4432  1.2618  0.0683
 3409TIP3    H231787   5.143   5.212   6.580 -0.6627  0.5034 -1.3220
 3410TIP3   OH231788   1.890   1.132   0.569  0.3079  0.1807  0.3126
 3410TIP3    H131789   1.839   1.186   0.630  0.6362  0.9755 -0.1052
 3410TIP3    H231790   1.966   1.186   0.548  0.9339 -0.6827  0.3305
 3411TIP3   OH231791   0.809   4.420   6.152 -0.5513 -0.5236 -0.5220
 3411TIP3    H131792   0.718   4.441   6.172 -0.7210  0.4975 -2.2060
 3411TIP3    H231793   0.856   4.501   6.168  0.2826 -1.3021  1.2911
 3412TIP3   OH231794   2.563   3.888   5.882 -0.8867  0.4102  0.6097
 3412TIP3    H131795   2.514   3.843   5.813 -2.5243 -0.3049  2.1619
 3412TIP3    H231796   2.645   3.913   5.841 -2.0464  0.5574 -1.7645
 3413TIP3   OH231797   3.425   6.209   0.507 -0.4724 -0.1844  0.3753
 3413TIP3    H131798   3.438   6.119   0.537  1.2549  0.6145  2.3182
 3413TIP3    H231799   3.489   6.221   0.437 -1.3009 -0.6946 -0.4869
 3414TIP3   OH231800   3.650   3.767   6.936  0.0973  0.3531  0.5102
 3414TIP3    H131801   3.699   3.686   6.921  1.3168  1.4091 -1.7713
 3414TIP3    H231802   3.575   3.740   6.989  0.1036 -2.3867 -0.6883
 3415TIP3   OH231803   1.990   4.323   1.879  0.3944  0.2775  0.2210
 3415TIP3    H131804   1.921   4.371   1.924  1.1401  0.7934  0.8328
 3415TIP3    H231805   1.970   4.231   1.895 -1.5640  0.2895 -1.7312
 3416TIP3   OH231806   1.373   1.742   7.841 -0.2187 -0.0973  0.4895
 3416TIP3    H131807   1.284   1.778   7.839 -0.2648 -0.2226 -0.8263
 3416TIP3    H231808   1.430   1.819   7.845 -0.3642  0.0705 -0.3658
 3417TIP3   OH231809   6.983   5.174   0.303 -0.0901  0.3302 -0.3193
 3417TIP3    H131810   6.952   5.217   0.383 -2.2677 -1.3696 -0.1339
 3417TIP3    H231811   6.950   5.228   0.232  1.6429  1.7151 -0.1275
 3418TIP3   OH231812   0.900   5.389   6.801 -0.3652  0.3345  0.0863
 3418TIP3    H131813   0.985   5.360   6.769 -1.8297 -1.3341 -2.6241
 3418TIP3    H231814   0.917   5.473   6.843  2.6188 -0.0638 -0.1546
 3419TIP3   OH231815   3.106   0.173   5.591 -0.4506  0.1937  0.3906
 3419TIP3    H131816   3.196   0.152   5.569 -1.1491 -0.8053 -1.6997
 3419TIP3    H231817   3.069   0.091   5.624 -1.3907 -0.2407 -1.6259
 3420TIP3   OH231818   4.302   3.977   1.811  0.1153  0.2390  0.3635
 3420TIP3    H131819   4.380   3.976   1.867  0.4286  0.7422 -0.0597
 3420TIP3    H231820   4.316   3.905   1.750 -2.0131 -2.9980  3.2801
 3421TIP3   OH231821   0.565   5.640   1.582  0.3652 -0.4970 -0.1006
 3421TIP3    H131822   0.562   5.727   1.541  1.1161 -0.3629  0.1177
 3421TIP3    H231823   0.538   5.580   1.512  1.1799 -0.2252 -0.6674
 3422TIP3   OH231824   2.999   0.076   1.324 -0.6059  0.0001 -0.4360
 3422TIP3    H131825   2.979   0.024   1.401 -2.2220  0.9453 -0.1665
 3422TIP3    H231826   2.950   0.033   1.253 -0.0358 -0.2076 -0.7115
 3423TIP3   OH231827   4.284   5.598   8.008 -0.3499  0.1265 -0.4342
 3423TIP3    H131828   4.380   5.594   7.999 -0.1409  1.7696  0.6580
 3423TIP3    H231829   4.251   5.548   7.934  1.3605 -1.6476 -0.0978
 3424TIP3   OH231830   2.945   0.211   0.504  0.1343  0.1307 -0.1944
 3424TIP3    H131831   2.983   0.245   0.584  0.9210  0.5372 -0.7271
 3424TIP3    H231832   2.928   0.289   0.450  0.7248 -0.2105 -0.8933
 3425TIP3   OH231833   6.108   5.191   7.539 -0.3648 -0.3598  0.3342
 3425TIP3    H131834   6.059   5.223   7.615 -1.4971  0.0283 -0.5271
 3425TIP3    H231835   6.192   5.236   7.543 -1.4800  1.9212 -0.2056
 3426TIP3   OH231836   6.974   7.039   7.962 -0.9031 -0.5396 -0.2019
 3426TIP3    H131837   6.954   7.057   8.054 -1.9651 -2.9666  0.1282
 3426TIP3    H231838   7.069   7.022   7.962 -0.4230  1.8068 -0.0512
 3427TIP3   OH231839   3.386   5.736   6.471 -0.2265  0.0576 -0.3462
 3427TIP3    H131840   3.347   5.650   6.486 -0.3876 -0.1432 -1.7541
 3427TIP3    H231841   3.315   5.798   6.489 -0.8077 -0.2392 -1.4674
 3428TIP3   OH231842   4.948   1.393   0.148  0.5149  0.4734  0.2812
 3428TIP3    H131843   5.014   1.420   0.212  1.2184 -0.7946  0.1345
 3428TIP3    H231844   4.878   1.354   0.200  1.3647 -1.1253  0.2965
 3429TIP3   OH231845   4.914   0.026   7.544 -0.2911  0.7321 -0.0765
 3429TIP3    H131846   4.857  -0.045   7.516  0.4319 -0.2098  0.7373
 3429TIP3    H231847   4.895   0.098   7.484 -0.1800 -0.5400 -1.7079
 3430TIP3   OH231848   6.470   1.752   7.760  0.2969  0.0829 -0.0825
 3430TIP3    H131849   6.468   1.845   7.780 -0.3484  0.1935 -0.6323
 3430TIP3    H231850   6.469   1.747   7.664  0.4987 -0.4840 -0.0634
 3431TIP3   OH231851   6.591   5.944   6.693  0.2073 -0.0182 -0.5692
 3431TIP3    H131852   6.551   5.867   6.733  2.4341 -0.1225  1.7574
 3431TIP3    H231853   6.531   6.016   6.713 -0.5538 -0.7092 -0.3244
 3432TIP3   OH231854   2.322   5.571   0.711 -0.1665  0.4574 -0.2264
 3432TIP3    H131855   2.320   5.542   0.620 -1.4688  1.1337 -0.4429
 3432TIP3    H231856   2.400   5.627   0.717  0.2130  0.0029 -0.7871
 3433TIP3   OH231857   4.147   3.496   0.342  0.1349  0.0040  0.2143
 3433TIP3    H131858   4.142   3.433   0.414  2.7581 -0.4221  0.1218
 3433TIP3    H231859   4.240   3.519   0.337 -0.3700  1.9504 -1.4242
 3434TIP3   OH231860   2.121   1.131   0.162 -0.1680  0.0989 -0.3488
 3434TIP3    H131861   2.074   1.126   0.078 -1.2177  0.7785  0.1805
 3434TIP3    H231862   2.106   1.220   0.193  0.9827  0.1452  0.1412
 3435TIP3   OH231863   6.589   2.363   6.833 -0.1219 -0.0721  0.2047
 3435TIP3    H131864   6.606   2.348   6.740 -1.3209  0.0971 -0.0505
 3435TIP3    H231865   6.494   2.365   6.841 -0.0689 -1.3928  1.6541
 3436TIP3   OH231866   0.751   1.392   0.059 -0.2292  0.7545  0.0281
 3436TIP3    H131867   0.746   1.478   0.017  0.3396  1.7173  1.8430
 3436TIP3    H231868   0.844   1.379   0.077 -0.2748 -0.3897 -0.4796
 3437TIP3   OH231869   2.448   4.757   6.646 -0.5972 -0.0380 -0.3813
 3437TIP3    H131870   2.472   4.849   6.648  0.5740 -0.3286  1.0950
 3437TIP3    H231871   2.378   4.751   6.580 -0.9686  1.9390 -0.2151
 3438TIP3   OH231872   2.437   0.838   2.069 -0.1406 -0.0786 -0.8782
 3438TIP3    H131873   2.430   0.743   2.060  1.3266 -0.5207  1.7088
 3438TIP3    H231874   2.501   0.851   2.139 -0.8381  2.8230 -0.6556
 3439TIP3   OH231875   5.155   1.004   6.025  0.6360  0.3305  0.1908
 3439TIP3    H131876   5.116   1.029   5.941 -0.9529 -1.2127  0.3921
 3439TIP3    H231877   5.241   0.969   6.002 -0.3904 -1.5692 -1.0791
 3440TIP3   OH231878   4.099   3.329   6.823  0.2773  0.0222  0.2676
 3440TIP3    H131879   4.037   3.270   6.866 -0.0072  0.0588 -0.0887
 3440TIP3    H231880   4.184   3.287   6.833 -0.0736 -1.0878 -1.0641
 3441TIP3   OH231881   2.853   6.218   1.727  0.3772 -0.3672  0.2092
 3441TIP3    H131882   2.768   6.192   1.763  0.5899 -0.3838  0.7170
 3441TIP3    H231883   2.833   6.286   1.664  0.0111 -0.1480  0.5571
 3442TIP3   OH231884   1.918   0.950   6.648 -0.0549  0.0034  0.0106
 3442TIP3    H131885   1.939   0.858   6.631 -0.2153 -0.2902  1.3147
 3442TIP3    H231886   1.868   0.978   6.571  1.6132 -0.4297 -1.3066
 3443TIP3   OH231887   3.107   6.996   0.665 -0.1410  0.0915 -0.3841
 3443TIP3    H131888   3.128   6.905   0.645  1.2048 -0.2394  2.1445
 3443TIP3    H231889   3.031   7.016   0.610 -1.1441 -2.8917 -0.2443
 3444TIP3   OH231890   4.578   2.675   6.517 -0.4720 -0.0770  0.1356
 3444TIP3    H131891   4.642   2.708   6.581 -0.8315 -0.3002  0.6193
 3444TIP3    H231892   4.493   2.700   6.554 -0.6733  0.0858 -0.4280
 3445TIP3   OH231893   2.085   5.315   6.029 -0.1921  0.1671  0.7444
 3445TIP3    H131894   2.061   5.268   5.949  0.9494 -0.8643  0.9806
 3445TIP3    H231895   2.003   5.355   6.058 -0.5682  0.9178 -1.1402
 3446TIP3   OH231896   0.902   5.440   2.018  0.6738  0.2421  0.2662
 3446TIP3    H131897   0.977   5.427   2.075  0.7147  0.0426  0.1663
 3446TIP3    H231898   0.906   5.533   1.994  1.7599 -0.0883 -0.9573
 3447TIP3   OH231899   0.225   6.283   7.354 -0.1138 -0.5070 -0.0367
 3447TIP3    H131900   0.258   6.294   7.265 -0.3779  1.1733  0.0596
 3447TIP3    H231901   0.140   6.240   7.343  0.5307 -1.7448 -0.4729
 3448TIP3   OH231902   3.797   5.123   1.064  0.1867 -0.3708 -0.3317
 3448TIP3    H131903   3.839   5.147   1.146  0.0089 -1.7587  0.2023
 3448TIP3    H231904   3.848   5.167   0.996  1.2965 -0.4518  0.4261
 3449TIP3   OH231905   0.657   1.154   7.216  0.6156  0.0996  0.4917
 3449TIP3    H131906   0.670   1.152   7.121 -2.1477 -0.5367  0.0315
 3449TIP3    H231907   0.737   1.117   7.253  1.1241 -1.1290 -1.6950
 3450TIP3   OH231908   3.970   4.624   0.338  0.5269  0.5148 -0.5779
 3450TIP3    H131909   3.898   4.673   0.299  1.7550  2.0386 -1.0276
 3450TIP3    H231910   4.016   4.585   0.264  0.9158  0.6292 -0.3998
 3451TIP3   OH231911   2.910   0.936   1.285  0.3468  0.4428 -0.3719
 3451TIP3    H131912   2.829   0.888   1.265  0.8620 -0.2082 -0.9336
 3451TIP3    H231913   2.920   0.929   1.379  0.7060 -1.0415 -0.5051
 3452TIP3   OH231914   3.133   2.182   7.421 -0.0092  0.5858 -0.3620
 3452TIP3    H131915   3.216   2.174   7.373 -0.9645 -0.4419 -1.9184
 3452TIP3    H231916   3.158   2.176   7.513  1.5627 -0.6623 -0.8247
 3453TIP3   OH231917   5.124   6.814   1.210  0.1112 -0.3838 -0.3230
 3453TIP3    H131918   5.132   6.732   1.258  1.6094  0.8237  1.6307
 3453TIP3    H231919   5.157   6.793   1.122  1.0502 -1.7186  0.3070
 3454TIP3   OH231920   2.049   2.853   6.245 -0.1930  0.4152  0.2703
 3454TIP3    H131921   2.042   2.794   6.170  0.5637  0.4890  0.1325
 3454TIP3    H231922   1.992   2.926   6.223  1.2957  1.2476 -1.0264
 3455TIP3   OH231923   0.267   1.624   7.583 -0.3811  0.5519 -0.1411
 3455TIP3    H131924   0.187   1.586   7.546  0.6516 -0.3677 -1.5349
 3455TIP3    H231925   0.337   1.568   7.550  0.7730  0.6717  1.9476
 3456TIP3   OH231926   3.516   1.780   0.812 -0.4878  0.0064 -0.2362
 3456TIP3    H131927   3.578   1.835   0.764 -1.0656 -0.4774 -1.5966
 3456TIP3    H231928   3.485   1.835   0.884  2.0065  0.0213  0.9054
 3457TIP3   OH231929   5.571   5.573   0.187  0.2368  0.1312 -0.1291
 3457TIP3    H131930   5.547   5.483   0.163  2.0429 -0.3810 -0.1678
 3457TIP3    H231931   5.621   5.605   0.113  1.8040  0.2309  0.9317
 3458TIP3   OH231932   2.794   6.907   0.290 -0.2514 -0.0455 -0.1330
 3458TIP3    H131933   2.877   6.876   0.254  0.1662  0.7651  0.0973
 3458TIP3    H231934   2.818   6.984   0.342 -1.3589  1.2837 -1.5157
 3459TIP3   OH231935   0.651   6.440   6.237  0.7037  0.2628  0.4296
 3459TIP3    H131936   0.607   6.391   6.168 -0.1501  1.2331  0.2562
 3459TIP3    H231937   0.744   6.422   6.224  0.5133 -0.0623 -0.5931
 3460TIP3   OH231938   3.220   4.200   1.945  0.1868 -0.0670 -0.4750
 3460TIP3    H131939   3.178   4.117   1.966 -1.4473 -0.0544 -3.2113
 3460TIP3    H231940   3.291   4.177   1.885  1.0602  0.3915  0.3352
 3461TIP3   OH231941   7.013   5.831   6.081 -0.2368  0.2730  0.6630
 3461TIP3    H131942   6.934   5.884   6.071  0.4389  1.0691 -0.9386
 3461TIP3    H231943   7.072   5.885   6.133  0.2849  0.9574 -0.5890
 3462TIP3   OH231944   0.461   1.463   7.466 -0.6124 -0.2958  0.4137
 3462TIP3    H131945   0.492   1.377   7.495 -0.9612 -0.4944  0.1953
 3462TIP3    H231946   0.477   1.464   7.372 -0.1701  0.0655  0.4852
 3463TIP3   OH231947   3.657   2.697   6.391 -0.3019 -0.6812  0.1581
 3463TIP3    H131948   3.749   2.675   6.404 -0.0073  0.6654  0.4758
 3463TIP3    H231949   3.610   2.635   6.447  0.4621 -0.7663  0.7277
 3464TIP3   OH231950   3.945   6.292   6.642  0.4308  0.4487 -0.0831
 3464TIP3    H131951   3.986   6.355   6.701 -0.1252  0.2970  0.4677
 3464TIP3    H231952   3.975   6.206   6.674  1.3879  0.4184 -0.9795
 3465TIP3   OH231953   5.261   7.102   0.315 -0.4772  0.0898  0.8249
 3465TIP3    H131954   5.213   7.155   0.379 -0.9996  1.1049 -0.3476
 3465TIP3    H231955   5.215   7.018   0.313  0.0638 -0.2642  2.3683
 3466TIP3   OH231956   0.428   0.804   7.247  0.2432 -0.3695 -0.3259
 3466TIP3    H131957   0.438   0.717   7.286  1.0293  0.3407  1.1174
 3466TIP3    H231958   0.437   0.865   7.320  0.8830  0.9862 -1.4800
 3467TIP3   OH231959   2.122   6.748   6.910  0.3529 -1.0028 -0.3395
 3467TIP3    H131960   2.076   6.825   6.877  1.7384 -0.1101 -0.2646
 3467TIP3    H231961   2.202   6.783   6.950  1.1318 -2.4965 -0.5251
 3468TIP3   OH231962   4.927   5.513   2.054 -0.4189  0.3757 -0.1960
 3468TIP3    H131963   4.857   5.574   2.075 -0.6832  0.2355 -0.6542
 3468TIP3    H231964   5.005   5.568   2.047 -0.7875  0.7830 -1.3217
 3469TIP3   OH231965   4.564   2.086   1.224  0.0104 -0.9862 -0.1397
 3469TIP3    H131966   4.550   2.159   1.163  2.6559 -1.1478 -1.0535
 3469TIP3    H231967   4.499   2.021   1.198 -0.7823  0.0732 -0.9062
 3470TIP3   OH231968   1.708   2.676   6.216 -0.3305 -0.0449 -0.0327
 3470TIP3    H131969   1.654   2.604   6.182  1.7713 -0.8020 -2.0077
 3470TIP3    H231970   1.793   2.665   6.174 -0.0351  3.9398 -0.9206
 3471TIP3   OH231971   5.324   0.351   0.750 -0.5562 -0.9618  0.0300
 3471TIP3    H131972   5.419   0.346   0.756 -0.5051 -0.5179 -0.3260
 3471TIP3    H231973   5.292   0.281   0.807 -0.0481 -0.2087  1.2681
 3472TIP3   OH231974   1.044   2.145   6.657 -0.4171  0.4165  0.0232
 3472TIP3    H131975   1.117   2.102   6.613  0.1568  1.2826  0.0931
 3472TIP3    H231976   1.085   2.218   6.704 -1.3027  0.7794  0.2468
 3473TIP3   OH231977   5.586   1.308   6.540 -0.0771 -0.4259 -0.0550
 3473TIP3    H131978   5.536   1.244   6.591 -0.9559  0.7637  0.6127
 3473TIP3    H231979   5.647   1.346   6.603 -0.4642  0.3311 -0.1343
 3474TIP3   OH231980   3.008   3.414   2.080  0.1416  0.0047 -0.3099
 3474TIP3    H131981   3.076   3.350   2.101 -0.0844 -0.5191 -1.1227
 3474TIP3    H231982   3.056   3.497   2.068  0.4573 -0.0497  0.5461
 3475TIP3   OH231983   5.969   5.407   7.022  0.1514  0.0349 -0.2716
 3475TIP3    H131984   5.955   5.422   7.115  2.9869 -0.3227  0.3033
 3475TIP3    H231985   5.962   5.313   7.011  0.9717 -0.0499 -0.1543
 3476TIP3   OH231986   4.845   5.817   7.352  0.4735 -0.1788 -0.8803
 3476TIP3    H131987   4.929   5.804   7.395  1.2941 -0.3950 -2.4783
 3476TIP3    H231988   4.789   5.748   7.388  0.9719 -0.0440  0.1820
 3477TIP3   OH231989   6.510   0.792   0.120  0.3054  0.0891 -0.2141
 3477TIP3    H131990   6.517   0.783   0.215  2.8206 -1.6941 -0.4858
 3477TIP3    H231991   6.438   0.733   0.097  1.1894 -1.3127  0.4214
 3478TIP3   OH231992   0.931   3.791   7.796  0.1520 -0.2634 -0.2108
 3478TIP3    H131993   1.012   3.751   7.764  0.3327  0.3939 -0.6156
 3478TIP3    H231994   0.930   3.877   7.755 -0.7418 -0.2519 -0.1832
 3479TIP3   OH231995   5.714   0.949   7.408  0.6291 -0.4647  0.1383
 3479TIP3    H131996   5.729   0.858   7.382  1.6247  0.5611 -3.5212
 3479TIP3    H231997   5.765   0.959   7.489  4.4224 -2.1139 -1.7582
 3480TIP3   OH231998   2.849   5.512   0.034  0.2933  0.4174 -0.4604
 3480TIP3    H131999   2.817   5.499  -0.055  0.4267  0.9852 -0.5955
 3480TIP3    H232000   2.843   5.606   0.049 -0.1030  0.2813  0.2806
 3481TIP3   OH232001   6.796   2.561   6.398  0.0973  0.0699  0.1165
 3481TIP3    H132002   6.842   2.636   6.360 -0.9986  0.7326  0.0432
 3481TIP3    H232003   6.728   2.600   6.453 -0.8411 -0.8559 -0.3486
 3482TIP3   OH232004   0.811   3.792   7.184  0.0615  0.3399  0.3203
 3482TIP3    H132005   0.717   3.775   7.181 -0.1446  1.2839 -2.9605
 3482TIP3    H232006   0.818   3.888   7.189  0.8287  0.2987  0.2208
 3483TIP3   OH232007   5.063   0.011   7.235  0.1547 -0.0640 -0.4687
 3483TIP3    H132008   5.151   0.036   7.261  0.1058  0.3612 -0.7038
 3483TIP3    H232009   5.008   0.084   7.263 -0.0315 -0.0338 -0.9040
 3484TIP3   OH232010   5.954   6.343   1.029 -0.1798 -0.5288 -0.6447
 3484TIP3    H132011   5.989   6.292   0.956 -0.8868 -0.3099 -1.1429
 3484TIP3    H232012   5.862   6.357   1.007  0.2927  2.1756 -1.2735
 3485TIP3   OH232013   0.340   5.625   6.619  0.3595  0.2845  0.1686
 3485TIP3    H132014   0.290   5.676   6.555 -0.4085 -0.7518 -0.1004
 3485TIP3    H232015   0.322   5.534   6.595  0.5818 -0.1201  1.4633
 3486TIP3   OH232016   6.535   0.036   1.516  0.0569 -0.4617 -0.3251
 3486TIP3    H132017   6.489   0.119   1.508  0.1731 -0.5188 -1.8779
 3486TIP3    H232018   6.544   0.022   1.610 -3.2620 -0.5779  0.0614
 3487TIP3   OH232019   2.446   1.520   1.609  0.8152  0.2967  0.0043
 3487TIP3    H132020   2.460   1.589   1.543  1.5973  0.0586 -0.0901
 3487TIP3    H232021   2.444   1.567   1.692 -0.8822  0.6889 -0.2100
 3488TIP3   OH232022   2.856   6.934   6.021  0.4533 -0.5793 -0.3020
 3488TIP3    H132023   2.876   6.871   5.952  0.0991  1.6606 -2.5978
 3488TIP3    H232024   2.823   7.011   5.975 -2.6109  0.0514  2.5616
 3489TIP3   OH232025   5.316   3.396   6.867  0.0307  0.1351 -0.2094
 3489TIP3    H132026   5.348   3.414   6.778 -1.0134  0.4850 -0.5271
 3489TIP3    H232027   5.266   3.474   6.890 -0.6724 -0.4386  0.2314
 3490TIP3   OH232028   6.670   6.437   7.636 -0.3220  0.1494  0.0415
 3490TIP3    H132029   6.668   6.343   7.617 -0.6142  0.0481  0.5714
 3490TIP3    H232030   6.695   6.478   7.553  0.9643 -0.4820  0.0981
 3491TIP3   OH232031   0.826   1.685   0.828 -0.5878 -0.3890  0.3894
 3491TIP3    H132032   0.917   1.661   0.812 -0.9481 -1.8612  0.4017
 3491TIP3    H232033   0.797   1.728   0.748 -0.1558 -0.7787  0.0244
 3492TIP3   OH232034   2.393   0.148   2.076  0.0184  0.0227 -0.0053
 3492TIP3    H132035   2.478   0.167   2.114 -0.5280  2.1359  0.3059
 3492TIP3    H232036   2.350   0.234   2.070 -2.6385 -1.1138  1.1990
 3493TIP3   OH232037   0.616   3.044   7.639 -0.3968  0.0026  0.5222
 3493TIP3    H132038   0.656   3.092   7.712  1.8682 -3.3731  1.7764
 3493TIP3    H232039   0.689   3.029   7.579 -1.6415  0.3318 -1.1234
 3494TIP3   OH232040   4.448   0.507   7.460  0.3956  0.3750 -0.1708
 3494TIP3    H132041   4.374   0.510   7.521 -0.3529 -1.5525 -0.8994
 3494TIP3    H232042   4.520   0.549   7.508 -0.4461 -0.1291  1.6385
 3495TIP3   OH232043   1.906   3.431   6.368 -0.1305 -0.9082 -0.1450
 3495TIP3    H132044   1.857   3.464   6.443  0.1712 -1.4555  0.3049
 3495TIP3    H232045   1.862   3.467   6.292 -0.4869 -0.4048  0.2976
 3496TIP3   OH232046   6.615   6.336   1.381  0.0684 -0.5749  0.0130
 3496TIP3    H132047   6.560   6.363   1.455 -1.1792  0.8587 -1.3477
 3496TIP3    H232048   6.694   6.389   1.390 -0.7539  0.8020 -0.5037
 3497TIP3   OH232049   0.074   6.943   8.022 -0.0686 -0.4541  0.4515
 3497TIP3    H132050   0.066   6.945   8.118  1.0397 -0.5182  0.5533
 3497TIP3    H232051   0.121   6.861   8.004 -0.0129 -0.2936 -0.1287
 3498TIP3   OH232052   1.517   3.480   0.780 -0.6435  0.2946  0.1822
 3498TIP3    H132053   1.562   3.467   0.696 -0.6463  1.0383  0.0548
 3498TIP3    H232054   1.490   3.572   0.778  0.3296  0.6361  1.4719
 3499TIP3   OH232055   0.909   3.768   7.444  0.5877  0.1680  0.1658
 3499TIP3    H132056   0.991   3.721   7.463  0.4625 -0.4772 -0.8195
 3499TIP3    H232057   0.901   3.765   7.348 -0.7669 -0.0834  0.2660
 3500TIP3   OH232058   2.809   6.433   7.667  0.3368  0.4122  0.5215
 3500TIP3    H132059   2.862   6.511   7.656  0.3632  0.2284 -0.8444
 3500TIP3    H232060   2.871   6.365   7.694  1.3689 -0.3821 -3.2258
 3501TIP3   OH232061   1.652   5.127   0.392 -0.2718  0.1994  0.0051
 3501TIP3    H132062   1.680   5.068   0.322 -1.4061 -1.2483  0.7072
 3501TIP3    H232063   1.733   5.165   0.426  0.5672 -1.4880 -0.0231
 3502TIP3   OH232064   6.861   5.479   1.322  0.2169 -0.5197 -0.2860
 3502TIP3    H132065   6.948   5.509   1.348 -0.5256  0.3517  1.4229
 3502TIP3    H232066   6.823   5.554   1.276  0.6021 -1.1486 -1.6527
 3503TIP3   OH232067   2.637   5.947   0.841 -0.0252  0.4947  0.0931
 3503TIP3    H132068   2.658   5.984   0.755  1.4792 -0.6189 -0.0520
 3503TIP3    H232069   2.545   5.919   0.832 -0.1820  1.2358 -0.8272
 3504TIP3   OH232070   0.876   0.211   0.842  0.5227  0.3947  0.4806
 3504TIP3    H132071   0.939   0.268   0.885  1.6769 -0.6790  0.2438
 3504TIP3    H232072   0.861   0.252   0.757  2.6183 -0.4661 -0.3647
 3505TIP3   OH232073   5.849   6.356   6.890  0.4820  0.7195 -0.1439
 3505TIP3    H132074   5.812   6.313   6.812  0.5812 -2.7503  1.5313
 3505TIP3    H232075   5.943   6.359   6.874  0.5106 -0.0482 -0.1340
 3506TIP3   OH232076   2.331   4.922   7.649  0.0482  0.7342 -0.0512
 3506TIP3    H132077   2.309   4.829   7.646 -1.3616  0.9893  1.3408
 3506TIP3    H232078   2.334   4.949   7.557  1.5367 -0.8917 -0.5215
 3507TIP3   OH232079   3.856   0.503   7.414 -0.0969 -0.5403 -0.9598
 3507TIP3    H132080   3.909   0.565   7.463 -1.3982 -0.6289  0.6114
 3507TIP3    H232081   3.796   0.557   7.364 -0.3397 -0.5037 -0.6280
 3508TIP3   OH232082   3.120   5.889   5.989 -0.0073  0.2948  0.0216
 3508TIP3    H132083   3.195   5.949   5.992  1.6501 -1.6208 -0.2354
 3508TIP3    H232084   3.062   5.920   6.058  1.4474  1.3708  0.8384
 3509TIP3   OH232085   6.830   0.379   1.069 -0.5986  0.1208  0.1225
 3509TIP3    H132086   6.785   0.463   1.056  0.0069  0.9473  2.7807
 3509TIP3    H232087   6.771   0.329   1.125  0.0108 -0.3610  0.3400
 3510TIP3   OH232088   5.458   1.048   6.349  0.8280  0.0991  0.0953
 3510TIP3    H132089   5.382   1.103   6.327  0.3516 -0.4405  0.3616
 3510TIP3    H232090   5.533   1.107   6.341  0.0849  1.8637  3.8538
 3511TIP3   OH232091   1.214   4.598   6.833 -0.8641 -0.6084  0.1092
 3511TIP3    H132092   1.306   4.573   6.824 -0.6839 -0.0855  0.4354
 3511TIP3    H232093   1.191   4.572   6.923 -0.5728  0.6744  0.5754
 3512TIP3   OH232094   4.526   0.495   6.247  0.0651 -0.0725  0.0906
 3512TIP3    H132095   4.544   0.479   6.339 -1.7363 -0.0979  0.4789
 3512TIP3    H232096   4.448   0.551   6.246 -0.4795 -0.7786 -1.3979
 3513TIP3   OH232097   1.118   5.077   6.675 -0.4838  0.1480 -0.4950
 3513TIP3    H132098   1.119   4.982   6.683  0.6905  0.2331  0.8418
 3513TIP3    H232099   1.144   5.109   6.761  1.3208  1.6173 -1.5041
 3514TIP3   OH232100   5.326   5.595   6.833 -0.0699 -0.0183  0.0107
 3514TIP3    H132101   5.399   5.583   6.772 -0.0745 -2.1931  0.3276
 3514TIP3    H232102   5.366   5.627   6.913  0.0013  2.3959 -0.9148
 3515TIP3   OH232103   1.384   6.257   6.595 -0.2888 -0.0229 -0.2397
 3515TIP3    H132104   1.458   6.200   6.614  0.7938  0.8272 -1.6743
 3515TIP3    H232105   1.319   6.235   6.661  0.2908 -2.5047 -0.3944
 3516TIP3   OH232106   6.161   7.026   6.092 -0.5511 -0.2854 -0.4225
 3516TIP3    H132107   6.232   7.088   6.075 -1.1817 -0.3782 -4.2952
 3516TIP3    H232108   6.087   7.082   6.117  0.3009 -0.0360  1.7038
 3517TIP3   OH232109   6.963   0.474   8.002 -0.5312  0.3357  0.2948
 3517TIP3    H132110   7.003   0.553   8.039 -0.3313 -0.1682  1.1661
 3517TIP3    H232111   6.869   0.492   8.002 -0.4218  1.0173 -0.5817
 3518TIP3   OH232112   6.422   5.604   1.859 -0.3053  0.8522 -0.0854
 3518TIP3    H132113   6.374   5.524   1.837  0.9183  0.3629 -1.0662
 3518TIP3    H232114   6.485   5.577   1.925 -0.6361  1.2666  0.4132
 3519TIP3   OH232115   1.210   2.841   8.034  0.7807  0.0155 -0.2371
 3519TIP3    H132116   1.265   2.823   8.111  0.7668 -0.8805 -0.4179
 3519TIP3    H232117   1.122   2.851   8.070  0.8398  0.0071 -0.0874
 3520TIP3   OH232118   3.316   2.960   0.340  0.5107 -0.3931 -0.3225
 3520TIP3    H132119   3.393   2.982   0.288  1.5726 -1.1999  0.8435
 3520TIP3    H232120   3.303   3.035   0.397 -0.1018  0.1013 -1.0885
 3521TIP3   OH232121   1.870   5.088   7.748  0.1358 -0.1765  0.0954
 3521TIP3    H132122   1.799   5.094   7.812  1.6001 -0.2717  1.8015
 3521TIP3    H232123   1.918   5.170   7.757 -1.3199  1.1949 -3.1097
 3522TIP3   OH232124   3.168   6.025   6.978  0.0800  0.5771 -0.1190
 3522TIP3    H132125   3.208   6.053   6.896 -0.2452  3.8408  0.6800
 3522TIP3    H232126   3.095   6.086   6.991 -0.0983 -0.0566  2.3967
 3523TIP3   OH232127   3.884   2.629   1.479  1.0076  0.1458  0.2880
 3523TIP3    H132128   3.901   2.542   1.444  0.3029  0.2045 -0.2367
 3523TIP3    H232129   3.805   2.618   1.532  0.0142  0.7326 -0.9939
 3524TIP3   OH232130   3.042   6.083   7.963  0.0097 -0.0656 -0.6384
 3524TIP3    H132131   3.029   6.055   8.054 -0.3098 -0.4696 -0.8066
 3524TIP3    H232132   3.080   6.007   7.919  1.9855  0.7410 -0.4188
 3525TIP3   OH232133   0.575   5.830   7.880  0.0174  0.5275  0.0694
 3525TIP3    H132134   0.662   5.863   7.902  0.4142 -0.0243 -0.6323
 3525TIP3    H232135   0.516   5.874   7.942  0.9652 -0.2650  1.6030
 3526TIP3   OH232136   5.771   6.245   7.353 -0.2057  0.1152  0.5472
 3526TIP3    H132137   5.715   6.265   7.428 -2.8877 -0.9958 -1.0240
 3526TIP3    H232138   5.787   6.330   7.312  0.3802  0.5931  1.7028
 3527TIP3   OH232139   0.286   1.995   0.394  0.1792  0.7091  0.5150
 3527TIP3    H132140   0.310   1.904   0.411  1.2116  0.9164  0.2790
 3527TIP3    H232141   0.355   2.046   0.437 -1.2114  1.4445  1.9471
 3528TIP3   OH232142   7.158   5.199   7.834 -0.3036 -0.1996 -0.5258
 3528TIP3    H132143   7.114   5.205   7.749  1.4708  2.1271 -1.3651
 3528TIP3    H232144   7.201   5.113   7.832 -0.4109 -0.2379 -1.8978
 3529TIP3   OH232145   2.017   6.698   1.940 -0.6890 -0.0508  0.1828
 3529TIP3    H132146   1.930   6.731   1.960 -0.3630 -0.0021  1.6680
 3529TIP3    H232147   2.071   6.776   1.928 -0.5607 -0.0672  0.6461
 3530TIP3   OH232148   4.068   4.322   6.707  0.0516  0.3607 -0.5049
 3530TIP3    H132149   3.990   4.276   6.737 -0.0260  0.2456 -0.8789
 3530TIP3    H232150   4.048   4.415   6.718  0.4825  0.3125  0.9511
 3531TIP3   OH232151   6.059   6.346   6.449  0.5081  0.1825  0.3277
 3531TIP3    H132152   6.070   6.440   6.466 -1.6622  0.7409 -0.9341
 3531TIP3    H232153   6.074   6.337   6.355  0.2206 -0.6556  0.3544
 3532TIP3   OH232154   6.917   6.384   7.353  0.5371  0.1721  0.5328
 3532TIP3    H132155   6.851   6.452   7.358  0.2179 -0.1263  0.4416
 3532TIP3    H232156   6.925   6.351   7.443 -0.5343 -0.8118  0.2937
 3533TIP3   OH232157   2.009   1.420   0.830 -0.3812 -0.1322  0.0494
 3533TIP3    H132158   2.051   1.500   0.860  0.7856  0.3059 -2.4924
 3533TIP3    H232159   2.071   1.351   0.852 -0.1901 -0.0067 -0.0994
 3534TIP3   OH232160   5.928   4.965   7.812 -0.3000  0.0146 -0.4556
 3534TIP3    H132161   6.018   4.961   7.845  0.4639  1.0146 -2.3000
 3534TIP3    H232162   5.874   4.943   7.888  1.4905 -0.7750  0.6549
 3535TIP3   OH232163   4.089   3.581   7.832 -0.1675 -0.1627 -0.2719
 3535TIP3    H132164   4.034   3.562   7.908  0.4375 -0.5474  0.0730
 3535TIP3    H232165   4.026   3.597   7.761 -0.7303 -0.8695  0.0481
 3536TIP3   OH232166   1.530   2.261   5.982 -0.2550  0.0423  0.7780
 3536TIP3    H132167   1.457   2.199   5.976 -0.4788  0.3171  0.6157
 3536TIP3    H232168   1.607   2.210   5.960 -0.4225 -0.2052  0.7592
 3537TIP3   OH232169   0.126   5.666   1.313  0.2392  0.4795 -0.3364
 3537TIP3    H132170   0.157   5.619   1.391 -1.0153 -0.6287 -0.4676
 3537TIP3    H232171   0.190   5.735   1.299  2.5386 -1.5439 -0.4631
 3538TIP3   OH232172   0.942   5.876   0.149 -0.5404 -0.0927 -0.2820
 3538TIP3    H132173   0.882   5.899   0.220  0.2646 -1.1168  0.7755
 3538TIP3    H232174   0.946   5.954   0.094  0.0151  1.3408  1.6571
 3539TIP3   OH232175   4.793   0.812   6.877  0.1954  0.1740  0.0155
 3539TIP3    H132176   4.761   0.721   6.874  0.3571  0.1280 -1.7851
 3539TIP3    H232177   4.722   0.863   6.838 -0.1654  0.9386  1.6235
 3540TIP3   OH232178   1.904   2.488   6.541 -0.1014 -0.9862 -0.4767
 3540TIP3    H132179   1.810   2.499   6.555  0.1923 -0.4362  1.3225
 3540TIP3    H232180   1.933   2.570   6.501 -0.5605 -1.6533 -2.2862
 3541TIP3   OH232181   5.751   0.238   6.676  0.0114  0.4789 -0.1957
 3541TIP3    H132182   5.707   0.317   6.646 -0.8303 -0.2303 -0.8996
 3541TIP3    H232183   5.693   0.202   6.742 -0.9382 -0.9000 -1.7059
 3542TIP3   OH232184   5.443   1.377   0.034  0.0300 -0.3780 -0.2147
 3542TIP3    H132185   5.426   1.371   0.129  1.1750  1.5219  0.1768
 3542TIP3    H232186   5.461   1.288   0.007  0.0382 -0.9187  1.4434
 3543TIP3   OH232187   5.869   5.209   7.701  0.1631 -0.0451 -0.0302
 3543TIP3    H132188   5.786   5.207   7.654  0.2737 -0.2874 -0.2200
 3543TIP3    H232189   5.878   5.122   7.738  0.5637 -0.1741 -0.4222
 3544TIP3   OH232190   4.077   0.846   7.929 -0.2366  0.4011 -0.5301
 3544TIP3    H132191   4.121   0.842   7.844  0.9484  0.0432  0.0695
 3544TIP3    H232192   4.005   0.908   7.916  1.2945  2.1236 -1.1938
 3545TIP3   OH232193   2.172   1.970   0.767 -0.2704  0.8972 -0.0057
 3545TIP3    H132194   2.258   1.990   0.730  0.2290 -1.7585 -0.4992
 3545TIP3    H232195   2.191   1.929   0.851 -1.1808  1.8548  0.6991
 3546TIP3   OH232196   1.945   7.080   7.703 -0.2283  0.2649  0.2686
 3546TIP3    H132197   1.959   7.011   7.768 -1.6834  0.4056  0.7499
 3546TIP3    H232198   1.872   7.048   7.649 -1.1740  1.5719  0.7246
 3547TIP3   OH232199   5.123   4.475   5.661 -0.1314  0.3498 -0.4263
 3547TIP3    H132200   5.177   4.470   5.582 -0.2729 -0.0474 -0.4988
 3547TIP3    H232201   5.187   4.479   5.733  0.0359  2.5807 -0.6320
 3548TIP3   OH232202   5.880   2.274   6.733 -0.0757  0.7507  0.3514
 3548TIP3    H132203   5.973   2.287   6.753 -0.1500  2.2567 -0.1414
 3548TIP3    H232204   5.880   2.233   6.646  0.1391 -1.3768  1.2947
 3549TIP3   OH232205   5.770   0.296   7.173 -0.0888  0.0517 -0.3608
 3549TIP3    H132206   5.690   0.243   7.180  0.5852 -0.8887  0.4144
 3549TIP3    H232207   5.775   0.345   7.255  1.7608 -2.2945  1.0430
 3550TIP3   OH232208   5.595   3.741   1.627 -0.2235 -0.2631 -0.1026
 3550TIP3    H132209   5.565   3.659   1.667  0.0297 -1.0343 -1.4149
 3550TIP3    H232210   5.542   3.749   1.548  1.0908 -0.2079 -1.0164
 3551TIP3   OH232211   2.805   1.637   1.498  0.1593 -0.4661  0.0755
 3551TIP3    H132212   2.858   1.715   1.516 -0.5922 -0.1847  1.1665
 3551TIP3    H232213   2.869   1.566   1.494  0.6039 -0.2048  1.7946
 3552TIP3   OH232214   3.857   5.222   7.596 -0.2894 -0.3111  0.4135
 3552TIP3    H132215   3.941   5.239   7.552  0.3036 -1.0960  1.2012
 3552TIP3    H232216   3.841   5.129   7.584 -2.3385  0.2403 -1.8595
 3553TIP3   OH232217   4.098   0.642   1.296 -0.5760  0.3439 -0.0253
 3553TIP3    H132218   4.137   0.629   1.383  0.4361  1.3865 -0.2819
 3553TIP3    H232219   4.031   0.575   1.289  1.1025 -1.4945  0.5161
 3554TIP3   OH232220   5.136   1.276   0.394  0.3459 -0.3968  0.0826
 3554TIP3    H132221   5.147   1.358   0.443 -0.0084  1.3666 -2.5269
 3554TIP3    H232222   5.223   1.258   0.359 -0.0107  0.1886 -1.1747
 3555TIP3   OH232223   0.851   6.632   6.597  0.0949 -0.1693  0.5919
 3555TIP3    H132224   0.919   6.618   6.663  1.1404  0.6379 -0.2814
 3555TIP3    H232225   0.881   6.585   6.520 -0.9431 -0.8060  0.5521
 3556TIP3   OH232226   2.862   1.614   7.985 -0.0215  0.1792  0.4193
 3556TIP3    H132227   2.842   1.521   7.978 -1.7425  0.1463  3.5472
 3556TIP3    H232228   2.786   1.657   7.945 -0.4683  0.1658  1.2229
 3557TIP3   OH232229   5.075   1.822   1.417  0.0465  0.3073  1.3416
 3557TIP3    H132230   5.074   1.726   1.416 -0.1511  0.3094  1.2298
 3557TIP3    H232231   5.154   1.845   1.464  1.3565  0.0862 -0.6311
 3558TIP3   OH232232   5.015   2.369   1.450 -0.3865 -0.3609 -0.2489
 3558TIP3    H132233   5.045   2.384   1.360  1.8745  1.0269  0.6348
 3558TIP3    H232234   5.082   2.313   1.489 -0.5204  0.2930  0.9722
 3559TIP3   OH232235   3.246   5.486   6.500  0.3644  0.1448 -0.0049
 3559TIP3    H132236   3.179   5.533   6.550 -0.2291 -1.4354  0.7477
 3559TIP3    H232237   3.226   5.507   6.408 -0.3621  0.7235  0.2703
 3560TIP3   OH232238   6.133   3.262   6.945 -0.1047 -0.3986  0.3509
 3560TIP3    H132239   6.219   3.229   6.973 -0.7907 -1.5423  1.1994
 3560TIP3    H232240   6.075   3.186   6.953 -1.9042  1.0844  2.9166
 3561TIP3   OH232241   5.433   2.506   6.765 -0.6271 -0.0365 -0.3918
 3561TIP3    H132242   5.506   2.521   6.705  2.1324  0.4875  2.7980
 3561TIP3    H232243   5.415   2.592   6.803 -0.9292 -0.6506  0.9117
 3562TIP3   OH232244   1.672   1.169   1.566  0.4748 -0.7778 -0.5860
 3562TIP3    H132245   1.596   1.189   1.620 -0.2492  0.3759 -1.9717
 3562TIP3    H232246   1.746   1.204   1.616  0.1330 -1.9883  0.8121
 3563TIP3   OH232247   6.564   2.304   1.337  0.0782  0.0188  0.6640
 3563TIP3    H132248   6.511   2.341   1.267  0.6800  1.6453  1.0011
 3563TIP3    H232249   6.654   2.311   1.305  0.1876 -1.9171  0.4446
 3564TIP3   OH232250   1.093   6.328   6.487  0.0558 -1.1001  0.6396
 3564TIP3    H132251   1.037   6.293   6.556 -1.6544  1.3775  0.6521
 3564TIP3    H232252   1.148   6.392   6.531 -0.2087 -0.3616 -0.0749
 3565TIP3   OH232253   1.945   6.115   7.784 -0.1155  0.2374  0.5469
 3565TIP3    H132254   1.900   6.193   7.817  0.8290  0.9120  0.2952
 3565TIP3    H232255   1.991   6.080   7.860  0.2887  0.5277  0.4413
 3566TIP3   OH232256   4.744   0.191   7.037  0.5810  0.6859 -0.2144
 3566TIP3    H132257   4.772   0.099   7.041 -0.1042  0.1944 -3.6533
 3566TIP3    H232258   4.666   0.195   7.092  1.6104 -0.3278  1.3982
 3567TIP3   OH232259   2.644   2.843   1.628 -0.9050 -0.4925 -0.1796
 3567TIP3    H132260   2.646   2.784   1.702  0.3894 -0.9839 -0.5832
 3567TIP3    H232261   2.700   2.916   1.654 -3.2498  1.1286  0.7162
 3568TIP3   OH232262   1.373   6.630   6.295  0.4040 -0.2960 -0.6000
 3568TIP3    H132263   1.390   6.536   6.291 -0.5268 -0.4307 -1.5505
 3568TIP3    H232264   1.329   6.651   6.213 -0.2057  0.8076 -0.0147
 3569TIP3   OH232265   2.663   1.123   6.041 -0.1427 -0.1660 -0.3964
 3569TIP3    H132266   2.585   1.157   5.998 -0.9181 -1.5308 -0.1257
 3569TIP3    H232267   2.733   1.131   5.976 -0.5880  0.7410 -0.7654
 3570TIP3   OH232268   7.074   2.711   6.679 -0.2533  0.4336 -0.2844
 3570TIP3    H132269   7.029   2.634   6.713 -0.1883  0.3837 -0.3104
 3570TIP3    H232270   7.103   2.686   6.592  0.7442  0.0882  0.1237
 3571TIP3   OH232271   0.569   4.989   6.321  0.3069 -1.0916  0.1000
 3571TIP3    H132272   0.562   4.915   6.259 -0.8056 -0.5914 -0.4104
 3571TIP3    H232273   0.626   5.052   6.277  0.9020 -1.4536  0.3436
 3572TIP3   OH232274   1.038   1.522   0.174  1.1534 -0.2951  0.1055
 3572TIP3    H132275   1.072   1.611   0.170  2.7949 -0.8538  0.6857
 3572TIP3    H232276   1.032   1.493   0.083 -0.3390  0.7009 -0.1571
 3573TIP3   OH232277   6.574   3.020   0.303 -0.3417 -0.3004 -0.0220
 3573TIP3    H132278   6.515   3.090   0.332 -0.5129 -0.3589 -0.2294
 3573TIP3    H232279   6.645   3.021   0.367 -1.0817 -0.9077  0.8413
 3574TIP3   OH232280   2.738   2.418   7.369 -0.2970  0.4370 -0.0865
 3574TIP3    H132281   2.771   2.350   7.311  1.4214  1.8589 -0.8449
 3574TIP3    H232282   2.707   2.487   7.311  0.0481  1.2470  0.6652
 3575TIP3   OH232283   5.982   6.112   7.502  0.6391 -0.0728 -0.5466
 3575TIP3    H132284   5.910   6.166   7.471 -0.0258  0.4767  1.7272
 3575TIP3    H232285   6.040   6.174   7.548  0.8234 -1.0014  0.5048
 3576TIP3   OH232286   5.549   7.022   0.530  0.2830  0.1738 -0.3212
 3576TIP3    H132287   5.641   7.048   0.527  0.4562  0.1083  2.1903
 3576TIP3    H232288   5.501   7.105   0.537  0.3098  0.1491  0.2315
 3577TIP3   OH232289   6.870   0.849   1.891  0.0629 -0.0912  0.2071
 3577TIP3    H132290   6.821   0.795   1.830 -0.5813 -1.3063  1.7257
 3577TIP3    H232291   6.806   0.912   1.924  0.0650 -0.2847  0.5856
 3578TIP3   OH232292   4.394   0.249   1.003 -0.1614 -0.1885  0.0883
 3578TIP3    H132293   4.384   0.337   0.969  0.1054 -0.4671 -0.7405
 3578TIP3    H232294   4.471   0.253   1.060 -0.5129  0.2451  0.5385
 3579TIP3   OH232295   0.424   2.526   6.425 -0.0323 -0.4476  0.4465
 3579TIP3    H132296   0.329   2.529   6.439  0.0739  0.7929  1.0489
 3579TIP3    H232297   0.460   2.504   6.511  0.2985  0.7436  0.6279
 3580TIP3   OH232298   0.565   3.383   7.261 -0.5167 -0.2808  0.9110
 3580TIP3    H132299   0.603   3.442   7.326  0.0003  0.5201 -0.0872
 3580TIP3    H232300   0.492   3.431   7.224 -1.4994 -1.1653  1.6389
 3581TIP3   OH232301   4.840   6.564   0.299  0.4142 -0.0647 -0.3979
 3581TIP3    H132302   4.853   6.475   0.333 -0.5032 -0.4398 -1.0036
 3581TIP3    H232303   4.919   6.582   0.248 -0.0795 -1.1635 -1.6037
 3582TIP3   OH232304   5.951   0.010   6.165 -0.6108 -0.1118 -0.0370
 3582TIP3    H132305   5.875  -0.008   6.220 -0.5663  0.2823  0.1601
 3582TIP3    H232306   5.914   0.039   6.082 -0.6785  0.4140  0.1725
 3583TIP3   OH232307   4.959   1.937   6.468 -0.3924 -0.4491 -1.0200
 3583TIP3    H132308   5.033   1.997   6.475  1.3943 -2.4938 -1.4207
 3583TIP3    H232309   4.900   1.979   6.405  0.8906  0.7820 -1.4444
 3584TIP3   OH232310   1.043   1.287   1.207  0.4858 -0.4491 -0.1296
 3584TIP3    H132311   0.984   1.248   1.143 -3.2218  1.0767  2.0306
 3584TIP3    H232312   1.051   1.220   1.276  1.3548 -0.6571 -0.4213
 3585TIP3   OH232313   4.041   6.780   7.199  0.4311  0.4103  0.1081
 3585TIP3    H132314   3.962   6.809   7.245  0.6518 -0.6630  1.2137
 3585TIP3    H232315   4.092   6.733   7.265  0.6269 -1.4478 -1.2683
 3586TIP3   OH232316   0.959   2.906   6.522 -0.5845  0.4181 -0.0403
 3586TIP3    H132317   0.993   2.856   6.596  0.1442  1.4347  0.3360
 3586TIP3    H232318   0.903   2.973   6.563 -1.0311  0.3193 -0.4844
 3587TIP3   OH232319   1.877   2.229   0.524 -0.4758 -0.0106  0.1792
 3587TIP3    H132320   1.954   2.284   0.537 -0.4928  0.0764 -0.0994
 3587TIP3    H232321   1.908   2.157   0.469 -0.5766 -0.0096  0.1203
 3588TIP3   OH232322   5.660   6.220   6.679  0.2207 -0.3954 -0.5269
 3588TIP3    H132323   5.577   6.266   6.691  0.9287  0.6214  0.7133
 3588TIP3    H232324   5.698   6.260   6.600  0.9377  1.3887  0.6668
 3589TIP3   OH232325   5.900   4.213   0.916  0.2984  0.1405 -0.2774
 3589TIP3    H132326   5.932   4.218   0.827  2.4139 -0.3062  0.4034
 3589TIP3    H232327   5.971   4.172   0.965 -0.6141  0.7963  1.7052
 3590TIP3   OH232328   1.903   5.162   6.291 -0.1372 -0.6108 -0.4526
 3590TIP3    H132329   1.841   5.166   6.363 -0.5089  2.2108 -0.8091
 3590TIP3    H232330   1.849   5.160   6.212  0.1765  0.4337 -0.7197
 3591TIP3   OH232331   1.303   1.707   7.524 -0.3976  0.0084  0.4662
 3591TIP3    H132332   1.232   1.643   7.516  0.4854 -0.9152 -0.4110
 3591TIP3    H232333   1.289   1.769   7.452  1.6180 -2.2532 -2.1351
 3592TIP3   OH232334   4.281   3.357   7.135 -0.5687  0.1567  0.0078
 3592TIP3    H132335   4.277   3.309   7.053 -1.8725  0.4004 -0.0953
 3592TIP3    H232336   4.359   3.323   7.179  1.0485  1.0949 -1.9588
 3593TIP3   OH232337   6.886   4.380   0.998 -0.1023  0.1794  0.3058
 3593TIP3    H132338   6.873   4.464   1.042 -1.6624 -0.1752  0.5661
 3593TIP3    H232339   6.858   4.315   1.063 -2.3782 -0.3680 -1.1287
 3594TIP3   OH232340   5.574   5.758   7.465 -0.4973  0.0527 -0.1080
 3594TIP3    H132341   5.500   5.712   7.424  1.4107 -2.7849 -0.6877
 3594TIP3    H232342   5.589   5.834   7.409 -3.1986  0.9844  0.3120
 3595TIP3   OH232343   3.159   6.061   7.327  0.0277  0.4782 -0.3225
 3595TIP3    H132344   3.245   6.028   7.352 -0.1144 -0.3010 -0.8244
 3595TIP3    H232345   3.174   6.107   7.244  0.1086  1.1313  0.0439
 3596TIP3   OH232346   3.410   1.761   1.116 -0.4945 -0.3145 -0.1119
 3596TIP3    H132347   3.395   1.792   1.205 -2.0420  1.7669 -1.0192
 3596TIP3    H232348   3.489   1.708   1.122  0.9848  1.9440  2.0110
 3597TIP3   OH232349   0.978   0.914   7.689  0.0065 -0.2492  0.2656
 3597TIP3    H132350   0.953   0.981   7.625  0.6821 -2.2076 -2.1803
 3597TIP3    H232351   1.073   0.924   7.697  0.2987 -1.6134 -1.0554
 3598TIP3   OH232352   4.308   3.433   7.812  0.2959 -0.0390 -0.2228
 3598TIP3    H132353   4.353   3.469   7.888 -2.3220  0.4949  1.2108
 3598TIP3    H232354   4.219   3.469   7.818 -0.8074 -2.2284 -1.9600
 3599TIP3   OH232355   0.333   2.120   7.804 -0.3527 -0.1336  0.2521
 3599TIP3    H132356   0.327   2.033   7.842  0.9963 -0.9097 -1.1620
 3599TIP3    H232357   0.252   2.130   7.753 -0.1017 -0.9844 -0.3480
 3600TIP3   OH232358   3.035   2.811   6.878  0.6356  0.1646 -0.0730
 3600TIP3    H132359   2.962   2.750   6.889  1.3955 -0.8246 -0.3380
 3600TIP3    H232360   3.089   2.798   6.956  0.3026  1.2268  0.3459
 3601TIP3   OH232361   1.921   0.509   1.012  0.5773  0.1580 -0.3574
 3601TIP3    H132362   1.878   0.492   1.096 -0.7598  0.0038 -1.0547
 3601TIP3    H232363   1.949   0.601   1.018  0.1213  0.2722  0.1070
 3602TIP3   OH232364   4.353   4.471   7.017 -0.5672 -0.0618 -0.8082
 3602TIP3    H132365   4.371   4.541   6.953 -3.2959  0.9681 -0.5992
 3602TIP3    H232366   4.259   4.456   7.009 -0.1508 -3.4398 -0.4800
 3603TIP3   OH232367   3.251   6.748   0.583  0.3122  0.1581 -0.0865
 3603TIP3    H132368   3.298   6.696   0.517  0.0269  0.6436 -0.6815
 3603TIP3    H232369   3.296   6.832   0.585  1.4083 -0.4085  1.6066
 3604TIP3   OH232370   6.575   1.274   6.467  0.2005  0.1127  0.0941
 3604TIP3    H132371   6.656   1.222   6.466  0.6406  0.7989 -0.6346
 3604TIP3    H232372   6.578   1.320   6.551 -0.8559 -1.9991  1.3997
 3605TIP3   OH232373   2.594   5.898   0.299  0.0021 -0.2371  0.5059
 3605TIP3    H132374   2.522   5.956   0.275  1.0397  1.3658  1.0619
 3605TIP3    H232375   2.584   5.822   0.242 -1.3815  0.5087 -0.3011
 3606TIP3   OH232376   1.000   2.971   7.177  0.4806 -0.0965 -0.7695
 3606TIP3    H132377   0.955   2.967   7.262  2.4019 -0.0896  0.3274
 3606TIP3    H232378   1.025   3.063   7.168  1.9784 -0.4252 -0.3439
 3607TIP3   OH232379   0.840   0.760   7.467  0.2912  0.3929 -0.3179
 3607TIP3    H132380   0.894   0.708   7.527 -0.3858  0.5127  0.4230
 3607TIP3    H232381   0.885   0.844   7.462 -0.3229  0.8371  1.0880
 3608TIP3   OH232382   5.761   1.716   7.195  0.2887  0.2147  0.1041
 3608TIP3    H132383   5.842   1.666   7.211  0.9928  1.5192  0.7463
 3608TIP3    H232384   5.691   1.652   7.208  1.1971 -0.9555 -0.4880
 3609TIP3   OH232385   1.864   0.535   1.916 -0.2345 -0.5530 -0.4538
 3609TIP3    H132386   1.819   0.593   1.977 -0.6273 -0.2951 -0.9771
 3609TIP3    H232387   1.825   0.448   1.932 -0.6620 -0.4002 -0.6494
 3610TIP3   OH232388   1.068   1.000   6.369  0.1988 -0.9775  0.2271
 3610TIP3    H132389   1.120   1.017   6.290 -1.3827  1.2345 -0.4288
 3610TIP3    H232390   1.120   1.038   6.440  0.0980  0.0962 -0.2515
 3611TIP3   OH232391   5.672   2.547   6.470 -0.0326 -0.5223 -0.7296
 3611TIP3    H132392   5.666   2.457   6.440  0.7870 -0.4306 -1.1780
 3611TIP3    H232393   5.668   2.600   6.391  2.5872 -0.2975 -0.8093
 3612TIP3   OH232394   4.412   2.408   7.506 -0.2879  0.1437 -0.3393
 3612TIP3    H132395   4.439   2.346   7.438 -0.1326 -0.0224 -0.1324
 3612TIP3    H232396   4.485   2.470   7.513 -0.6083  0.5745 -0.8074
 3613TIP3   OH232397   4.631   4.099   7.082 -0.1403 -0.2554 -0.5319
 3613TIP3    H132398   4.617   4.118   6.989  0.7165 -1.3819 -0.9181
 3613TIP3    H232399   4.660   4.008   7.083 -0.1728 -0.2626  0.8517
 3614TIP3   OH232400   5.100   6.608   6.271  0.4104  0.0703 -0.1934
 3614TIP3    H132401   5.142   6.623   6.355  0.4903  0.3188 -0.2756
 3614TIP3    H232402   5.116   6.689   6.222  0.3455 -0.0651 -0.4373
 3615TIP3   OH232403   3.648   3.119   1.546 -0.2462  0.0035  0.1092
 3615TIP3    H132404   3.567   3.132   1.496  0.5616  1.7689 -0.8324
 3615TIP3    H232405   3.632   3.163   1.629  0.0480  1.2108 -0.4489
 3616TIP3   OH232406   6.937   5.866   0.280  0.1867 -0.2999 -0.4489
 3616TIP3    H132407   6.945   5.779   0.320 -2.6444 -0.1535  0.6346
 3616TIP3    H232408   7.012   5.915   0.314 -0.9587 -0.8223  3.2323
 3617TIP3   OH232409   5.992   4.499   0.226 -0.1023 -0.5389 -0.5240
 3617TIP3    H132410   5.957   4.435   0.289 -1.8710 -0.1363 -1.0568
 3617TIP3    H232411   6.019   4.445   0.152  0.5605 -0.8681 -0.0596
 3618TIP3   OH232412   5.993   2.117   6.507  0.2542 -0.6142  0.2697
 3618TIP3    H132413   6.042   2.107   6.425 -1.9712 -0.9383 -1.1020
 3618TIP3    H232414   6.045   2.070   6.572  2.2656 -0.0442 -0.8526
 3619TIP3   OH232415   5.398   5.836   0.127  0.2973 -0.6049  0.2792
 3619TIP3    H132416   5.452   5.867   0.199 -0.6549  1.1307  0.3104
 3619TIP3    H232417   5.343   5.768   0.165  1.0158 -0.9316  0.7410
 3620TIP3   OH232418   1.946   0.602   7.266  0.0315  0.3371 -0.2242
 3620TIP3    H132419   2.004   0.600   7.342  1.2688  0.4204 -1.1314
 3620TIP3    H232420   1.880   0.535   7.284  0.8188 -0.2634  0.5139
 3621TIP3   OH232421   3.001   1.567   1.078 -0.1288 -0.1261  0.0777
 3621TIP3    H132422   3.045   1.636   1.029  1.1628  0.3686  1.8352
 3621TIP3    H232423   3.069   1.501   1.092 -0.6632 -0.5914  0.5384
 3622TIP3   OH232424   0.263   6.929   1.676 -0.2428 -0.7331 -0.0615
 3622TIP3    H132425   0.184   6.964   1.634 -0.6605  0.0578  1.2999
 3622TIP3    H232426   0.261   6.967   1.764  1.4130 -1.0912  0.1534
 3623TIP3   OH232427   6.504   6.634   5.841  0.3790 -0.5354  0.2670
 3623TIP3    H132428   6.548   6.714   5.813  0.2931 -0.6292 -0.1413
 3623TIP3    H232429   6.413   6.659   5.853  0.7353 -0.0442  2.3082
 3624TIP3   OH232430   3.648   3.622   7.881  0.5953 -0.6034 -0.3555
 3624TIP3    H132431   3.649   3.528   7.865  1.0949 -0.6227 -0.2258
 3624TIP3    H232432   3.557   3.648   7.866  0.6602 -0.9246 -1.3981
 3625TIP3   OH232433   2.898   6.330   7.950 -0.4745 -0.6941  0.5701
 3625TIP3    H132434   2.950   6.251   7.933  1.8066  0.3403  2.1693
 3625TIP3    H232435   2.855   6.313   8.034 -0.5946 -0.5308  0.5428
 3626TIP3   OH232436   2.961   1.847   6.589 -0.4585  0.2331 -0.0813
 3626TIP3    H132437   2.946   1.766   6.637 -2.9248  0.2331 -0.7058
 3626TIP3    H232438   2.945   1.917   6.652  0.8534  0.2618  0.2425
 3627TIP3   OH232439   5.055   5.399   6.318 -0.4486  0.1178  0.3454
 3627TIP3    H132440   4.962   5.421   6.316 -0.0396  2.0227  0.1926
 3627TIP3    H232441   5.064   5.325   6.258 -1.2703  2.4522 -2.8784
 3628TIP3   OH232442   4.194   2.095   6.071 -0.4978  0.1731  0.1714
 3628TIP3    H132443   4.268   2.126   6.123 -0.2284  1.4049 -0.9018
 3628TIP3    H232444   4.129   2.165   6.078 -1.0683 -0.3367  0.0872
 3629TIP3   OH232445   2.396   5.444   7.430  0.0974  0.6351  0.2131
 3629TIP3    H132446   2.477   5.491   7.407 -0.3858  0.9550 -0.8936
 3629TIP3    H232447   2.333   5.472   7.364  0.0137 -2.2652 -1.0523
 3630TIP3   OH232448   1.298   0.986   6.215  0.0905  0.3248 -0.7140
 3630TIP3    H132449   1.280   1.031   6.133 -0.4190 -0.0607 -0.8177
 3630TIP3    H232450   1.265   0.897   6.202  1.1342 -0.1039 -0.5255
 3631TIP3   OH232451   2.683   0.352   6.175  0.2506  0.4589  0.4239
 3631TIP3    H132452   2.627   0.428   6.185  0.4355  0.5629  0.6820
 3631TIP3    H232453   2.771   0.385   6.193  0.1522 -0.1596  2.1834
 3632TIP3   OH232454   2.983   3.966   7.431  0.1250 -0.1871 -0.1744
 3632TIP3    H132455   2.985   3.877   7.466 -0.6984 -1.3348 -2.8515
 3632TIP3    H232456   3.075   3.989   7.419  0.3327 -0.9448 -0.0813
 3633TIP3   OH232457   2.501   1.309   0.375  0.1985 -0.1818 -0.1939
 3633TIP3    H132458   2.430   1.374   0.378 -0.0838 -0.4831 -0.2012
 3633TIP3    H232459   2.580   1.359   0.393 -0.1793 -0.0837  1.3407
 3634TIP3   OH232460   3.223   3.982   1.124  0.0269 -0.0947  0.3705
 3634TIP3    H132461   3.190   4.012   1.040  0.1367 -0.7600  0.0830
 3634TIP3    H232462   3.289   4.047   1.149 -0.1067  0.1803  0.0080
 3635TIP3   OH232463   2.306   5.516   6.747 -0.3974 -0.3937 -0.3134
 3635TIP3    H132464   2.245   5.447   6.773 -0.6433 -0.5360 -1.2233
 3635TIP3    H232465   2.352   5.479   6.671  0.3786 -0.0447 -0.0253
 3636TIP3   OH232466   6.632   2.937   6.240  0.0587  0.2932 -0.2204
 3636TIP3    H132467   6.568   3.008   6.249 -0.7125 -0.4779  0.7360
 3636TIP3    H232468   6.605   2.873   6.306  0.1165 -1.3438 -1.7187
 3637TIP3   OH232469   2.036   0.428   7.641  0.0275 -0.2532  0.1830
 3637TIP3    H132470   2.002   0.363   7.579 -1.0250  1.1210 -0.7440
 3637TIP3    H232471   2.091   0.485   7.587 -0.2958  0.5181  0.6556
 3638TIP3   OH232472   5.073   2.127   7.667 -0.2993 -0.4987  0.2806
 3638TIP3    H132473   5.129   2.055   7.636 -0.1100 -0.9216  1.5467
 3638TIP3    H232474   4.984   2.101   7.642 -0.3573 -1.6798  1.5489
 3639TIP3   OH232475   1.100   1.581   0.850  0.7959 -0.3388  0.7858
 3639TIP3    H132476   1.047   1.502   0.863  1.6778 -1.2018 -0.6180
 3639TIP3    H232477   1.184   1.560   0.892  2.0013 -1.2971 -1.8874
 3640TIP3   OH232478   3.563   1.330   6.306  0.5676  0.2369 -0.3750
 3640TIP3    H132479   3.637   1.328   6.246 -0.3132  0.1278 -1.4760
 3640TIP3    H232480   3.541   1.423   6.314  0.4731  0.2232 -0.4798
 3641TIP3   OH232481   6.593   6.902   5.780 -0.3408  0.2945 -0.6457
 3641TIP3    H132482   6.613   6.968   5.714 -0.5707  0.4918 -0.5232
 3641TIP3    H232483   6.573   6.954   5.859  1.7598  0.0436  0.1195
 3642TIP3   OH232484   3.229   5.076   1.076 -0.4843 -0.3315 -0.1293
 3642TIP3    H132485   3.282   5.153   1.056 -1.2852  0.3771  0.4558
 3642TIP3    H232486   3.282   5.002   1.044  0.6466  0.3884  0.0264
 3643TIP3   OH232487   5.325   5.284   1.128 -0.2010 -0.1275  0.3359
 3643TIP3    H132488   5.247   5.274   1.183 -1.1230 -1.3341 -1.0962
 3643TIP3    H232489   5.316   5.371   1.088 -0.4273  0.0378  0.7488
 3644TIP3   OH232490   5.048   1.310   6.123  0.7444  0.3069  0.3026
 3644TIP3    H132491   4.982   1.266   6.070  1.1236 -1.0758  0.9260
 3644TIP3    H232492   5.070   1.389   6.074  1.2609 -1.0416 -1.7443
 3645TIP3   OH232493   6.489   6.803   0.041 -0.0713  0.5952  0.5333
 3645TIP3    H132494   6.571   6.800  -0.008 -0.3680  0.2023  0.0374
 3645TIP3    H232495   6.462   6.895   0.038  0.1385  0.6511  0.3261
 3646TIP3   OH232496   4.478   2.910   2.050  0.2520  0.2417  0.3889
 3646TIP3    H132497   4.561   2.862   2.053 -0.7545 -1.7343 -1.4160
 3646TIP3    H232498   4.423   2.866   2.115 -1.1640 -2.1991 -2.2813
 3647TIP3   OH232499   4.386   1.744   0.411 -0.8143 -0.2502 -0.4302
 3647TIP3    H132500   4.479   1.725   0.425 -0.6110  1.5240  1.0563
 3647TIP3    H232501   4.380   1.765   0.318  0.5710  0.9301 -0.2949
 3648TIP3   OH232502   5.363   0.695   0.544 -0.0023  0.2812  0.1388
 3648TIP3    H132503   5.392   0.781   0.515  2.3953 -0.8615 -1.1618
 3648TIP3    H232504   5.416   0.675   0.621 -0.5856  0.0053  0.4755
 3649TIP3   OH232505   4.825   5.286   6.692 -0.1625 -0.9533 -0.2407
 3649TIP3    H132506   4.810   5.234   6.770 -0.6960  0.4997  0.6669
 3649TIP3    H232507   4.813   5.376   6.721  2.7807 -0.1412 -1.2739
 3650TIP3   OH232508   4.535   4.101   1.085 -0.1887  0.3858 -0.2914
 3650TIP3    H132509   4.590   4.056   1.148 -0.7157  0.4593  0.2310
 3650TIP3    H232510   4.513   4.035   1.019  1.2046  0.5662 -0.9789
 3651TIP3   OH232511   4.862   2.718   7.604  0.0482 -0.3414  0.3028
 3651TIP3    H132512   4.855   2.672   7.687  0.8276  0.9052  1.0773
 3651TIP3    H232513   4.791   2.682   7.551  0.0404 -1.7280  1.2060
 3652TIP3   OH232514   1.991   1.125   7.140 -0.6895  0.2567 -0.4487
 3652TIP3    H132515   1.962   1.048   7.190 -0.4316 -0.0277 -0.7279
 3652TIP3    H232516   1.996   1.094   7.050 -3.4161  1.3789 -1.0864
 3653TIP3   OH232517   1.199   2.987   1.527  0.0532 -0.2551  0.3732
 3653TIP3    H132518   1.253   2.921   1.569 -0.7535 -0.4454  1.1600
 3653TIP3    H232519   1.109   2.964   1.551 -0.5798 -0.9654 -2.3065
 3654TIP3   OH232520   1.418   5.760   7.252  0.1672 -0.0601 -0.1145
 3654TIP3    H132521   1.482   5.779   7.183  0.4324 -1.5830 -0.3319
 3654TIP3    H232522   1.428   5.832   7.315  1.6252  0.0864 -0.4782
 3655TIP3   OH232523   1.391   5.024   0.438 -0.2014 -0.0486  0.5186
 3655TIP3    H132524   1.308   5.062   0.406 -0.1478  1.3686  1.9229
 3655TIP3    H232525   1.458   5.081   0.401  0.4141 -2.3399 -2.2877
 3656TIP3   OH232526   6.167   3.169   0.303 -0.1587 -0.6581 -0.1504
 3656TIP3    H132527   6.244   3.215   0.271 -0.8790  0.1691 -0.7651
 3656TIP3    H232528   6.170   3.084   0.259  0.3896 -0.6248 -0.1832
 3657TIP3   OH232529   0.405   2.951   0.788 -0.2467 -0.0367 -0.0432
 3657TIP3    H132530   0.491   2.978   0.754  1.0983  0.8782  3.5729
 3657TIP3    H232531   0.426   2.888   0.857 -2.6290 -0.8455  0.0170
 3658TIP3   OH232532   6.410   4.908   7.031  0.7738 -0.2204 -0.3774
 3658TIP3    H132533   6.493   4.931   6.989  0.4694  0.7912 -0.4588
 3658TIP3    H232534   6.364   4.855   6.966  1.0148 -0.0930 -0.6533
 3659TIP3   OH232535   3.949   6.535   1.250  0.0506  0.4314 -0.5416
 3659TIP3    H132536   3.937   6.628   1.231  1.6610  1.0306  1.0390
 3659TIP3    H232537   3.886   6.490   1.194  0.3949  2.3575 -2.6088
 3660TIP3   OH232538   2.430   4.987   0.130  0.3431  0.0766 -0.4978
 3660TIP3    H132539   2.417   4.960   0.221 -1.9024 -1.7445 -1.2476
 3660TIP3    H232540   2.392   4.915   0.079 -0.6187  2.1108 -2.8168
 3661TIP3   OH232541   7.132   0.864   6.917 -0.1710 -0.2019  0.5614
 3661TIP3    H132542   7.082   0.784   6.937 -1.2127 -0.0935 -1.3651
 3661TIP3    H232543   7.218   0.848   6.956 -0.6987 -1.7867  1.1895
 3662TIP3   OH232544   7.062   1.742   1.801 -0.2373  0.0951 -0.2681
 3662TIP3    H132545   7.050   1.647   1.804  0.2085  0.0379 -0.3471
 3662TIP3    H232546   7.022   1.773   1.882 -1.9388  0.0128 -1.0312
 3663TIP3   OH232547   6.133   2.048   1.456 -0.0728  0.0278 -0.2675
 3663TIP3    H132548   6.063   2.042   1.521 -1.5298  0.1523 -1.7478
 3663TIP3    H232549   6.164   1.959   1.446  0.3215  0.0388  0.7328
 3664TIP3   OH232550   1.211   0.737   6.118 -0.2583 -1.0626  0.5425
 3664TIP3    H132551   1.277   0.687   6.070  0.4996  1.0185 -0.7060
 3664TIP3    H232552   1.153   0.772   6.051 -0.9646 -0.5420  1.3983
 3665TIP3   OH232553   3.252   5.588   6.250  0.0575  0.0938  0.5163
 3665TIP3    H132554   3.230   5.633   6.168 -0.6122 -0.1560  0.5558
 3665TIP3    H232555   3.314   5.646   6.293 -0.1213  0.5590  0.1543
 3666TIP3   OH232556   1.165   2.566   1.469 -0.1248 -0.0737 -0.0713
 3666TIP3    H132557   1.172   2.507   1.544 -2.6143  0.8868  1.0129
 3666TIP3    H232558   1.244   2.621   1.475  0.5559 -1.1046  0.8394
 3667TIP3   OH232559   2.993   4.487   5.806 -0.3111  0.7667 -0.3610
 3667TIP3    H132560   2.919   4.476   5.747 -0.5796 -1.3564  0.2854
 3667TIP3    H232561   3.070   4.469   5.752 -0.4709  0.1311 -0.3859
 3668TIP3   OH232562   4.565   3.482   7.622  0.3975  0.4774 -0.6328
 3668TIP3    H132563   4.551   3.576   7.632  1.5751  0.5934  0.1466
 3668TIP3    H232564   4.644   3.475   7.568  0.9133 -0.0422  0.1731
 3669TIP3   OH232565   4.356   1.940   1.701 -0.3389  0.2299  0.0906
 3669TIP3    H132566   4.449   1.961   1.702 -0.3992  0.6675  2.2483
 3669TIP3    H232567   4.313   2.019   1.734 -1.6298  0.4743 -1.9829
 3670TIP3   OH232568   2.380   5.816   7.911  0.0775 -0.0805 -0.3582
 3670TIP3    H132569   2.448   5.754   7.938  0.6012 -0.2043 -1.8256
 3670TIP3    H232570   2.302   5.763   7.899 -0.0059 -0.1157  0.3167
 3671TIP3   OH232571   1.211   3.737   0.317 -0.5823 -0.8696 -0.4520
 3671TIP3    H132572   1.219   3.772   0.406 -0.8658 -0.3672 -0.6195
 3671TIP3    H232573   1.225   3.643   0.327 -3.2900 -1.2459  0.5288
 3672TIP3   OH232574   0.069   6.127   0.685 -0.4729  1.0222 -0.4351
 3672TIP3    H132575   0.161   6.146   0.707  0.2285 -2.1537 -0.1413
 3672TIP3    H232576   0.020   6.154   0.762  0.5709  0.4880  0.4519
 3673TIP3   OH232577   6.046   2.664   0.731 -0.3258 -0.3704 -0.0443
 3673TIP3    H132578   6.005   2.669   0.644  0.5895  1.4197 -0.4317
 3673TIP3    H232579   6.051   2.756   0.759  1.2664 -0.7463  0.9922
 3674TIP3   OH232580   1.788   0.779   6.170  0.3150 -0.3006  0.1609
 3674TIP3    H132581   1.696   0.755   6.183  0.3887 -0.2864  0.7472
 3674TIP3    H232582   1.786   0.846   6.102 -0.0859 -0.4957 -0.0195
 3675TIP3   OH232583   6.324   0.445   6.714  0.1671 -0.3393  0.2605
 3675TIP3    H132584   6.378   0.523   6.700  0.3074 -0.2338  1.3396
 3675TIP3    H232585   6.246   0.478   6.760 -0.1876 -0.7042 -0.0715
 3676TIP3   OH232586   2.973   6.618   0.622  0.2679  0.3463  0.0896
 3676TIP3    H132587   3.063   6.645   0.605 -0.2601  3.5168  1.6028
 3676TIP3    H232588   2.979   6.523   0.635  3.2036  0.3082 -0.7822
 3677TIP3   OH232589   6.152   5.516   1.786  0.0547 -0.3929 -0.5401
 3677TIP3    H132590   6.177   5.426   1.764  2.5829 -0.3838  1.8070
 3677TIP3    H232591   6.117   5.510   1.875 -0.5207  0.8522 -0.6567
 3678TIP3   OH232592   6.637   6.158   7.987 -0.0676 -0.6325 -0.2421
 3678TIP3    H132593   6.705   6.225   7.987  0.8137 -1.4678  1.4404
 3678TIP3    H232594   6.571   6.190   7.925  1.4530  0.5921 -1.2846
 3679TIP3   OH232595   6.571   3.210   6.414 -0.9116 -0.0881 -0.0279
 3679TIP3    H132596   6.529   3.131   6.447  1.5366 -2.2168 -1.6842
 3679TIP3    H232597   6.559   3.274   6.484 -0.5161 -2.7738  2.6942
 3680TIP3   OH232598   2.000   1.505   1.562  0.0752  1.1256  0.0356
 3680TIP3    H132599   2.050   1.471   1.488 -1.8558 -0.5479 -0.5784
 3680TIP3    H232600   1.932   1.559   1.522 -0.4578  0.9163  0.6495
 3681TIP3   OH232601   6.372   2.971   7.638  0.5824 -0.4656  0.3238
 3681TIP3    H132602   6.404   3.050   7.594  0.5732 -0.1632  0.8462
 3681TIP3    H232603   6.450   2.920   7.657  0.4566 -1.4840 -1.6635
 3682TIP3   OH232604   5.422   6.179   7.146 -0.5018  0.1158 -0.1878
 3682TIP3    H132605   5.488   6.150   7.083  0.9214 -0.5784  1.5342
 3682TIP3    H232606   5.340   6.145   7.112  0.4446 -1.6022 -0.8649
 3683TIP3   OH232607   5.995   4.388   6.787 -0.1160 -0.9962  0.0431
 3683TIP3    H132608   5.903   4.414   6.782  0.4736  2.1804  2.6154
 3683TIP3    H232609   5.999   4.330   6.864  0.2373  0.4121  1.1320
 3684TIP3   OH232610   5.523   4.855   1.501 -0.0728 -0.3496  0.5716
 3684TIP3    H132611   5.443   4.868   1.553  0.4176 -0.2965  1.3170
 3684TIP3    H232612   5.593   4.894   1.554  0.5116 -0.7446  0.0988
 3685TIP3   OH232613   1.119   5.147   7.990 -0.4781  0.4119  0.0663
 3685TIP3    H132614   1.025   5.159   7.978 -0.0998  3.2295 -0.8594
 3685TIP3    H232615   1.155   5.154   7.902  0.5896 -1.2065  0.3453
 3686TIP3   OH232616   5.410   4.235   1.257 -0.0947  0.2845  0.2403
 3686TIP3    H132617   5.381   4.180   1.184 -1.6972  0.6118  0.5805
 3686TIP3    H232618   5.330   4.278   1.287  0.7962  1.3038  1.2351
 3687TIP3   OH232619   1.950   6.518   6.302 -0.1736 -0.3021 -0.3152
 3687TIP3    H132620   1.999   6.601   6.307  0.4616 -0.6000 -1.3241
 3687TIP3    H232621   1.865   6.538   6.340  0.0562  0.7538 -0.3230
 3688TIP3   OH232622   6.691   7.141   0.065 -0.6110 -0.9691 -0.0089
 3688TIP3    H132623   6.623   7.084   0.027 -0.4788 -0.5049 -0.9812
 3688TIP3    H232624   6.735   7.179  -0.011 -0.8279  0.5977  0.6185
 3689TIP3   OH232625   0.738   0.697   0.064 -0.1494 -0.0979 -0.1450
 3689TIP3    H132626   0.767   0.695  -0.027  1.2156  1.3854  0.2126
 3689TIP3    H232627   0.768   0.613   0.100 -0.4472 -0.5697 -0.9605
 3690TIP3   OH232628   6.122   6.199   0.443 -0.1534  0.5630 -0.0720
 3690TIP3    H132629   6.039   6.191   0.397  0.7132 -0.7983 -1.5130
 3690TIP3    H232630   6.120   6.287   0.481 -2.3202  0.4843  0.1421
 3691TIP3   OH232631   6.763   0.909   0.518 -0.7676 -0.2171  0.9762
 3691TIP3    H132632   6.778   0.820   0.488 -1.1965 -0.4361  1.3978
 3691TIP3    H232633   6.719   0.899   0.603 -0.1292  0.3842  1.3977
 3692TIP3   OH232634   1.576   0.285   7.268 -0.2862  0.1819  0.1517
 3692TIP3    H132635   1.518   0.335   7.210 -0.1139 -0.0641 -0.2365
 3692TIP3    H232636   1.516   0.232   7.322 -0.4498  0.4617  0.2474
 3693TIP3   OH232637   4.346   2.001   0.914  0.4520  0.0225 -0.0719
 3693TIP3    H132638   4.322   1.964   0.999  0.3081 -1.2672 -0.6469
 3693TIP3    H232639   4.416   2.064   0.933  3.1915 -2.9883  0.6465
 3694TIP3   OH232640   2.352   2.237   6.865  0.1050 -0.4453  0.3613
 3694TIP3    H132641   2.335   2.222   6.958  2.0418 -0.3064  0.7736
 3694TIP3    H232642   2.337   2.331   6.853  1.1073 -0.2194  0.8343
 3695TIP3   OH232643   4.775   5.422   6.370 -0.0531  0.6751 -0.4610
 3695TIP3    H132644   4.784   5.372   6.451 -0.7244 -0.1411 -0.8721
 3695TIP3    H232645   4.702   5.381   6.324 -1.5949  2.9168 -0.1889
 3696TIP3   OH232646   0.207   6.611   7.422 -0.4937  0.7104 -0.6657
 3696TIP3    H132647   0.135   6.599   7.360 -2.2003  0.7840  1.2202
 3696TIP3    H232648   0.206   6.533   7.477  1.9307 -0.0425 -1.5423
 3697TIP3   OH232649   2.223   6.497   7.900  0.5173 -0.1309 -0.5198
 3697TIP3    H132650   2.229   6.414   7.852 -1.8261 -0.2719 -0.7000
 3697TIP3    H232651   2.199   6.562   7.833 -1.2050 -0.0275  0.1506
 3698TIP3   OH232652   6.704   2.679   0.552 -0.3243 -0.0167 -0.4182
 3698TIP3    H132653   6.718   2.619   0.479 -0.6219  1.8975 -2.1455
 3698TIP3    H232654   6.775   2.742   0.546 -2.0872  2.0323 -1.0961
 3699TIP3   OH232655   1.458   3.724   1.036 -0.5835 -1.1288  0.0449
 3699TIP3    H132656   1.373   3.719   0.992 -0.8923 -0.0998  0.4790
 3699TIP3    H232657   1.515   3.770   0.974 -0.5527 -1.1638  0.0474
 3700TIP3   OH232658   1.851   3.227   2.073  0.1954  0.3447  0.2083
 3700TIP3    H132659   1.872   3.318   2.095  0.5606  0.5704 -0.9894
 3700TIP3    H232660   1.756   3.222   2.081 -0.0215  1.3140 -1.3232
 3701TIP3   OH232661   2.397   2.569   7.903  0.0831  0.5287  0.0215
 3701TIP3    H132662   2.485   2.561   7.867 -0.2198 -1.6227 -0.4110
 3701TIP3    H232663   2.347   2.612   7.833 -0.1362 -2.1933 -1.6817
 3702TIP3   OH232664   5.010   4.875   7.898  0.4157 -0.1011  0.1695
 3702TIP3    H132665   5.101   4.886   7.869  0.7741  1.2539  1.6551
 3702TIP3    H232666   4.974   4.808   7.839  2.0622  0.0613 -1.1071
 3703TIP3   OH232667   2.594   5.654   1.458 -0.1208 -0.5576  0.3984
 3703TIP3    H132668   2.599   5.744   1.427 -0.9788 -0.5329  0.3154
 3703TIP3    H232669   2.659   5.649   1.529 -0.3942  0.2515  0.7123
 3704TIP3   OH232670   6.808   0.936   1.565  0.0123 -0.2805 -0.5538
 3704TIP3    H132671   6.747   0.868   1.595  0.0638  0.1114  0.4691
 3704TIP3    H232672   6.752   1.003   1.527 -0.1293 -0.3319 -0.4379
 3705TIP3   OH232673   3.161   2.363   6.667  0.3796  0.2287  0.1709
 3705TIP3    H132674   3.147   2.291   6.606 -0.3727  2.5855 -2.6735
 3705TIP3    H232675   3.074   2.382   6.702  0.8324 -1.2342  2.2964
 3706TIP3   OH232676   7.031   6.023   0.946 -0.2324  0.2488  0.0729
 3706TIP3    H132677   7.052   5.956   0.880  0.2449  2.3555 -2.0699
 3706TIP3    H232678   6.943   6.053   0.922 -0.7903 -0.1563  1.5278
 3707TIP3   OH232679   3.415   1.553   7.360 -0.3758  0.5095  0.7587
 3707TIP3    H132680   3.409   1.458   7.345 -0.1533  0.5158  0.6230
 3707TIP3    H232681   3.369   1.567   7.442  0.2244  0.1799  1.1637
 3708TIP3   OH232682   3.041   6.653   1.008 -0.0656 -0.1405  0.9235
 3708TIP3    H132683   3.122   6.602   1.009 -0.5728 -0.9733  0.6791
 3708TIP3    H232684   3.066   6.740   1.040  0.8643 -0.4690  1.1003
 3709TIP3   OH232685   1.070   2.654   7.110 -0.4661  0.1276 -0.2043
 3709TIP3    H132686   1.162   2.681   7.105 -0.7518  0.9309 -1.7760
 3709TIP3    H232687   1.021   2.733   7.088 -1.4801 -0.6974 -0.9790
 3710TIP3   OH232688   2.785   2.067   0.795  0.3391 -0.1868 -0.6098
 3710TIP3    H132689   2.823   2.141   0.840 -2.4542  1.6557 -1.0218
 3710TIP3    H232690   2.778   2.095   0.703 -1.0040 -0.7811 -0.7265
 3711TIP3   OH232691   5.508   2.730   6.976  0.1403  0.0712  0.2128
 3711TIP3    H132692   5.440   2.792   7.002  0.1057  0.5957 -1.0603
 3711TIP3    H232693   5.529   2.754   6.886  0.9143 -1.0719  0.0685
 3712TIP3   OH232694   4.724   0.503   7.827 -0.0897 -0.0436  0.6902
 3712TIP3    H132695   4.745   0.580   7.880  1.0363 -0.6081  1.1054
 3712TIP3    H232696   4.736   0.429   7.886 -0.2832 -0.5967  0.0543
 3713TIP3   OH232697   2.475   3.216   6.734 -0.3714 -0.6631  0.2814
 3713TIP3    H132698   2.417   3.158   6.684 -0.3424 -0.9269  0.5478
 3713TIP3    H232699   2.499   3.285   6.672 -1.5282 -0.1635  0.3721
 3714TIP3   OH232700   1.755   2.319   6.987 -0.2049  0.2206 -0.5853
 3714TIP3    H132701   1.813   2.344   6.916  0.5310 -1.2020 -0.5181
 3714TIP3    H232702   1.668   2.348   6.959  0.0283 -0.5352 -2.1756
 3715TIP3   OH232703   6.080   0.204   7.512  0.2155 -0.0520 -0.0647
 3715TIP3    H132704   6.057   0.205   7.419 -0.4779  2.2744  0.0783
 3715TIP3    H232705   5.996   0.203   7.558  0.5053  0.8845  0.5123
 3716TIP3   OH232706   3.462   4.701   0.127 -0.0434  0.1952  0.0962
 3716TIP3    H132707   3.383   4.679   0.077  0.7082 -1.2608 -0.5328
 3716TIP3    H232708   3.455   4.649   0.207  0.4831 -0.3185 -0.1814
 3717TIP3   OH232709   6.824   6.362   0.037  0.5275 -0.0477 -0.2821
 3717TIP3    H132710   6.822   6.452   0.004 -0.4809 -0.8105 -2.5219
 3717TIP3    H232711   6.916   6.338   0.037  0.8806  1.1814  1.0427
 3718TIP3   OH232712   2.719   5.818   7.778 -0.3504  0.1269  0.1599
 3718TIP3    H132713   2.645   5.758   7.776 -0.0694 -0.2109 -0.8994
 3718TIP3    H232714   2.760   5.803   7.863 -0.6431 -0.7461  0.1529
 3719TIP3   OH232715   2.386   0.924   7.318 -0.1026  0.0702 -0.7205
 3719TIP3    H132716   2.373   1.018   7.304  0.8834  0.2062 -0.7439
 3719TIP3    H232717   2.297   0.888   7.314 -0.2295  0.4674 -4.3617
 3720TIP3   OH232718   0.007   4.066   7.261  0.9170  0.2907 -0.2000
 3720TIP3    H132719  -0.082   4.045   7.290  0.9602  1.3732  0.8224
 3720TIP3    H232720   0.058   3.987   7.278  0.2849 -0.1151 -0.1664
 3721TIP3   OH232721   5.497   1.129   0.684 -0.3758  0.2540 -0.0538
 3721TIP3    H132722   5.434   1.196   0.711 -1.0963 -0.0255 -0.9690
 3721TIP3    H232723   5.537   1.099   0.765 -2.4491 -0.5734  0.7320
 3722TIP3   OH232724   4.089   3.313   0.859  0.1111 -0.8495  0.4945
 3722TIP3    H132725   4.018   3.255   0.887 -0.9803 -0.2513 -0.8811
 3722TIP3    H232726   4.140   3.329   0.938 -2.5181  0.3543  2.0822
 3723TIP3   OH232727   6.024   1.122   6.610  0.0170 -0.3772  0.5150
 3723TIP3    H132728   6.019   1.170   6.693  2.7053 -1.4648  1.4194
 3723TIP3    H232729   6.103   1.068   6.618 -0.6533 -1.9149 -2.0507
 3724TIP3   OH232730   0.882   4.760   6.891  0.1067 -0.0764 -0.1643
 3724TIP3    H132731   0.815   4.714   6.841  2.9254 -1.7708 -2.6846
 3724TIP3    H232732   0.918   4.694   6.950 -0.2071  0.7666  1.0222
 3725TIP3   OH232733   1.965   5.275   0.756 -0.4583  0.0837  0.4776
 3725TIP3    H132734   2.016   5.195   0.753 -0.8894 -0.1677 -1.3063
 3725TIP3    H232735   2.025   5.342   0.789  0.2372 -0.7201  0.8589
 3726TIP3   OH232736   2.397   6.051   7.791 -0.1387  0.2284 -0.6185
 3726TIP3    H132737   2.393   5.964   7.831 -1.5048  1.0123  1.0435
 3726TIP3    H232738   2.483   6.085   7.817 -0.6078  0.3313  0.8666
 3727TIP3   OH232739   6.622   3.826   7.051  0.2494  0.6189  0.2157
 3727TIP3    H132740   6.553   3.771   7.014 -1.0239  0.9354  1.9642
 3727TIP3    H232741   6.645   3.783   7.134  1.7890  0.8187 -0.0762
 3728TIP3   OH232742   1.340   4.347   0.195 -0.0438  0.4888 -0.4463
 3728TIP3    H132743   1.334   4.279   0.127  1.4420  0.0143 -0.1587
 3728TIP3    H232744   1.318   4.428   0.150 -0.6141 -0.0208 -1.1094
 3729TIP3   OH232745   0.764   3.444   0.137  0.4025  0.0625 -0.1208
 3729TIP3    H132746   0.714   3.450   0.218 -0.2824 -1.0346 -0.4439
 3729TIP3    H232747   0.784   3.351   0.128  0.5189  0.1783 -1.1815
 3730TIP3   OH232748   3.967   4.630   1.855 -0.2783  0.5176 -0.0893
 3730TIP3    H132749   3.874   4.628   1.875 -0.3629  1.3942 -0.3241
 3730TIP3    H232750   3.980   4.558   1.793 -0.6448 -0.0849  0.5235
 3731TIP3   OH232751   2.646   1.226   1.271 -0.1645 -0.7220  0.4464
 3731TIP3    H132752   2.687   1.163   1.331 -1.9999 -2.4591 -0.0233
 3731TIP3    H232753   2.608   1.172   1.202 -2.2168  0.8667  0.2368
 3732TIP3   OH232754   5.801   2.056   1.258  0.6755  0.0586  0.3840
 3732TIP3    H132755   5.759   2.021   1.336 -1.5923 -0.1982 -0.8489
 3732TIP3    H232756   5.865   1.989   1.233  0.6392 -0.3672  1.4008
 3733TIP3   OH232757   3.131   1.707   1.924 -0.3137  0.6229 -0.5091
 3733TIP3    H132758   3.175   1.731   2.006  2.5637 -0.3265 -1.6491
 3733TIP3    H232759   3.194   1.731   1.856 -2.1731  0.3833 -2.4050
 3734TIP3   OH232760   6.250   1.830   0.958  0.4053 -0.5040 -0.2066
 3734TIP3    H132761   6.176   1.802   0.904  0.5754  1.7327 -1.7332
 3734TIP3    H232762   6.210   1.868   1.036  0.0535 -1.2979  0.0135
 3735TIP3   OH232763   2.864   2.059   6.712 -0.2910  0.2573  0.0680
 3735TIP3    H132764   2.776   2.048   6.674 -1.3649  3.6941  1.2081
 3735TIP3    H232765   2.849   2.067   6.806  1.6033 -1.4707  0.5899
 3736TIP3   OH232766   3.290   4.833   6.438 -0.2946  0.4685  1.3533
 3736TIP3    H132767   3.344   4.777   6.382  0.0456 -0.2762  2.3923
 3736TIP3    H232768   3.242   4.888   6.377 -2.0507 -2.1995  0.1463
 3737TIP3   OH232769   0.968   3.081   1.061  0.3420 -0.1500 -0.1966
 3737TIP3    H132770   1.054   3.100   1.098 -0.3855  0.4812  1.2601
 3737TIP3    H232771   0.924   3.166   1.057 -0.5250 -0.5769 -0.0644
 3738TIP3   OH232772   3.474   4.564   0.357  0.0243  0.6274 -0.3173
 3738TIP3    H132773   3.525   4.636   0.394  0.4003 -0.0412  0.5037
 3738TIP3    H232774   3.413   4.539   0.427  0.6050 -0.5213 -0.1845
 3739TIP3   OH232775   4.256   0.443   1.560 -0.6320  0.0306  0.2930
 3739TIP3    H132776   4.316   0.368   1.562  0.6588  1.0278 -0.0319
 3739TIP3    H232777   4.308   0.517   1.591 -2.3331  0.5335  2.1374
 3740TIP3   OH232778   1.253   6.711   7.851  0.0150 -0.0005 -0.1157
 3740TIP3    H132779   1.219   6.798   7.874  0.2615  0.5598 -1.6865
 3740TIP3    H232780   1.347   6.723   7.844  0.1264 -0.5746  0.3236
 3741TIP3   OH232781   4.296   0.207   0.198  0.5864 -0.3437  0.0804
 3741TIP3    H132782   4.374   0.153   0.208  0.5212 -0.9582 -2.2944
 3741TIP3    H232783   4.321   0.275   0.136 -0.4348  0.1854  0.2269
 3742TIP3   OH232784   1.623   5.274   1.533  0.1735  0.4200  0.1448
 3742TIP3    H132785   1.684   5.256   1.604  0.8289  0.2986 -0.4361
 3742TIP3    H232786   1.606   5.368   1.539  1.9697  0.8595 -0.8651
 3743TIP3   OH232787   5.845   5.197   0.875  0.8334  0.2387 -0.5802
 3743TIP3    H132788   5.808   5.279   0.908 -1.0335 -0.8695  0.2574
 3743TIP3    H232789   5.898   5.164   0.947 -0.2174 -0.3487 -0.0549
 3744TIP3   OH232790   3.902   5.321   0.871  0.1509  0.6142 -0.0358
 3744TIP3    H132791   3.975   5.310   0.931  0.4415  1.7798 -0.1538
 3744TIP3    H232792   3.886   5.415   0.869 -1.9511  0.3395  0.6938
 3745TIP3   OH232793   1.111   5.128   0.359  0.1821 -0.1403 -0.1170
 3745TIP3    H132794   1.034   5.117   0.416 -0.0071  0.3698 -0.2672
 3745TIP3    H232795   1.085   5.197   0.297  1.0005  0.5105  0.2522
 3746TIP3   OH232796   4.759   1.831   0.191 -0.2129 -0.6124  0.3800
 3746TIP3    H132797   4.836   1.776   0.203  0.5161  0.6793  2.2067
 3746TIP3    H232798   4.699   1.803   0.261 -0.1970  0.2826  0.7628
 3747TIP3   OH232799   2.478   3.710   2.285 -0.2725  0.4089 -0.1126
 3747TIP3    H132800   2.396   3.760   2.284 -0.2518  0.4353 -0.5822
 3747TIP3    H232801   2.544   3.773   2.315 -0.1782  0.7737 -1.0703
 3748TIP3   OH232802   4.724   2.395   2.290 -0.4077 -0.1406  0.2142
 3748TIP3    H132803   4.677   2.314   2.306  1.0711 -1.2407 -0.7594
 3748TIP3    H232804   4.668   2.445   2.231 -1.0592 -0.6927  0.3527
 3749TIP3   OH232805   6.024   0.167   7.231  0.3473  0.7397 -0.1147
 3749TIP3    H132806   6.050   0.175   7.139 -0.9183 -1.0170 -0.6827
 3749TIP3    H232807   5.933   0.197   7.233 -0.4761 -1.5814  0.0077
 3750TIP3   OH232808   0.420   5.945   6.830  0.3495  0.4294 -0.0613
 3750TIP3    H132809   0.378   5.909   6.909 -0.9392 -0.0368 -0.9176
 3750TIP3    H232810   0.513   5.945   6.850  0.0471  0.3623  1.4797
 3751TIP3   OH232811   2.503   2.645   1.456  0.0615 -0.1376 -0.2932
 3751TIP3    H132812   2.543   2.730   1.436 -1.6478  1.0290  0.9389
 3751TIP3    H232813   2.463   2.657   1.542 -2.1984 -1.4375 -1.0810
 3752TIP3   OH232814   4.827   0.807   7.702 -0.2138 -0.6225 -0.4424
 3752TIP3    H132815   4.833   0.888   7.652 -0.2314 -1.2529 -1.4890
 3752TIP3    H232816   4.772   0.829   7.777  0.2712  0.4814 -0.3918
 3753TIP3   OH232817   1.186   5.769   0.195 -0.3447  0.4740 -0.2244
 3753TIP3    H132818   1.248   5.838   0.217  0.0362 -0.0871  0.5034
 3753TIP3    H232819   1.102   5.800   0.230 -0.1637  0.5413  0.1526
 3754TIP3   OH232820   5.725   5.713   7.684 -0.1157 -0.8372  0.1061
 3754TIP3    H132821   5.696   5.733   7.595  1.2444 -1.1780 -0.4375
 3754TIP3    H232822   5.791   5.779   7.704 -0.0459 -1.0719  0.6712
 3755TIP3   OH232823   5.858   1.190   0.477 -0.1505 -0.1330 -0.3581
 3755TIP3    H132824   5.891   1.207   0.389 -1.6262  0.2418 -0.8686
 3755TIP3    H232825   5.931   1.214   0.535  1.1173 -1.1303 -1.4786
 3756TIP3   OH232826   4.370   4.260   0.853  0.2351  0.2618 -0.5398
 3756TIP3    H132827   4.344   4.255   0.761 -0.1988 -0.4351 -0.3868
 3756TIP3    H232828   4.289   4.276   0.901  0.4083  0.2897 -0.2518
 3757TIP3   OH232829   1.060   1.823   1.745  0.1673  0.5850  0.2071
 3757TIP3    H132830   1.034   1.889   1.809 -0.7917  0.3766  0.0585
 3757TIP3    H232831   1.147   1.849   1.716  0.0229  1.4700  0.5503
 3758TIP3   OH232832   0.265   0.184   6.653  0.1402 -0.1582 -0.2678
 3758TIP3    H132833   0.178   0.148   6.670  0.5537 -1.6871 -1.1900
 3758TIP3    H232834   0.260   0.219   6.564  0.5321 -0.4575 -0.4087
 3759TIP3   OH232835   5.116   5.047   7.051  0.3662 -0.1851 -0.0728
 3759TIP3    H132836   5.067   5.008   6.978 -3.1570  1.1160  1.3985
 3759TIP3    H232837   5.197   5.078   7.010 -0.5442 -1.2830 -3.0089
 3760TIP3   OH232838   4.670   0.984   0.974 -0.4746 -0.0488 -0.2901
 3760TIP3    H132839   4.685   1.056   1.036 -2.0930 -0.2561  0.4138
 3760TIP3    H232840   4.575   0.983   0.962 -0.3682 -1.3394 -1.1894
 3761TIP3   OH232841   2.437   1.332   7.373 -0.0567 -0.3838 -0.4651
 3761TIP3    H132842   2.375   1.262   7.352  0.4312 -0.1287 -3.0012
 3761TIP3    H232843   2.509   1.288   7.419 -0.7723 -1.1513 -0.0533
 3762TIP3   OH232844   4.747   0.093   1.248  0.3262 -0.2072  0.4497
 3762TIP3    H132845   4.822   0.145   1.276  1.8656 -1.1793 -1.5820
 3762TIP3    H232846   4.712   0.056   1.329  1.3176  1.1801  1.5623
 3763TIP3   OH232847   2.481   0.000   6.903  0.1147  0.3605  0.0986
 3763TIP3    H132848   2.448  -0.019   6.815 -1.9602 -4.3217  1.5755
 3763TIP3    H232849   2.410   0.050   6.944 -0.6758 -0.7923  0.1845
 3764TIP3   OH232850   3.419   3.927   0.420  0.0608  0.0567  0.6823
 3764TIP3    H132851   3.332   3.914   0.384  0.0052 -1.1327  1.1754
 3764TIP3    H232852   3.404   3.953   0.511  0.2178  1.2441  0.3822
 3765TIP3   OH232853   1.937   0.023   1.004  0.1123 -0.3283 -0.1583
 3765TIP3    H132854   1.863   0.065   1.048  1.6129  1.2893  0.9460
 3765TIP3    H232855   1.919  -0.071   1.012 -1.2591 -0.0033  1.1122
 3766TIP3   OH232856   0.553   6.661   0.177 -0.2022 -0.0743  0.7180
 3766TIP3    H132857   0.604   6.692   0.252 -0.5023 -0.3929  1.0591
 3766TIP3    H232858   0.618   6.647   0.108 -0.2780  3.6698 -0.3156
 3767TIP3   OH232859   3.830   0.100   6.144  0.3102 -0.5061 -0.2481
 3767TIP3    H132860   3.917   0.112   6.182  0.2486 -0.4703 -0.1157
 3767TIP3    H232861   3.845   0.090   6.050  0.6848 -2.7936 -0.0153
 3768TIP3   OH232862   1.690   0.755   1.045  0.5682  0.1813  0.4979
 3768TIP3    H132863   1.674   0.840   1.004  1.3048  0.4888  0.8389
 3768TIP3    H232864   1.751   0.773   1.115 -0.7112 -0.3282  1.7899
 3769TIP3   OH232865   2.248   5.803   1.520  0.3568  0.3299 -0.3093
 3769TIP3    H132866   2.231   5.876   1.580  1.5864 -0.7878  1.4907
 3769TIP3    H232867   2.241   5.725   1.575 -0.0475 -0.8812 -2.0020
 3770TIP3   OH232868   2.669   0.122   1.141 -0.2550  0.0451  0.6533
 3770TIP3    H132869   2.581   0.091   1.166  0.1331  0.0300  2.1286
 3770TIP3    H232870   2.719   0.043   1.124 -0.6863  0.0712 -0.8775
 3771TIP3   OH232871   0.675   4.316   7.613 -0.4210 -0.1943 -0.2761
 3771TIP3    H132872   0.678   4.324   7.708  0.3916 -1.9300 -0.1138
 3771TIP3    H232873   0.765   4.298   7.588 -0.9216 -1.6753 -1.1401
 3772TIP3   OH232874   3.464   4.767   6.067 -0.0049 -0.0469 -0.9034
 3772TIP3    H132875   3.536   4.711   6.037  0.2078  0.0821 -0.6378
 3772TIP3    H232876   3.494   4.856   6.049  0.4797  0.0792  0.4300
 3773TIP3   OH232877   0.180   3.749   7.881  0.5449  0.3863 -0.4464
 3773TIP3    H132878   0.225   3.787   7.957  1.3487 -0.5471 -0.4456
 3773TIP3    H232879   0.098   3.714   7.917  0.7033  0.3732 -0.0960
 3774TIP3   OH232880   3.031   5.097   0.663  0.0416 -0.0094  0.2539
 3774TIP3    H132881   3.040   5.126   0.754  2.7974 -0.6883  0.2885
 3774TIP3    H232882   3.019   5.002   0.669 -0.2691  0.0062 -0.0769
 3775TIP3   OH232883   1.159   1.502   2.190  0.0826  0.3796 -0.7197
 3775TIP3    H132884   1.168   1.410   2.163  0.2696  0.5684 -1.3282
 3775TIP3    H232885   1.071   1.526   2.161  0.3696  0.6513 -1.3844
 3776TIP3   OH232886   1.589   6.098   6.669 -0.2254  0.3729 -0.3168
 3776TIP3    H132887   1.629   6.066   6.588 -0.3780  2.1659 -1.1547
 3776TIP3    H232888   1.662   6.109   6.729  0.0170 -0.0814 -0.5225
 3777TIP3   OH232889   0.765   3.318   5.631 -0.5261  0.5478  0.3098
 3777TIP3    H132890   0.788   3.387   5.692  0.6028  0.3939  0.0701
 3777TIP3    H232891   0.837   3.256   5.635 -0.0202  0.9116 -1.7185
 3778TIP3   OH232892   1.066   2.710   6.348  0.7678  0.4864 -0.5698
 3778TIP3    H132893   1.040   2.782   6.407 -0.7700 -1.4782  1.3015
 3778TIP3    H232894   1.009   2.721   6.272  0.4646  1.1928 -0.2584
 3779TIP3   OH232895   3.037   2.573   7.477 -0.2872  0.3114 -0.3294
 3779TIP3    H132896   3.090   2.494   7.466  1.3347  1.3135 -0.0222
 3779TIP3    H232897   3.095   2.645   7.452 -1.2610  1.5219  0.7296
 3780TIP3   OH232898   2.269   4.262   6.605 -0.5589  0.5633  0.1257
 3780TIP3    H132899   2.206   4.191   6.621 -0.6379  0.8220  1.0242
 3780TIP3    H232900   2.214   4.339   6.589 -0.5943 -0.0660 -3.9529
 3781TIP3   OH232901   7.000   5.383   6.289  0.4976 -0.0172  0.3137
 3781TIP3    H132902   6.997   5.404   6.383  0.4704  0.3172  0.2393
 3781TIP3    H232903   7.071   5.320   6.281  0.2091 -0.3842  0.6270
 3782TIP3   OH232904   3.443   3.090   0.636  0.2889 -0.4195 -0.1472
 3782TIP3    H132905   3.458   3.179   0.607 -0.4244 -0.7129 -1.5319
 3782TIP3    H232906   3.414   3.098   0.727  0.5049  0.7222 -0.1742
 3783TIP3   OH232907   2.696   2.351   7.625  0.0225  0.9848  0.0016
 3783TIP3    H132908   2.728   2.373   7.538  1.6183 -0.5022  0.1609
 3783TIP3    H232909   2.610   2.312   7.609  0.9688 -0.7935 -1.1329
 3784TIP3   OH232910   0.005   0.600   6.163 -0.1805  0.1187 -0.0095
 3784TIP3    H132911  -0.021   0.676   6.112  0.9394  0.3643 -0.2475
 3784TIP3    H232912   0.069   0.555   6.108  1.3341  0.5838  1.2946
 3785TIP3   OH232913   6.911   1.282   7.973  0.0061 -0.1007 -0.2306
 3785TIP3    H132914   6.829   1.257   8.016  0.5041  0.7761  1.3142
 3785TIP3    H232915   6.900   1.253   7.882 -1.1451 -1.9544  0.4263
 3786TIP3   OH232916   4.561   6.215   5.981 -0.3890  0.0822  0.3137
 3786TIP3    H132917   4.565   6.142   6.043 -3.2531 -1.9037 -1.5785
 3786TIP3    H232918   4.602   6.181   5.902 -0.9270  0.8465 -0.3065
 3787TIP3   OH232919   1.568   3.183   6.300 -0.4796  0.5480 -0.3376
 3787TIP3    H132920   1.648   3.148   6.263 -1.1497  1.4756 -2.8254
 3787TIP3    H232921   1.501   3.118   6.279 -1.3781  2.2647 -3.3642
 3788TIP3   OH232922   2.764   3.901   0.270 -0.7776  0.3676 -0.0623
 3788TIP3    H132923   2.772   3.941   0.183  1.0906 -1.4026 -0.8033
 3788TIP3    H232924   2.850   3.915   0.310 -0.2014 -2.2635 -0.1571
 3789TIP3   OH232925   3.928   2.010   6.271 -0.4278  0.0976 -0.6389
 3789TIP3    H132926   3.978   2.072   6.325 -0.1742 -0.9981  0.4253
 3789TIP3    H232927   3.961   2.024   6.182  0.9844  0.1806 -0.1325
 3790TIP3   OH232928   4.065   3.759   6.929 -0.3539 -0.2941 -0.6344
 3790TIP3    H132929   4.048   3.689   6.992 -2.5161  0.9870  0.3256
 3790TIP3    H232930   4.126   3.817   6.974  0.3763 -0.8495 -0.8945
 3791TIP3   OH232931   2.588   4.025   7.257 -0.3902  0.0649 -0.1447
 3791TIP3    H132932   2.512   4.038   7.313 -0.0310  0.9070  0.1635
 3791TIP3    H232933   2.615   3.935   7.274 -0.5719  0.1584  0.6799
 3792TIP3   OH232934   6.553   0.950   6.191 -0.0339  0.5524 -0.0885
 3792TIP3    H132935   6.559   1.009   6.116 -1.7327 -2.9517 -3.2965
 3792TIP3    H232936   6.633   0.898   6.187  0.4100  1.0840  1.3315
 3793TIP3   OH232937   5.423   0.685   0.122  0.1418  0.3211  0.4135
 3793TIP3    H132938   5.337   0.670   0.160 -0.1532  0.2769 -0.2522
 3793TIP3    H232939   5.437   0.779   0.127  0.0448  0.3300  0.5003
 3794TIP3   OH232940   5.210   5.152   7.659 -0.2091 -0.1669  0.4535
 3794TIP3    H132941   5.135   5.142   7.601 -0.0318 -0.5232  0.2871
 3794TIP3    H232942   5.218   5.067   7.703  0.4806 -0.3424  0.0074
 3795TIP3   OH232943   0.241   3.225   6.473 -0.5099  0.0898 -0.3887
 3795TIP3    H132944   0.321   3.236   6.423 -0.4504 -2.0040 -0.8472
 3795TIP3    H232945   0.170   3.244   6.411 -0.4044 -1.1402 -0.9174
 3796TIP3   OH232946   5.672   0.817   0.894  0.2049  0.2153 -0.7308
 3796TIP3    H132947   5.636   0.901   0.923 -0.2199  0.5134 -2.0718
 3796TIP3    H232948   5.721   0.785   0.970  0.2220  1.5777 -0.1402
 3797TIP3   OH232949   5.709   5.169   0.291  0.4166  0.5633  0.1453
 3797TIP3    H132950   5.635   5.108   0.292 -0.6460  1.7888 -0.4585
 3797TIP3    H232951   5.688   5.230   0.220  0.9346  2.2204  1.3694
 3798TIP3   OH232952   2.209   6.565   7.214  0.0999  0.0286 -0.5592
 3798TIP3    H132953   2.275   6.578   7.282 -0.5807 -0.9020  0.3066
 3798TIP3    H232954   2.176   6.653   7.195 -0.0813  0.2559  0.7222
 3799TIP3   OH232955   5.913   2.458   0.222 -0.5562 -0.2485  0.6828
 3799TIP3    H132956   5.842   2.490   0.276 -1.7369 -0.9961 -0.3761
 3799TIP3    H232957   5.957   2.392   0.276 -0.3215  0.5848  1.5316
 3800TIP3   OH232958   4.319   3.645   6.758  0.1430 -0.1571 -0.0956
 3800TIP3    H132959   4.325   3.665   6.664 -0.6627  1.2024  0.1083
 3800TIP3    H232960   4.226   3.657   6.779  0.0622 -1.7825  0.6170
 3801TIP3   OH232961   2.167   4.966   1.793 -0.0207  0.2701 -0.1002
 3801TIP3    H132962   2.108   4.892   1.777 -0.2621  0.2027  1.0686
 3801TIP3    H232963   2.252   4.925   1.809 -0.2727  0.1937  1.1269
 3802TIP3   OH232964   4.170   6.070   0.349  0.3682  0.4156  0.5206
 3802TIP3    H132965   4.193   6.045   0.260 -0.0381  0.6370  0.3504
 3802TIP3    H232966   4.254   6.071   0.396  0.3924 -1.2721  0.5485
 3803TIP3   OH232967   3.372   3.040   7.533  0.0441 -0.8206 -0.1518
 3803TIP3    H132968   3.329   2.960   7.502 -0.7082 -1.1223  1.5627
 3803TIP3    H232969   3.301   3.092   7.571  0.6836  0.2254 -0.3453
 3804TIP3   OH232970   2.451   3.582   1.120  0.1640  0.6552  0.0103
 3804TIP3    H132971   2.412   3.521   1.182 -0.5569 -0.2743 -1.3221
 3804TIP3    H232972   2.534   3.608   1.161  0.9327 -1.9023  0.2578
 3805TIP3   OH232973   2.979   5.872   7.115  0.1118  0.2649  0.3304
 3805TIP3    H132974   3.007   5.836   7.199  1.4944 -0.7599 -0.5412
 3805TIP3    H232975   3.058   5.909   7.077  0.0083 -1.2440 -1.4773
 3806TIP3   OH232976   0.081   1.923   6.981 -0.0553  0.5741  0.3364
 3806TIP3    H132977   0.097   1.828   6.985  0.1599  0.6060  0.2563
 3806TIP3    H232978  -0.014   1.931   6.974 -0.3013  0.4270  2.7665
 3807TIP3   OH232979   4.695   0.207   0.856  0.6117 -0.0473  0.0958
 3807TIP3    H132980   4.686   0.292   0.815 -0.7001 -0.3200 -0.2227
 3807TIP3    H232981   4.784   0.179   0.835 -0.0851 -0.3221 -2.9035
 3808TIP3   OH232982   4.842   1.612   6.291  0.4502  0.1063  0.6108
 3808TIP3    H132983   4.872   1.634   6.203 -0.7568  0.6125  0.3090
 3808TIP3    H232984   4.748   1.628   6.289  0.2672 -0.7416  1.7399
 3809TIP3   OH232985   5.201   4.525   0.949  0.2175  0.2086 -0.1804
 3809TIP3    H132986   5.132   4.591   0.944 -0.0289 -0.0713 -0.6174
 3809TIP3    H232987   5.277   4.566   0.908 -0.3705 -0.2938 -1.8909
 3810TIP3   OH232988   0.688   4.821   0.053 -0.3825 -0.5699 -0.6390
 3810TIP3    H132989   0.691   4.879   0.129  1.4780 -0.0041 -1.0690
 3810TIP3    H232990   0.647   4.874  -0.016 -0.2479 -0.3731 -0.5676
 3811TIP3   OH232991   5.195   2.287   0.029 -0.3845 -0.6091  0.4954
 3811TIP3    H132992   5.159   2.360  -0.021  0.1197  0.4740  1.6489
 3811TIP3    H232993   5.287   2.284   0.004 -0.4075 -0.8617  0.4424
 3812TIP3   OH232994   3.183   3.847   7.675 -0.5990  0.9858 -0.2467
 3812TIP3    H132995   3.252   3.886   7.729 -0.0361  2.2247 -1.7716
 3812TIP3    H232996   3.116   3.915   7.668 -1.9943 -0.1848  1.1544
 3813TIP3   OH232997   3.043   3.565   1.741 -0.3512 -0.5106  0.2747
 3813TIP3    H132998   3.127   3.541   1.780 -0.8818  0.5939  2.2022
 3813TIP3    H232999   3.040   3.660   1.746 -1.4432 -0.4838 -0.4043
 3814TIP3   OH233000   3.323   3.893   6.630  0.1751  0.1497 -0.4794
 3814TIP3    H133001   3.405   3.878   6.582 -0.2734  1.6875 -1.7898
 3814TIP3    H233002   3.260   3.919   6.563 -1.4221 -0.9825  0.5156
 3815TIP3   OH233003   4.946   1.796   7.369  0.5667 -0.3975  0.1441
 3815TIP3    H133004   4.904   1.727   7.317  0.0457  0.0165  0.0119
 3815TIP3    H233005   5.036   1.766   7.379  0.4511 -0.9026 -0.2583
 3816TIP3   OH233006   1.176   2.310   7.996  0.3269  0.4730 -0.4168
 3816TIP3    H133007   1.206   2.272   7.914  1.4075 -0.8828  0.5409
 3816TIP3    H233008   1.256   2.320   8.048 -0.1297  2.7444 -0.0626
 3817TIP3   OH233009   0.914   4.171   6.032 -0.2418  0.4084 -0.3204
 3817TIP3    H133010   1.006   4.176   6.057 -0.3381 -1.0874  0.4960
 3817TIP3    H233011   0.885   4.262   6.026  1.2263  0.8898 -0.3681
 3818TIP3   OH233012   5.700   4.464   5.621 -0.1370  0.2566  0.2159
 3818TIP3    H133013   5.732   4.551   5.597  2.0811 -0.0065  1.9551
 3818TIP3    H233014   5.655   4.433   5.542  1.2400  1.9333 -1.3258
 3819TIP3   OH233015   1.416   0.423   1.016 -0.6364  0.2078 -0.7501
 3819TIP3    H133016   1.489   0.455   0.963  0.1123  0.2506  0.2763
 3819TIP3    H233017   1.374   0.357   0.961  0.1971  0.1528 -1.3509
 3820TIP3   OH233018   1.156   1.283   0.465  0.4051  0.1371  0.2839
 3820TIP3    H133019   1.241   1.329   0.467  1.0721 -1.0677  1.4697
 3820TIP3    H233020   1.141   1.265   0.372  2.1727 -0.8730  0.1535
 3821TIP3   OH233021   6.175   1.655   0.466  0.3805  0.2144 -0.1198
 3821TIP3    H133022   6.161   1.746   0.492  3.5753  0.5509  0.8507
 3821TIP3    H233023   6.129   1.603   0.533  0.4718  1.1029  0.6460
 3822TIP3   OH233024   2.005   0.158   7.156 -0.2918  0.0502 -0.3521
 3822TIP3    H133025   2.016   0.078   7.104 -0.4956 -0.9706  1.1221
 3822TIP3    H233026   1.943   0.211   7.105 -0.4210 -0.8773 -1.1889
 3823TIP3   OH233027   4.859   5.107   6.488  0.3472 -0.2476 -0.3333
 3823TIP3    H133028   4.952   5.125   6.502  0.6604 -1.6250 -0.5302
 3823TIP3    H233029   4.814   5.157   6.556  1.0545  2.1989 -1.5535
 3824TIP3   OH233030   5.461   7.027   6.157  0.2164  0.3377  0.0187
 3824TIP3    H133031   5.375   7.067   6.160  0.2031  0.2551  0.7890
 3824TIP3    H233032   5.492   7.044   6.068 -0.5062  0.5388 -0.2020
 3825TIP3   OH233033   3.907   2.764   0.686 -0.2840  0.9762  0.2959
 3825TIP3    H133034   3.817   2.797   0.697 -0.8587 -0.8614  1.7376
 3825TIP3    H233035   3.911   2.688   0.744  1.5418 -0.3173 -1.4284
 3826TIP3   OH233036   0.554   0.554   7.341 -0.2455  0.5222  0.0178
 3826TIP3    H133037   0.574   0.517   7.255  0.7267  2.5676 -0.7053
 3826TIP3    H233038   0.567   0.481   7.402 -1.7743 -1.2104 -1.5914
 3827TIP3   OH233039   4.080   1.679   6.846 -0.1109 -0.0788  0.1966
 3827TIP3    H133040   4.022   1.646   6.916 -0.2735  1.9466  1.0794
 3827TIP3    H233041   4.021   1.695   6.772 -0.3558  0.0689  0.4207
 3828TIP3   OH233042   3.520   6.719   1.087 -0.3727  0.3276 -0.3074
 3828TIP3    H133043   3.590   6.697   1.025 -1.0501  0.3238 -1.0901
 3828TIP3    H233044   3.565   6.762   1.159  0.6881 -1.3959  0.1273
 3829TIP3   OH233045   1.464   1.016   1.996  0.4897 -0.2384 -0.2090
 3829TIP3    H133046   1.411   1.088   1.964  2.3738  1.5944  0.5976
 3829TIP3    H233047   1.405   0.967   2.054 -0.2001  2.1047  1.2066
 3830TIP3   OH233048   3.538   1.379   0.127 -0.2107  0.2563 -0.3541
 3830TIP3    H133049   3.474   1.450   0.122 -0.3634  0.1210 -0.2817
 3830TIP3    H233050   3.583   1.394   0.210  0.0188  0.4943 -0.5179
 3831TIP3   OH233051   2.763   5.772   0.006 -0.1877  0.0242 -0.2911
 3831TIP3    H133052   2.689   5.740   0.056  0.3336 -0.2608  0.3166
 3831TIP3    H233053   2.799   5.843   0.059 -1.9646  2.4360 -2.0978
 3832TIP3   OH233054   6.150   1.003   7.744  0.3593  0.2691  0.8626
 3832TIP3    H133055   6.173   1.091   7.776  0.9907  1.0891 -1.6676
 3832TIP3    H233056   6.222   0.948   7.774 -0.1343  0.5236  2.6400
 3833TIP3   OH233057   2.081   6.471   0.289 -0.1024  0.3770 -0.1790
 3833TIP3    H133058   2.040   6.410   0.350 -2.2805  1.0588 -0.8882
 3833TIP3    H233059   2.038   6.454   0.206 -1.3875  3.3611 -0.2366
 3834TIP3   OH233060   6.687   0.890   6.543  0.2661 -0.6959  0.3607
 3834TIP3    H133061   6.704   0.947   6.468 -1.5927  0.4253  0.7257
 3834TIP3    H233062   6.755   0.912   6.607  0.5008 -0.0293 -0.1154
 3835TIP3   OH233063   5.668   6.896   6.499  0.1377 -0.1689  0.0623
 3835TIP3    H133064   5.653   6.818   6.446  3.2757 -1.2191  0.5280
 3835TIP3    H233065   5.602   6.892   6.568 -0.5714 -1.6770 -0.6673
 3836TIP3   OH233066   0.217   4.573   0.626  0.1530  1.0955 -0.3042
 3836TIP3    H133067   0.173   4.652   0.598 -3.2259 -1.5143 -3.2560
 3836TIP3    H233068   0.285   4.558   0.560  1.2474  1.7721  0.6262
 3837TIP3   OH233069   4.098   5.344   0.082  0.2524 -0.0578  0.1926
 3837TIP3    H133070   4.016   5.299   0.102 -0.3758  0.6386 -0.8045
 3837TIP3    H233071   4.156   5.318   0.154 -0.7814 -0.6648  0.8427
 3838TIP3   OH233072   5.626   5.140   7.572  0.4227  0.5346  0.4587
 3838TIP3    H133073   5.598   5.066   7.626  0.2877 -0.2788 -0.6671
 3838TIP3    H233074   5.563   5.209   7.591  0.9217  0.6002  2.0073
 3839TIP3   OH233075   5.204   6.617   7.916 -0.6211  0.4527 -0.7093
 3839TIP3    H133076   5.186   6.558   7.989  0.8428 -0.2428 -0.8787
 3839TIP3    H233077   5.142   6.591   7.848  1.1880 -2.2359 -1.4861
 3840TIP3   OH233078   2.058   2.659   1.417  0.3132 -0.0417  0.1336
 3840TIP3    H133079   2.124   2.718   1.453 -0.3093  0.8301 -0.1189
 3840TIP3    H233080   1.989   2.717   1.385 -0.2541 -0.9059 -0.2464
 3841TIP3   OH233081   5.867   0.300   7.676  0.2346 -0.4160 -0.5953
 3841TIP3    H133082   5.790   0.344   7.712 -0.5953 -1.6983 -0.7341
 3841TIP3    H233083   5.912   0.265   7.752 -0.2333 -1.0986 -0.6296
 3842TIP3   OH233084   1.201   0.199   0.286  0.2455 -0.1956 -0.2000
 3842TIP3    H133085   1.220   0.116   0.329  0.4722 -0.4637 -0.7981
 3842TIP3    H233086   1.287   0.230   0.255  0.0061 -0.3583 -1.0620
 3843TIP3   OH233087   3.261   1.060   7.185 -0.6170  0.3526 -0.3587
 3843TIP3    H133088   3.191   1.121   7.207 -0.1805  0.1980  1.7697
 3843TIP3    H233089   3.332   1.116   7.153 -0.2425  1.0471  1.5085
 3844TIP3   OH233090   1.889   2.900   0.488 -0.2698 -0.0061 -0.0739
 3844TIP3    H133091   1.967   2.955   0.488 -0.2410 -0.0199 -1.0391
 3844TIP3    H233092   1.913   2.822   0.537  0.3094  0.0051 -0.3406
 3845TIP3   OH233093   4.081   0.303   7.346  0.1602 -0.5760 -0.1458
 3845TIP3    H133094   4.080   0.230   7.407 -1.4878  0.0758  0.6926
 3845TIP3    H233095   4.017   0.365   7.381  0.8459  0.8816 -1.3003
 3846TIP3   OH233096   1.372   1.681   6.194 -0.1987  0.8237 -0.6586
 3846TIP3    H133097   1.380   1.592   6.161 -0.4866  1.1305 -1.5864
 3846TIP3    H233098   1.455   1.723   6.171  0.4979  0.4441  0.9739
 3847TIP3   OH233099   4.243   5.685   6.884  0.0399 -0.9017  0.0921
 3847TIP3    H133100   4.250   5.764   6.830 -0.7222 -1.7376 -1.2861
 3847TIP3    H233101   4.293   5.706   6.963 -2.0048  1.8616  0.8599
 3848TIP3   OH233102   1.565   3.944   6.999 -0.2248  0.4178 -0.0716
 3848TIP3    H133103   1.592   3.969   7.087  2.4092 -0.8634 -0.3902
 3848TIP3    H233104   1.587   3.851   6.993 -1.8859  0.0639 -1.5743
 3849TIP3   OH233105   4.868   0.763   0.221  0.2480 -0.9497  0.0809
 3849TIP3    H133106   4.804   0.795   0.285 -1.1578 -0.7931 -1.3118
 3849TIP3    H233107   4.870   0.832   0.154  0.3919 -1.8608 -0.8738
 3850TIP3   OH233108   0.091   1.777   7.288  0.5697 -0.1766  0.3523
 3850TIP3    H133109   0.040   1.700   7.316  0.8075  0.0052  1.2929
 3850TIP3    H233110   0.104   1.763   7.194 -0.9775 -0.3715  0.1311
 3851TIP3   OH233111   5.689   6.658   6.365  0.5244 -0.3436 -0.0238
 3851TIP3    H133112   5.611   6.604   6.381  0.4791 -0.0498  0.7978
 3851TIP3    H233113   5.761   6.595   6.359  0.1845 -0.6474 -1.1600
 3852TIP3   OH233114   3.971   6.799   1.168  0.0577  0.5761 -0.2622
 3852TIP3    H133115   3.926   6.867   1.218 -2.2591 -0.3325 -0.9727
 3852TIP3    H233116   3.935   6.808   1.079 -2.4856 -3.1701  0.1646
 3853TIP3   OH233117   0.062   3.940   1.079  0.0721  0.3502  0.5386
 3853TIP3    H133118  -0.026   3.904   1.072  0.3791 -0.2324 -0.5448
 3853TIP3    H233119   0.052   4.020   1.130 -1.3345  1.1089 -0.8585
 3854TIP3   OH233120   1.832   0.240   0.182  0.2142  0.2926  0.2433
 3854TIP3    H133121   1.899   0.184   0.220  0.0695 -0.1311 -0.1241
 3854TIP3    H233122   1.806   0.196   0.101  1.1415  1.6172 -0.8256
 3855TIP3   OH233123   6.162   7.133   7.859 -0.6053  0.0926  0.9749
 3855TIP3    H133124   6.130   7.124   7.770 -1.0872 -3.0025  1.3357
 3855TIP3    H233125   6.114   7.208   7.895 -3.6587 -1.1681 -0.1130
 3856TIP3   OH233126   4.508   3.235   1.175  0.2056 -0.6562 -0.9477
 3856TIP3    H133127   4.540   3.161   1.228 -0.0979 -1.0354 -1.2913
 3856TIP3    H233128   4.517   3.311   1.233  0.1435 -1.0218 -0.4481
 3857TIP3   OH233129   0.542   2.537   6.672 -0.1051 -0.1188  0.0707
 3857TIP3    H133130   0.595   2.611   6.700  0.5446 -0.5115 -0.0881
 3857TIP3    H233131   0.470   2.533   6.735  1.5904 -1.2901  2.0431
 3858TIP3   OH233132   6.093   6.736   1.073 -0.1481  0.1094  0.0648
 3858TIP3    H133133   6.036   6.762   1.001 -1.5359  3.4189  2.1343
 3858TIP3    H233134   6.154   6.809   1.083  2.1752 -1.7369  0.2690
 3859TIP3   OH233135   2.464   2.371   1.833  0.2196 -0.0210  0.3546
 3859TIP3    H133136   2.376   2.405   1.817  0.3432 -0.0477 -0.3909
 3859TIP3    H233137   2.511   2.445   1.871 -0.5560 -0.4572  2.2993
 3860TIP3   OH233138   4.701   1.036   0.587 -0.4366  0.4041 -0.1872
 3860TIP3    H133139   4.652   0.966   0.629 -0.1891 -0.0872 -0.7038
 3860TIP3    H233140   4.655   1.051   0.504 -0.5394  0.9156 -0.0421
 3861TIP3   OH233141   2.877   7.056   1.157 -0.4042  0.1921 -0.5541
 3861TIP3    H133142   2.912   6.977   1.200  2.0130  2.5324  2.1756
 3861TIP3    H233143   2.896   7.042   1.064  2.0176 -1.5312  0.0946
 3862TIP3   OH233144   1.665   2.121   0.846  0.4522 -0.0228  0.4814
 3862TIP3    H133145   1.730   2.057   0.818  0.4070 -0.5315  1.4768
 3862TIP3    H233146   1.706   2.167   0.919 -0.3466 -0.4685  1.2350
 3863TIP3   OH233147   1.416   2.596   0.676 -0.0224 -0.1453 -0.5830
 3863TIP3    H133148   1.375   2.516   0.711  3.2417 -1.3806  0.7605
 3863TIP3    H233149   1.468   2.565   0.602 -0.3754  1.1433 -1.3986
 3864TIP3   OH233150   3.145   5.391   1.912 -0.0993 -0.0760  0.1757
 3864TIP3    H133151   3.150   5.481   1.879  1.1289 -0.5139 -0.9304
 3864TIP3    H233152   3.228   5.377   1.958 -0.7748 -0.2784  1.3658
 3865TIP3   OH233153   6.253   5.290   6.055 -0.1608  0.2965  0.3844
 3865TIP3    H133154   6.226   5.199   6.058  0.3395  0.1223 -0.1365
 3865TIP3    H233155   6.241   5.316   5.963 -1.1801  1.0354  0.7008
 3866TIP3   OH233156   4.742   6.694   7.904 -0.0072 -0.2399 -0.2798
 3866TIP3    H133157   4.724   6.625   7.968  1.1277  0.4492  0.8182
 3866TIP3    H233158   4.820   6.664   7.858  1.1916  0.8070  1.0010
 3867TIP3   OH233159   2.106   6.325   1.634  0.2259  0.2696  0.0286
 3867TIP3    H133160   2.061   6.241   1.634  0.3533  0.1987  0.5102
 3867TIP3    H233161   2.047   6.383   1.684 -0.5280  0.8342 -1.4421
 3868TIP3   OH233162   4.602   5.185   1.484  0.0472  0.0471 -0.6904
 3868TIP3    H133163   4.623   5.160   1.574  0.0472 -1.9549 -1.1928
 3868TIP3    H233164   4.683   5.223   1.450  0.9703 -1.7718 -0.6588
 3869TIP3   OH233165   2.404   2.668   1.717 -0.5840  0.5641 -0.6191
 3869TIP3    H133166   2.446   2.683   1.802 -0.7022 -1.4340 -0.1561
 3869TIP3    H233167   2.341   2.598   1.734 -0.3062 -0.1715 -2.4201
 3870TIP3   OH233168   6.284   1.630   7.215 -0.3180  0.1620 -0.3791
 3870TIP3    H133169   6.296   1.645   7.122  0.0195  0.4722 -0.2895
 3870TIP3    H233170   6.355   1.680   7.257  1.1303 -2.0163 -0.0840
 3871TIP3   OH233171   7.125   3.683   1.236  1.3008 -0.1771 -0.0954
 3871TIP3    H133172   7.207   3.712   1.274  1.6972 -1.8482  0.4139
 3871TIP3    H233173   7.141   3.684   1.141  1.8362 -0.2967 -0.0068
 3872TIP3   OH233174   3.566   3.471   6.550 -0.5029  0.1361  0.4091
 3872TIP3    H133175   3.629   3.485   6.621 -0.0745  0.6348 -0.0569
 3872TIP3    H233176   3.617   3.425   6.482 -0.6042  0.6421 -0.0151
 3873TIP3   OH233177   1.731   6.871   1.582 -0.6427  0.3658  0.1146
 3873TIP3    H133178   1.767   6.959   1.569  0.2864  0.1511  1.1173
 3873TIP3    H233179   1.661   6.883   1.646  0.6838  0.1476  1.6675
 3874TIP3   OH233180   1.153   5.249   0.853  0.0244  0.4061 -0.0095
 3874TIP3    H133181   1.103   5.178   0.813  1.4754  0.2252 -1.6305
 3874TIP3    H233182   1.244   5.223   0.842  0.5628  1.9276  0.5468
 3875TIP3   OH233183   1.388   5.551   1.439 -0.6040 -0.5176 -0.3093
 3875TIP3    H133184   1.475   5.559   1.480 -1.1633  0.8762  0.6643
 3875TIP3    H233185   1.386   5.622   1.375 -0.7328 -1.0615 -0.9158
 3876TIP3   OH233186   0.617   2.330   6.290 -0.6340  0.0750  0.0447
 3876TIP3    H133187   0.556   2.293   6.355  1.0493 -0.1804  1.5570
 3876TIP3    H233188   0.598   2.424   6.290 -1.4188 -0.0722  0.0466
 3877TIP3   OH233189   3.458   6.675   0.102 -0.0807  0.2253  0.8467
 3877TIP3    H133190   3.483   6.596   0.053 -1.5268  0.9974 -1.2968
 3877TIP3    H233191   3.531   6.691   0.161  0.8418 -1.9653  0.4007
 3878TIP3   OH233192   4.847   4.173   0.594 -0.3934 -0.0942 -0.3135
 3878TIP3    H133193   4.893   4.127   0.664 -1.6570  0.5394  0.9735
 3878TIP3    H233194   4.786   4.232   0.639 -2.0961 -0.5213 -1.9247
 3879TIP3   OH233195   2.916   6.312   5.984 -0.1062  0.1174  0.1748
 3879TIP3    H133196   2.860   6.356   6.048 -1.7940 -1.0889 -0.4229
 3879TIP3    H233197   2.878   6.225   5.974  1.6280 -0.6023 -0.6103
 3880TIP3   OH233198   5.254   1.645   7.713 -0.2025  0.1360  0.2606
 3880TIP3    H133199   5.191   1.575   7.730  0.3033 -0.1529  1.0288
 3880TIP3    H233200   5.278   1.677   7.800  0.1901  0.7080 -0.0517
 3881TIP3   OH233201   3.122   4.172   0.204 -0.1078  0.4881 -0.5198
 3881TIP3    H133202   3.134   4.266   0.214 -1.1546  0.8421 -2.1682
 3881TIP3    H233203   3.177   4.149   0.129 -0.7041  0.0036 -0.8161
 3882TIP3   OH233204   2.414   5.927   6.918 -0.3147 -0.1165  0.1175
 3882TIP3    H133205   2.453   5.997   6.866  0.0878 -0.7193 -0.4072
 3882TIP3    H233206   2.396   5.858   6.855  0.8713 -1.1660  0.8692
 3883TIP3   OH233207   5.615   1.301   0.485 -0.1113  0.3336 -0.7985
 3883TIP3    H133208   5.573   1.255   0.557 -0.7000 -0.4298 -1.6002
 3883TIP3    H233209   5.707   1.274   0.490 -0.1681  0.2097 -0.3899
 3884TIP3   OH233210   5.120   1.601   1.712  0.6797  0.1375  0.4371
 3884TIP3    H133211   5.215   1.591   1.717  0.6059 -0.8526 -0.1493
 3884TIP3    H233212   5.092   1.604   1.804  1.3304  1.0908  0.6216
 3885TIP3   OH233213   2.839   5.211   7.699  0.2148 -0.2264 -0.1361
 3885TIP3    H133214   2.784   5.176   7.769  1.3977 -0.0149  0.9335
 3885TIP3    H233215   2.873   5.293   7.734  1.2056 -0.3473 -0.7846
 3886TIP3   OH233216   1.923   0.981   2.089  0.3847  0.2811  0.4280
 3886TIP3    H133217   1.981   0.916   2.049 -0.6347 -1.6647  1.9437
 3886TIP3    H233218   1.982   1.036   2.142  1.1677  0.0963 -0.2348
 3887TIP3   OH233219   4.220   6.054   0.969  0.7122 -0.5003 -0.4300
 3887TIP3    H133220   4.287   6.120   0.950  0.8135 -0.1980  0.8532
 3887TIP3    H233221   4.193   6.073   1.059 -0.6213 -1.0401 -0.6935
 3888TIP3   OH233222   3.022   1.968   0.313  0.5228 -0.0008 -0.1059
 3888TIP3    H133223   3.002   2.061   0.303  0.4388 -0.0226 -0.1437
 3888TIP3    H233224   2.971   1.926   0.244  0.5550 -0.0756 -0.0835
 3889TIP3   OH233225   1.467   0.898   0.547 -0.1005  0.3861  0.3732
 3889TIP3    H133226   1.434   0.838   0.613  1.8335 -1.1792  0.0097
 3889TIP3    H233227   1.560   0.876   0.538 -0.2156  0.6845 -2.6837
 3890TIP3   OH233228   3.452   1.402   0.523 -0.1703 -0.0522  0.6738
 3890TIP3    H133229   3.463   1.345   0.598  1.2815  1.5846  1.8053
 3890TIP3    H233230   3.542   1.424   0.496 -0.6648  0.4355 -0.7131
 3891TIP3   OH233231   1.491   3.688   2.005  0.1500 -0.4066 -0.2554
 3891TIP3    H133232   1.438   3.618   2.041  0.4486 -0.5192 -0.0338
 3891TIP3    H233233   1.580   3.668   2.033  0.1215  0.5302  0.5427
 3892TIP3   OH233234   5.440   6.527   0.056  0.3123 -0.5955  0.7763
 3892TIP3    H133235   5.484   6.584  -0.006  0.9856  0.3482  2.0675
 3892TIP3    H233236   5.487   6.444   0.051 -0.6893 -1.0940 -1.1331
 3893TIP3   OH233237   6.291   0.997   0.943 -0.1917  0.2352 -0.0707
 3893TIP3    H133238   6.379   0.973   0.975 -0.8165 -1.3564  0.5480
 3893TIP3    H233239   6.291   0.970   0.851 -0.0308  0.2753 -0.0835
 3894TIP3   OH233240   4.724   1.255   0.255 -0.0895 -0.2030 -0.3646
 3894TIP3    H133241   4.749   1.309   0.330  0.3539 -0.5484 -0.2609
 3894TIP3    H233242   4.668   1.187   0.292  0.2593 -0.4674 -0.3199
 3895TIP3   OH233243   1.756   0.088   7.376  0.4990  0.3289 -0.2075
 3895TIP3    H133244   1.673   0.101   7.422  0.0130 -1.3904 -0.4988
 3895TIP3    H233245   1.746   0.134   7.293  0.0521  0.6034 -0.0042
 3896TIP3   OH233246   0.994   2.228   6.282  0.4643 -0.3446 -0.0625
 3896TIP3    H133247   0.932   2.211   6.211  0.0653 -0.9732  0.4253
 3896TIP3    H233248   0.964   2.172   6.354  0.7694  0.3935  0.6545
 3897TIP3   OH233249   6.112   3.404   1.956  0.0121 -0.3002  0.3091
 3897TIP3    H133250   6.207   3.404   1.947  0.0422 -1.4587  0.5121
 3897TIP3    H233251   6.086   3.494   1.937  1.2254  0.2293  1.0518
 3898TIP3   OH233252   3.176   6.843   7.808 -0.1139  0.0186  0.3386
 3898TIP3    H133253   3.206   6.773   7.865  0.2479 -1.6483 -1.7509
 3898TIP3    H233254   3.135   6.798   7.734 -0.0990  2.0102 -0.9684
 3899TIP3   OH233255   1.673   3.470   1.017  0.3153 -0.5417 -0.3933
 3899TIP3    H133256   1.626   3.452   0.936 -0.4211  0.3933 -0.2006
 3899TIP3    H233257   1.658   3.564   1.033 -0.8056 -0.9904  1.5720
 3900TIP3   OH233258   7.130   4.724   5.806  0.5138  0.7086  0.6070
 3900TIP3    H133259   7.097   4.642   5.842  0.9978 -0.0925 -0.6881
 3900TIP3    H233260   7.054   4.765   5.764  0.1802  1.1460  1.6048
 3901TIP3   OH233261   3.330   3.840   7.320  0.6772 -0.3030 -0.5708
 3901TIP3    H133262   3.404   3.895   7.344  0.0588 -0.3448  1.6710
 3901TIP3    H233263   3.342   3.760   7.371 -1.9013  0.5071  1.5588
 3902TIP3   OH233264   1.632   4.976   7.899 -0.3623 -0.2449 -0.1436
 3902TIP3    H133265   1.614   5.067   7.924  0.4863 -0.0208 -0.3381
 3902TIP3    H233266   1.547   4.943   7.867 -1.2016 -0.1812  1.8761
 3903TIP3   OH233267   0.456   1.787   1.176 -0.6098 -0.5110 -0.3081
 3903TIP3    H133268   0.498   1.786   1.262  0.8171  1.5713 -0.9079
 3903TIP3    H233269   0.523   1.753   1.116 -0.3195  1.2349 -1.0349
 3904TIP3   OH233270   1.992   6.801   6.082 -0.2294 -0.0962 -0.1518
 3904TIP3    H133271   1.939   6.805   6.162 -0.0066  0.2873 -0.0234
 3904TIP3    H233272   1.953   6.866   6.024 -1.9704 -2.0368 -1.3395
 3905TIP3   OH233273   6.231   4.319   7.409  0.3557 -0.5205 -0.2027
 3905TIP3    H133274   6.323   4.307   7.433  0.0827  0.9258  1.8376
 3905TIP3    H233275   6.184   4.252   7.459  0.2501 -1.3748 -1.3759
 3906TIP3   OH233276   6.968   1.635   7.309  0.0836 -0.0793 -0.0870
 3906TIP3    H133277   6.937   1.676   7.389  1.6729 -1.1862  1.1623
 3906TIP3    H233278   7.032   1.570   7.338  0.8757 -0.3750 -2.2585
 3907TIP3   OH233279   5.456   1.067   7.614 -0.2137 -0.2128 -0.3822
 3907TIP3    H133280   5.445   0.989   7.668 -2.0704  0.5990  0.4896
 3907TIP3    H233281   5.532   1.112   7.652 -1.5438  0.4029  1.7004
 3908TIP3   OH233282   3.456   2.001   0.992  0.2648  0.1926 -0.1355
 3908TIP3    H133283   3.551   2.003   1.002  0.2962  0.7114 -0.4853
 3908TIP3    H233284   3.424   1.962   1.074  0.7440  0.5629  0.2346
 3909TIP3   OH233285   4.083   2.691   7.941  0.1306 -0.0377  0.0170
 3909TIP3    H133286   4.024   2.616   7.950 -0.7872  0.7227  0.4188
 3909TIP3    H233287   4.116   2.706   8.029 -0.7278  0.8528  0.2027
 3910TIP3   OH233288   6.610   6.391   7.072 -0.4374  0.1830 -0.1965
 3910TIP3    H133289   6.567   6.403   6.987  0.9159  0.1708 -0.9244
 3910TIP3    H233290   6.590   6.301   7.097 -0.2875 -0.0365 -0.8442
 3911TIP3   OH233291   0.163   4.945   7.250  0.2008  0.5111  0.0227
 3911TIP3    H133292   0.068   4.952   7.258  0.2319 -0.0195  0.9923
 3911TIP3    H233293   0.197   5.004   7.318  0.5376 -0.7458  0.9747
 3912TIP3   OH233294   1.288   3.094   0.074 -0.0822 -0.5026  0.8107
 3912TIP3    H133295   1.335   3.024   0.120  0.8941 -1.1116 -0.9947
 3912TIP3    H233296   1.270   3.057  -0.012  0.5038  1.4684 -0.2186
 3913TIP3   OH233297   2.297   1.248   1.676 -0.7156  0.8715  1.0815
 3913TIP3    H133298   2.279   1.342   1.666 -1.1955  0.9801  2.7218
 3913TIP3    H233299   2.387   1.237   1.645 -1.5347  1.3378 -1.8085
 3914TIP3   OH233300   4.811   5.062   7.825  0.5240  0.4342  0.2843
 3914TIP3    H133301   4.858   5.117   7.763  0.4846 -0.9014 -1.0093
 3914TIP3    H233302   4.862   4.981   7.828 -0.6953 -0.3711  0.2218
 3915TIP3   OH233303   2.169   3.754   6.430 -0.1357  0.6234  0.3071
 3915TIP3    H133304   2.168   3.705   6.348 -0.0572  1.7182 -0.3682
 3915TIP3    H233305   2.261   3.777   6.443  0.0349 -0.5372  1.3316
 3916TIP3   OH233306   1.778   3.939   6.676  0.0574 -0.0097  0.3013
 3916TIP3    H133307   1.789   3.990   6.596 -1.5808  0.9881  0.6689
 3916TIP3    H233308   1.826   3.858   6.660  1.5111  1.0274 -0.8636
 3917TIP3   OH233309   4.879   3.449   7.443 -0.5692 -0.0889  1.2061
 3917TIP3    H133310   4.905   3.377   7.385 -0.7499  1.2514 -0.6204
 3917TIP3    H233311   4.918   3.426   7.527  1.2325 -1.2619  0.1468
 3918TIP3   OH233312   6.341   4.129   0.606 -0.1203 -0.0748 -0.1514
 3918TIP3    H133313   6.311   4.162   0.691 -1.4608 -0.1000 -0.5970
 3918TIP3    H233314   6.354   4.208   0.553  1.5486 -0.0004  0.3054
 3919TIP3   OH233315   4.208   7.005   7.234 -0.1527  0.1555 -0.5176
 3919TIP3    H133316   4.175   6.929   7.185  0.1897 -0.6976  0.5210
 3919TIP3    H233317   4.303   7.001   7.224 -0.1417  0.5402 -0.5805
 3920TIP3   OH233318   1.662   1.809   6.454 -0.0285 -0.0107  0.1727
 3920TIP3    H133319   1.655   1.871   6.527 -0.0484  1.4964 -1.0565
 3920TIP3    H233320   1.744   1.833   6.411 -0.0827 -0.7994 -0.3730
 3921TIP3   OH233321   4.913   0.987   7.519 -0.0340 -0.1989 -0.3973
 3921TIP3    H133322   4.920   1.040   7.440 -0.2139 -0.3727 -0.5298
 3921TIP3    H233323   4.876   1.046   7.584  1.4325  0.3739 -0.0343
 3922TIP3   OH233324   4.449   3.942   7.541 -0.5622  0.5686 -0.2631
 3922TIP3    H133325   4.449   4.034   7.567  1.2441  0.1598  1.4768
 3922TIP3    H233326   4.531   3.907   7.577 -1.2308 -1.7412 -0.7975
 3923TIP3   OH233327   2.595   3.155   6.379 -0.4401 -0.0685 -0.2527
 3923TIP3    H133328   2.626   3.079   6.428 -0.0619  0.8064  0.9208
 3923TIP3    H233329   2.646   3.154   6.298 -0.5315 -1.1174 -0.3122
 3924TIP3   OH233330   3.663   6.886   6.764  0.1289  0.1028 -0.3223
 3924TIP3    H133331   3.651   6.795   6.792 -1.4764  0.5933  0.7224
 3924TIP3    H233332   3.733   6.919   6.820 -1.0944  0.2396  1.1873
 3925TIP3   OH233333   3.795   7.118   7.112 -0.1126 -0.3305  0.2695
 3925TIP3    H133334   3.814   7.150   7.023  0.0512  3.3076  1.4459
 3925TIP3    H233335   3.701   7.103   7.112 -0.1240 -0.3411 -0.5074
 3926TIP3   OH233336   3.393   6.622   0.389 -0.1603 -0.2279 -0.3663
 3926TIP3    H133337   3.445   6.680   0.333  1.1383 -2.0921 -1.2161
 3926TIP3    H233338   3.458   6.569   0.435 -1.2757 -2.1396 -0.9025
 3927TIP3   OH233339   2.801   2.656   7.978  0.1690  0.0578  0.2233
 3927TIP3    H133340   2.749   2.612   7.911  0.7979 -0.2351 -0.0877
 3927TIP3    H233341   2.755   2.639   8.060 -0.4553  0.1784 -0.0983
 3928TIP3   OH233342   3.073   0.616   1.151 -0.7087 -0.0529 -0.0663
 3928TIP3    H133343   3.116   0.697   1.124 -2.0798  0.3605 -1.1541
 3928TIP3    H233344   2.994   0.645   1.197 -0.6414 -0.7759  0.5172
 3929TIP3   OH233345   1.063   0.788   5.902 -0.0313 -0.5370  0.3395
 3929TIP3    H133346   1.027   0.839   5.830 -1.7223  0.1527  1.6048
 3929TIP3    H233347   1.068   0.698   5.869  2.6391  0.2552 -1.8089
 3930TIP3   OH233348   4.617   1.299   1.616 -0.0219  0.1319  0.3348
 3930TIP3    H133349   4.609   1.388   1.650  1.7396 -0.1367  1.6439
 3930TIP3    H233350   4.531   1.260   1.631 -0.6200  1.3961  0.3573
 3931TIP3   OH233351   2.588   3.712   7.694  0.2502 -0.2803 -0.6847
 3931TIP3    H133352   2.567   3.635   7.747 -0.6499  1.7570  2.2032
 3931TIP3    H233353   2.683   3.717   7.694  0.2951  0.5262  2.3164
 3932TIP3   OH233354   3.556   6.614   6.865 -0.3130  0.8066 -0.3348
 3932TIP3    H133355   3.465   6.613   6.894 -0.2915  1.7926 -0.2091
 3932TIP3    H233356   3.603   6.657   6.937  0.1684  0.7868 -0.6353
 3933TIP3   OH233357   0.750   0.607   0.725 -1.0002 -0.8145 -0.3222
 3933TIP3    H133358   0.841   0.623   0.701  0.1802 -1.6489  2.9619
 3933TIP3    H233359   0.729   0.523   0.685 -0.2329 -0.7137 -0.9520
 3934TIP3   OH233360   0.781   0.437   0.203  0.1689 -0.1464  0.0629
 3934TIP3    H133361   0.778   0.351   0.161  0.4382 -1.0466  1.7815
 3934TIP3    H233362   0.703   0.438   0.260  1.2388 -0.1091  1.5845
 3935TIP3   OH233363   1.614   6.123   0.321 -0.2894  1.0701 -0.2240
 3935TIP3    H133364   1.652   6.186   0.383 -0.7082  0.0862  1.0663
 3935TIP3    H233365   1.524   6.112   0.351 -0.2825  0.0252 -0.5751
 3936TIP3   OH233366   4.779   0.654   6.526  0.3574 -0.4457 -0.0364
 3936TIP3    H133367   4.847   0.679   6.589  1.4922  0.6017 -1.5923
 3936TIP3    H233368   4.756   0.736   6.483 -1.0093 -1.0087 -0.4057
 3937TIP3   OH233369   0.529   2.330   7.834 -0.3290 -0.0023 -0.1285
 3937TIP3    H133370   0.488   2.415   7.850  1.5828  1.1090 -0.7383
 3937TIP3    H233371   0.459   2.267   7.844 -1.7348  1.6142  0.7478
 3938TIP3   OH233372   0.971   2.449   0.092 -0.3020  0.1469  0.3316
 3938TIP3    H133373   0.889   2.401   0.077 -1.4529  2.4430 -1.5401
 3938TIP3    H233374   1.038   2.395   0.051 -1.4311 -0.2382 -1.1080
 3939TIP3   OH233375   1.231   2.349   1.636  0.3782 -0.0586 -0.4846
 3939TIP3    H133376   1.304   2.318   1.691 -0.8065 -0.8547  0.6942
 3939TIP3    H233377   1.154   2.305   1.672 -0.7698  1.1432 -1.4009
 3940TIP3   OH233378   5.040   5.282   1.224 -0.2933  0.1031  0.2351
 3940TIP3    H133379   5.049   5.373   1.251  1.2389 -0.2275  0.9264
 3940TIP3    H233380   5.052   5.231   1.304 -1.4955 -0.7092 -0.0710
 3941TIP3   OH233381   7.030   1.679   0.602  0.2710 -0.3301 -0.2368
 3941TIP3    H133382   6.972   1.745   0.640  1.3088  1.0598 -0.9715
 3941TIP3    H233383   7.013   1.599   0.653 -0.4030  0.7156  1.2352
 3942TIP3   OH233384   3.949   0.576   5.957 -0.2092  0.0476 -0.2800
 3942TIP3    H133385   3.941   0.594   6.051  2.0540 -1.9657  0.4100
 3942TIP3    H233386   3.923   0.658   5.914  1.0881  1.8874  2.1966
 3943TIP3   OH233387   6.790   5.811   7.004  0.4138  0.3046 -0.3302
 3943TIP3    H133388   6.747   5.730   6.977  2.5905 -0.2237 -2.7640
 3943TIP3    H233389   6.732   5.881   6.974 -0.3508 -0.3657 -0.4303
 3944TIP3   OH233390   5.144   1.315   7.431  0.0993 -0.0484  0.4709
 3944TIP3    H133391   5.084   1.356   7.369 -0.7064 -0.7745  0.7447
 3944TIP3    H233392   5.132   1.364   7.512  1.8579  1.5283 -0.1496
 3945TIP3   OH233393   4.638   3.762   7.604 -0.5909 -0.0964  0.5025
 3945TIP3    H133394   4.697   3.753   7.529  0.6010  1.1510  1.2675
 3945TIP3    H233395   4.691   3.738   7.680 -1.2381  0.4827  1.1505
 3946TIP3   OH233396   3.794   5.473   7.708  0.4051 -0.4603  0.1156
 3946TIP3    H133397   3.823   5.400   7.654  0.7558 -0.4933  0.3426
 3946TIP3    H233398   3.852   5.471   7.784  0.0265 -0.3107  0.4122
 3947TIP3   OH233399   4.371   1.846   6.125  0.4132 -0.7418  0.5239
 3947TIP3    H133400   4.298   1.785   6.116  1.2867 -1.8175  0.5820
 3947TIP3    H233401   4.351   1.897   6.203 -1.7890  1.1289 -1.1174
 3948TIP3   OH233402   3.895   1.501   0.657 -0.4783  0.2639 -0.3184
 3948TIP3    H133403   3.815   1.521   0.705  0.1593  3.4021 -0.3628
 3948TIP3    H233404   3.966   1.525   0.716  0.6459 -3.7397  0.2753
 3949TIP3   OH233405   3.901   2.113   7.766 -0.5120 -0.3820  0.3161
 3949TIP3    H133406   3.994   2.095   7.783 -0.3686 -0.2909 -0.3662
 3949TIP3    H233407   3.855   2.073   7.840  0.0686 -0.4242  0.6618
 3950TIP3   OH233408   5.672   1.669   1.620  0.1155 -0.2046  0.0189
 3950TIP3    H133409   5.672   1.618   1.539 -0.3574 -0.1915  0.0070
 3950TIP3    H233410   5.752   1.644   1.665  0.3745 -0.2226 -0.4494
 3951TIP3   OH233411   4.390   5.527   7.163  0.0949  0.1068 -0.4425
 3951TIP3    H133412   4.350   5.470   7.229  1.2693 -0.3562 -0.1075
 3951TIP3    H233413   4.348   5.612   7.177  1.9770  0.6845  2.5526
 3952TIP3   OH233414   2.061   5.646   6.163 -0.1292 -0.2126  0.1693
 3952TIP3    H133415   2.144   5.599   6.168  0.5465  1.0161  1.1654
 3952TIP3    H233416   2.081   5.734   6.196 -1.8523  0.0680  0.5941
 3953TIP3   OH233417   5.390   3.341   7.534  0.4355 -0.1096 -0.0036
 3953TIP3    H133418   5.296   3.354   7.536  0.2331 -1.3983 -0.4208
 3953TIP3    H233419   5.416   3.373   7.447  0.2748 -0.4409 -0.1736
 3954TIP3   OH233420   6.449   0.267   6.882 -0.1640 -0.4439 -0.8249
 3954TIP3    H133421   6.400   0.288   6.961 -1.0419 -1.1992 -1.1520
 3954TIP3    H233422   6.405   0.317   6.813 -0.8314 -1.5438 -1.2134
 3955TIP3   OH233423   4.809   2.603   1.110 -0.3513  0.5943  0.2014
 3955TIP3    H133424   4.789   2.511   1.128 -0.0486  0.1976 -1.3536
 3955TIP3    H233425   4.900   2.602   1.080 -0.8676  1.1547 -1.4515
 3956TIP3   OH233426   3.981   0.438   1.501  0.5384  0.4702  0.1163
 3956TIP3    H133427   4.074   0.418   1.500  0.8842  1.8914 -1.5328
 3956TIP3    H233428   3.941   0.364   1.546  2.1413 -1.6771 -1.7151
 3957TIP3   OH233429   3.773   0.994   6.753  0.0484 -0.1420 -0.3504
 3957TIP3    H133430   3.688   1.024   6.719 -0.0989  1.4946  1.3064
 3957TIP3    H233431   3.790   1.051   6.828  2.3377 -0.8501 -0.2623
 3958TIP3   OH233432   2.949   0.645   7.935 -0.0661  0.0847  0.1120
 3958TIP3    H133433   2.871   0.635   7.991 -1.1560  0.5811 -1.2419
 3958TIP3    H233434   2.991   0.559   7.937 -0.0153  0.1065  1.7263
 3959TIP3   OH233435   3.823   4.343   7.261  0.3335 -0.3830  0.0934
 3959TIP3    H133436   3.870   4.266   7.229 -1.5465 -1.2305 -0.7858
 3959TIP3    H233437   3.889   4.392   7.310  1.7784 -2.1700  0.0725
 3960TIP3   OH233438   6.127   4.390   5.714  0.3874  0.8040 -0.3091
 3960TIP3    H133439   6.142   4.460   5.777  0.6933  2.2717 -1.9143
 3960TIP3    H233440   6.214   4.355   5.694  0.2811  0.2700  0.1567
 3961TIP3   OH233441   0.022   5.172   6.104  0.3870 -0.3375 -0.1638
 3961TIP3    H133442   0.059   5.196   6.189  1.2124  0.1938 -0.6695
 3961TIP3    H233443   0.061   5.087   6.084 -0.4584 -0.8680  0.3664
 3962TIP3   OH233444   4.179   3.991   7.384  0.0630 -0.0381  0.3886
 3962TIP3    H133445   4.135   3.921   7.432  1.1795 -1.1603 -0.1579
 3962TIP3    H233446   4.254   4.015   7.439 -0.4328  0.9118  0.6802
 3963TIP3   OH233447   5.529   5.721   6.697  0.0948 -0.0406  0.0236
 3963TIP3    H133448   5.622   5.702   6.709  0.3231  1.2612  0.4963
 3963TIP3    H233449   5.528   5.809   6.659 -0.9125 -0.6523 -1.4784
 3964TIP3   OH233450   3.314   5.641   1.017 -0.7667 -0.4424 -0.5142
 3964TIP3    H133451   3.249   5.621   0.950 -1.6637  1.1728 -0.1664
 3964TIP3    H233452   3.323   5.736   1.015 -1.5119 -0.2179  2.2418
 3965TIP3   OH233453   6.786   3.926   5.807  0.1843 -0.1214 -0.3590
 3965TIP3    H133454   6.779   3.956   5.716 -0.9233 -1.5877 -0.7958
 3965TIP3    H233455   6.784   4.006   5.859  0.3185  0.7166 -1.5899
 3966TIP3   OH233456   4.872   4.412   7.406  0.4384 -0.4826 -0.0179
 3966TIP3    H133457   4.805   4.377   7.348 -1.2917  2.5954 -0.0883
 3966TIP3    H233458   4.939   4.446   7.348  0.1918 -0.1468 -0.1083
 3967TIP3   OH233459   6.948   6.783   1.280  0.0147 -0.5124  0.6370
 3967TIP3    H133460   7.020   6.731   1.244  1.4391  1.0719  1.0706
 3967TIP3    H233461   6.991   6.845   1.340 -1.5799  1.2452  0.0351
 3968TIP3   OH233462   6.132   3.021   6.063  0.2759 -0.0490 -0.0880
 3968TIP3    H133463   6.217   3.064   6.059 -1.0638  2.8937  0.5710
 3968TIP3    H233464   6.111   3.019   6.157 -0.8076  0.2130 -0.3145
 3969TIP3   OH233465   6.302   5.414   0.694 -0.1357 -0.3381  0.1160
 3969TIP3    H133466   6.353   5.487   0.726 -1.3336  0.5584  0.0459
 3969TIP3    H233467   6.316   5.414   0.599  1.2390 -1.3039  0.2897
 3970TIP3   OH233468   3.790   1.391   7.886  0.0790 -0.4153  0.1010
 3970TIP3    H133469   3.844   1.431   7.817  1.2764 -0.3487  1.0335
 3970TIP3    H233470   3.720   1.346   7.839  0.8666 -0.3767 -1.1676
 3971TIP3   OH233471   4.328   6.204   7.491  0.1753 -0.3878  0.0174
 3971TIP3    H133472   4.243   6.159   7.494  0.2064 -0.7448 -2.4158
 3971TIP3    H233473   4.322   6.269   7.561 -0.8558 -2.4226  1.9742
 3972TIP3   OH233474   2.752   2.413   1.152 -0.5293  0.1359 -0.3468
 3972TIP3    H133475   2.676   2.461   1.185 -0.0679 -0.2845  1.4639
 3972TIP3    H233476   2.823   2.436   1.212  0.1877 -1.2562 -0.6107
 3973TIP3   OH233477   5.224   5.347   6.812  0.4330  0.5651 -0.1869
 3973TIP3    H133478   5.240   5.441   6.805  1.2448  0.5960  1.6884
 3973TIP3    H233479   5.168   5.337   6.889  1.8298 -0.6035  0.7295
 3974TIP3   OH233480   6.317   4.336   1.740 -0.7150 -0.3269 -0.1016
 3974TIP3    H133481   6.358   4.332   1.826 -0.6654 -3.0476 -0.1635
 3974TIP3    H233482   6.368   4.401   1.692  2.6817 -2.4556  0.3118
 3975TIP3   OH233483   6.220   2.971   1.448 -0.7570  0.2417  0.4557
 3975TIP3    H133484   6.290   3.032   1.472  0.7721 -1.1926 -0.1268
 3975TIP3    H233485   6.177   2.951   1.531 -0.1258  0.7338  0.9174
 3976TIP3   OH233486   0.774   6.217   1.430 -0.1082 -0.1941  0.3601
 3976TIP3    H133487   0.719   6.221   1.508  0.0937 -0.3365  0.5117
 3976TIP3    H233488   0.836   6.290   1.440 -1.1998  0.9100 -0.5320
 3977TIP3   OH233489   3.732   0.021   6.858  0.1938 -0.2990 -0.7009
 3977TIP3    H133490   3.654   0.076   6.866 -0.7217 -1.4553 -1.4787
 3977TIP3    H233491   3.795   0.076   6.810 -0.5384  0.2411 -1.0605
 3978TIP3   OH233492   6.052   2.759   7.280 -0.2990  0.6521  0.8127
 3978TIP3    H133493   6.039   2.684   7.222 -0.2819  2.7211 -2.0982
 3978TIP3    H233494   5.985   2.749   7.348 -1.6186 -0.9640 -0.6294
 3979TIP3   OH233495   0.535   2.868   2.049  0.4714  0.8317  0.1225
 3979TIP3    H133496   0.534   2.963   2.038  0.0937  0.6048 -2.6485
 3979TIP3    H233497   0.460   2.838   1.997  0.4469 -0.9897  1.1284
 3980TIP3   OH233498   0.574   5.181   6.007  0.0045 -0.1839  0.0777
 3980TIP3    H133499   0.597   5.130   5.929  0.4029  1.3386 -0.8600
 3980TIP3    H233500   0.656   5.184   6.058  0.4525  0.8192 -0.6609
 3981TIP3   OH233501   3.771   6.212   7.665 -0.1512 -0.1683  0.8269
 3981TIP3    H133502   3.678   6.201   7.643  0.0075  1.4235 -0.9575
 3981TIP3    H233503   3.772   6.285   7.727 -0.0826 -0.1162  0.7645
 3982TIP3   OH233504   6.217   5.259   1.689 -0.6076  0.0952  0.4688
 3982TIP3    H133505   6.228   5.238   1.596 -0.6117 -0.8539  0.6718
 3982TIP3    H233506   6.299   5.300   1.714 -0.8762  1.0092 -0.1230
 3983TIP3   OH233507   6.090   1.914   0.582 -0.5475  0.2113  0.0394
 3983TIP3    H133508   6.150   1.983   0.612 -1.0964  1.1333 -0.9031
 3983TIP3    H233509   6.066   1.867   0.662 -1.0015  1.8261  0.9033
 3984TIP3   OH233510   1.910   4.431   6.850  0.3396  0.1196 -0.6233
 3984TIP3    H133511   1.881   4.418   6.760 -0.9352 -0.6647 -0.1294
 3984TIP3    H233512   1.849   4.496   6.886  0.8709  0.4694 -0.3359
 3985TIP3   OH233513   6.060   5.920   7.311 -0.1478 -0.0973 -0.8187
 3985TIP3    H133514   6.028   5.988   7.371 -0.6953  0.0755 -1.2919
 3985TIP3    H233515   6.009   5.934   7.231  2.5201  1.5398 -2.3958
 3986TIP3   OH233516   2.565   5.676   0.586 -0.1417 -0.4872 -0.3573
 3986TIP3    H133517   2.601   5.686   0.674  1.4034 -1.4143 -0.8570
 3986TIP3    H233518   2.490   5.736   0.585 -0.2697 -0.5268  1.6130
 3987TIP3   OH233519   5.667   4.350   1.549  0.1386 -0.3602 -0.1315
 3987TIP3    H133520   5.578   4.338   1.582 -0.2345 -0.8482 -1.2671
 3987TIP3    H233521   5.712   4.269   1.573  0.8630  0.6353  2.1290
 3988TIP3   OH233522   0.973   5.731   6.671 -0.1718  0.1366  0.1151
 3988TIP3    H133523   1.034   5.662   6.645  1.4125  1.4459  0.1986
 3988TIP3    H233524   1.007   5.810   6.629 -1.6239  0.9736  0.4609
 3989TIP3   OH233525   2.285   5.804   6.307  0.1884  0.7555  0.0968
 3989TIP3    H133526   2.206   5.847   6.274 -0.6199  0.2655  1.3451
 3989TIP3    H233527   2.261   5.773   6.394  1.6047  0.1426  0.2905
 3990TIP3   OH233528   2.657   1.712   2.012 -0.5299 -0.0614  0.6620
 3990TIP3    H133529   2.569   1.716   1.973  0.1319  0.0762 -0.8910
 3990TIP3    H233530   2.678   1.802   2.035 -0.5382  0.0032  0.4185
 3991TIP3   OH233531   6.718   1.484   0.807  0.5680  0.4460  0.2672
 3991TIP3    H133532   6.717   1.519   0.896  1.9104  0.1866  0.4117
 3991TIP3    H233533   6.796   1.523   0.768 -0.8531  1.8229 -1.3410
 3992TIP3   OH233534   4.755   6.987   1.143  0.2065 -0.0800 -0.1391
 3992TIP3    H133535   4.831   6.981   1.085  1.9410 -2.2120  2.1382
 3992TIP3    H233536   4.736   7.081   1.148  1.8933  0.4030 -1.7673
 3993TIP3   OH233537   6.264   5.408   7.048  0.3374  0.1929 -0.5330
 3993TIP3    H133538   6.301   5.496   7.058  0.5899 -0.1018  1.7891
 3993TIP3    H233539   6.171   5.423   7.032  0.2112  0.9094  0.7287
 3994TIP3   OH233540   2.558   1.083   1.043 -0.1356 -0.0295 -0.0487
 3994TIP3    H133541   2.584   1.154   0.984  1.0678  0.6152  1.1959
 3994TIP3    H233542   2.495   1.032   0.992 -1.1466  1.9876 -0.9601
 3995TIP3   OH233543   2.673   6.804   7.632 -0.2730 -1.0733 -0.1636
 3995TIP3    H133544   2.665   6.867   7.704 -1.7956 -0.9706 -0.3975
 3995TIP3    H233545   2.765   6.778   7.634  0.4816  1.3226 -0.1920
 3996TIP3   OH233546   1.669   4.888   0.619 -0.6566  0.0832  0.0023
 3996TIP3    H133547   1.696   4.866   0.530 -1.0856  0.6308 -0.2695
 3996TIP3    H233548   1.668   4.804   0.666 -0.8323 -0.2671 -0.6208
 3997TIP3   OH233549   2.055   5.099   0.397 -0.0962  0.5709 -0.8031
 3997TIP3    H133550   2.100   5.039   0.457 -1.3682  0.2978 -0.0769
 3997TIP3    H233551   2.114   5.107   0.322  2.4337  2.3252  1.1855
 3998TIP3   OH233552   2.458   3.603   0.740  0.7476 -0.2386  0.3450
 3998TIP3    H133553   2.436   3.512   0.722 -1.4717 -0.1680  2.2245
 3998TIP3    H233554   2.541   3.598   0.788 -0.4169 -1.5062  2.3494
 3999TIP3   OH233555   4.318   4.290   0.576  0.0540  0.5793 -0.0251
 3999TIP3    H133556   4.245   4.231   0.560  0.0299  0.4763  0.4402
 3999TIP3    H233557   4.384   4.265   0.511  1.0907 -1.7389  1.7633
 4000TIP3   OH233558   3.245   3.073   6.458  0.0478  0.0611 -0.0327
 4000TIP3    H133559   3.259   2.995   6.403  2.1859  0.7912 -0.6276
 4000TIP3    H233560   3.259   3.042   6.547 -0.0758 -0.4294 -0.1770
 4001TIP3   OH233561   6.211   6.559   1.225 -0.1282 -0.1021  0.3830
 4001TIP3    H133562   6.168   6.629   1.176 -1.0297 -0.0564  1.2197
 4001TIP3    H233563   6.305   6.578   1.216 -0.3237  0.5918 -0.2883
 4002TIP3   OH233564   1.382   4.445   0.556  0.0987 -0.4633  0.8295
 4002TIP3    H133565   1.369   4.356   0.524  2.4535 -1.2750  1.8675
 4002TIP3    H233566   1.334   4.448   0.638 -1.4783 -0.1456 -0.0738
 4003TIP3   OH233567   5.845   4.605   1.657 -0.1899  0.2132 -0.6541
 4003TIP3    H133568   5.923   4.551   1.674 -0.5735  0.0016  0.5033
 4003TIP3    H233569   5.878   4.695   1.657  0.2402  0.0641 -1.3299
 4004TIP3   OH233570   6.705   4.246   6.267 -0.8784  0.2042  0.3726
 4004TIP3    H133571   6.709   4.159   6.228  0.7903 -0.6676  2.3065
 4004TIP3    H233572   6.624   4.247   6.318 -0.5871 -0.4723  0.8596
 4005TIP3   OH233573   1.358   2.753   1.639  0.5989 -0.5710  0.4592
 4005TIP3    H133574   1.420   2.778   1.709  1.0555  2.5688 -0.8976
 4005TIP3    H233575   1.409   2.694   1.583  1.6462  0.1661  0.5921
 4006TIP3   OH233576   6.256   4.538   0.321 -0.1321  0.4378  0.6728
 4006TIP3    H133577   6.245   4.506   0.411  0.1477 -0.4499  0.4035
 4006TIP3    H233578   6.202   4.479   0.268 -0.3682  1.0099  0.2635
 4007TIP3   OH233579   1.349   6.104   0.430  0.4040  0.3237  0.1057
 4007TIP3    H133580   1.315   6.090   0.519  0.1969 -0.0544 -0.0298
 4007TIP3    H233581   1.277   6.080   0.373 -0.0464  2.1479 -0.1618
 4008TIP3   OH233582   1.309   0.577   6.313  0.1072 -0.0274  0.1094
 4008TIP3    H133583   1.248   0.635   6.268 -0.4149 -1.8101 -1.6149
 4008TIP3    H233584   1.266   0.492   6.312  0.0445 -0.2340  4.1337
 4009TIP3   OH233585   5.735   7.103   6.325  0.3427 -0.2730 -0.2444
 4009TIP3    H133586   5.700   7.042   6.390  1.6948 -1.7012 -0.7889
 4009TIP3    H233587   5.658   7.136   6.280 -0.6129  0.4902  1.8153
 4010TIP3   OH233588   4.090   1.821   6.043  0.7272  0.2121  0.3347
 4010TIP3    H133589   4.049   1.739   6.016 -0.4311  0.3932  1.4343
 4010TIP3    H233590   4.026   1.889   6.022  0.7739  0.5966  1.3539
 4011TIP3   OH233591   0.842   2.039   5.916 -0.1312 -0.1706 -0.0449
 4011TIP3    H133592   0.840   2.113   5.976  1.2168  1.4872 -1.9010
 4011TIP3    H233593   0.807   2.074   5.834 -1.6748 -2.2855 -0.3693
 4012TIP3   OH233594   4.354   3.728   7.736  0.4158  0.3537  0.1942
 4012TIP3    H133595   4.342   3.636   7.712 -1.8714  0.5301  0.4366
 4012TIP3    H233596   4.402   3.765   7.662  1.6598 -1.0614  0.2293
 4013TIP3   OH233597   5.298   2.716   7.899  0.0169 -0.3969  0.4032
 4013TIP3    H133598   5.354   2.711   7.976  0.5771 -1.1298 -0.0443
 4013TIP3    H233599   5.211   2.736   7.934  0.3893 -0.0710  1.1638
 4014TIP3   OH233600   4.225   1.178   7.061  0.4367  0.4825 -0.0548
 4014TIP3    H133601   4.210   1.204   7.152  3.6058 -0.1230  0.7668
 4014TIP3    H233602   4.250   1.086   7.067  0.9390  0.4994 -1.5288
 4015TIP3   OH233603   5.781   3.681   1.261 -0.1579  0.2518  0.0309
 4015TIP3    H133604   5.810   3.636   1.340 -0.3073  1.1646  0.6241
 4015TIP3    H233605   5.803   3.621   1.190 -0.7511 -0.9390  0.8189
 4016TIP3   OH233606   5.488   1.689   7.325  0.7985 -0.3282 -0.1480
 4016TIP3    H133607   5.541   1.761   7.290  1.5442 -0.7893  0.0055
 4016TIP3    H233608   5.509   1.687   7.418  0.0701 -0.1577  0.0261
 4017TIP3   OH233609   6.414   6.823   1.413 -0.5731  0.5487 -0.1241
 4017TIP3    H133610   6.391   6.780   1.496 -0.3352 -0.5748 -0.6168
 4017TIP3    H233611   6.333   6.821   1.362 -0.1565 -0.8740 -0.7867
 4018TIP3   OH233612   3.615   5.521   1.985 -0.3228 -0.1856 -0.3626
 4018TIP3    H133613   3.698   5.518   1.939 -0.0982  0.8567 -0.0598
 4018TIP3    H233614   3.552   5.483   1.924  0.7418 -3.3277  0.3523
 4019TIP3   OH233615   4.464   5.443   6.423  0.3438 -0.0709 -0.0994
 4019TIP3    H133616   4.482   5.402   6.508 -0.6615 -0.4526 -0.0598
 4019TIP3    H233617   4.446   5.534   6.444  1.6927  0.2197 -0.0910
 4020TIP3   OH233618   0.641   2.376   5.837 -0.2448 -0.0186  0.8151
 4020TIP3    H133619   0.613   2.309   5.900  2.0871 -2.0251 -0.1532
 4020TIP3    H233620   0.691   2.438   5.889  0.9824 -1.2237  1.1155
 4021TIP3   OH233621   4.670   5.947   1.646  0.2287  0.4268  0.2368
 4021TIP3    H133622   4.737   5.922   1.710  1.2860  1.1981 -0.5318
 4021TIP3    H233623   4.605   5.995   1.697  0.3041 -0.2409  0.9773
 4022TIP3   OH233624   0.407   5.709   6.272  0.1956 -0.0183 -0.3497
 4022TIP3    H133625   0.405   5.624   6.229  1.5645 -1.0084  1.4348
 4022TIP3    H233626   0.331   5.710   6.329  1.1047 -0.8073  0.9241
 4023TIP3   OH233627   0.472   5.634   1.146  0.0785  0.0975 -0.1709
 4023TIP3    H133628   0.438   5.722   1.132  1.1139  0.2921 -1.6915
 4023TIP3    H233629   0.431   5.605   1.228  0.4439  2.3481  0.8813
 4024TIP3   OH233630   2.995   3.916   0.068 -0.2237 -0.2067  0.4836
 4024TIP3    H133631   2.976   3.849   0.002  1.9995 -0.5786  0.1439
 4024TIP3    H233632   3.082   3.948   0.045 -0.2501  1.1055  2.0602
 4025TIP3   OH233633   4.924   5.744   5.392  0.4151  0.0440 -0.2837
 4025TIP3    H133634   4.874   5.662   5.397 -0.0761  0.2765 -1.0617
 4025TIP3    H233635   5.012   5.720   5.419  0.1508 -0.6255  0.0272
 4026TIP3   OH233636   6.591   3.992   0.564 -0.5965  0.0073  0.2989
 4026TIP3    H133637   6.618   3.972   0.475  0.2024 -1.1069  0.7632
 4026TIP3    H233638   6.570   4.086   0.563  1.7248  0.5777 -0.4982
 4027TIP3   OH233639   5.526   3.540   7.662 -0.5037  0.1398 -0.8064
 4027TIP3    H133640   5.490   3.463   7.619  3.2667 -1.6831 -1.1043
 4027TIP3    H233641   5.558   3.508   7.746 -1.6834  2.1511  0.4818
 4028TIP3   OH233642   5.430   6.600   7.753 -0.1651 -0.1929 -0.0619
 4028TIP3    H133643   5.504   6.644   7.796  0.4535 -0.9284 -0.3477
 4028TIP3    H233644   5.364   6.592   7.822 -0.3396  1.2588 -0.0336
 4029TIP3   OH233645   5.028   2.352   0.315 -0.1831  0.2290 -0.0088
 4029TIP3    H133646   5.052   2.333   0.224  0.6329  0.4858  0.1493
 4029TIP3    H233647   5.038   2.447   0.323  2.9446 -0.0861  1.2159
 4030TIP3   OH233648   2.860   6.562   6.852 -0.0048  0.2382 -0.4360
 4030TIP3    H133649   2.769   6.551   6.826 -0.0063 -4.2425  0.5546
 4030TIP3    H233650   2.856   6.576   6.947  0.3285 -0.0285 -0.3819
 4031TIP3   OH233651   4.412   2.918   0.450 -0.3538 -0.1543  0.5953
 4031TIP3    H133652   4.360   2.928   0.529 -0.8340  0.1618  0.2473
 4031TIP3    H233653   4.500   2.948   0.474 -0.7814  1.0693  0.6898
 4032TIP3   OH233654   1.549   0.078   5.301  0.5905  0.2410  0.4783
 4032TIP3    H133655   1.543   0.087   5.396  1.8643 -0.8778  0.7039
 4032TIP3    H233656   1.635   0.039   5.286  0.0655 -0.4069 -1.0848
 4033TIP3   OH233657   2.320   3.016   6.590 -0.6777  0.4370 -0.0782
 4033TIP3    H133658   2.389   2.959   6.556  0.4755  1.3479  0.6444
 4033TIP3    H233659   2.262   3.033   6.515  0.3902  0.3879 -0.9307
 4034TIP3   OH233660   5.504   4.509   6.216  0.0184 -0.4271 -0.5388
 4034TIP3    H133661   5.591   4.481   6.244 -0.0986 -0.7285 -0.4784
 4034TIP3    H233662   5.508   4.508   6.120  0.7624  1.6378 -0.5784
 4035TIP3   OH233663   1.479   0.041   1.276 -0.3709  0.0616  0.4512
 4035TIP3    H133664   1.435  -0.019   1.215 -0.5545  1.8056 -1.2501
 4035TIP3    H233665   1.511  -0.015   1.346 -2.0132 -1.7736 -0.1787
 4036TIP3   OH233666   2.532   2.942   7.667 -0.0635  0.0646  0.7381
 4036TIP3    H133667   2.563   2.916   7.580 -0.5885 -0.8096  0.8056
 4036TIP3    H233668   2.446   2.981   7.651  0.3079  0.9082  0.7498
 4037TIP3   OH233669   1.966   0.766   0.261 -0.1800 -0.7596  0.3262
 4037TIP3    H133670   2.002   0.798   0.179  2.8088 -0.3517  1.6555
 4037TIP3    H233671   1.953   0.672   0.246  3.2015 -1.3374  0.1556
 4038TIP3   OH233672   1.101   3.051   2.026 -0.0200  0.2332  0.4578
 4038TIP3    H133673   1.083   3.081   2.115  0.8876  0.2913  0.6388
 4038TIP3    H233674   1.164   2.979   2.038 -2.9844 -2.6268  0.1435
 4039TIP3   OH233675   1.097   2.285   7.651 -0.0157  1.1449 -0.2349
 4039TIP3    H133676   1.077   2.213   7.711  3.1527 -0.8993 -1.3448
 4039TIP3    H233677   1.076   2.250   7.564  0.4712  1.9666 -0.6968
 4040TIP3   OH233678   6.228   0.922   1.201  0.4502 -0.1468  0.0992
 4040TIP3    H133679   6.249   0.922   1.108  0.6316 -1.9428  0.0967
 4040TIP3    H233680   6.167   0.849   1.211 -1.7482  1.7132  0.9642
 4041TIP3   OH233681   7.009   5.320   7.100 -0.2882  0.3200 -0.1572
 4041TIP3    H133682   7.084   5.276   7.141  0.3692  1.1146 -0.4923
 4041TIP3    H233683   6.997   5.274   7.017 -0.0832  0.2833 -0.1667
 4042TIP3   OH233684   1.616   6.887   7.221  0.0740  0.4017 -0.4279
 4042TIP3    H133685   1.575   6.951   7.162 -0.4744  1.1531  0.7278
 4042TIP3    H233686   1.703   6.873   7.184  1.1004  3.5772  0.4659
 4043TIP3   OH233687   4.701   6.293   6.968  0.1154  0.4829  0.2198
 4043TIP3    H133688   4.633   6.360   6.965 -0.4687 -0.0188  1.4921
 4043TIP3    H233689   4.758   6.320   7.040 -0.0361 -0.2935  0.6404
 4044TIP3   OH233690   4.494   4.995   7.720 -0.2931  0.0909  0.6768
 4044TIP3    H133691   4.558   5.066   7.714 -0.3999  0.0862 -1.0768
 4044TIP3    H233692   4.409   5.039   7.724 -0.2640  0.0754  2.0410
 4045TIP3   OH233693   2.756   4.288   0.315 -0.5520 -0.5918 -0.0839
 4045TIP3    H133694   2.805   4.281   0.234 -0.4553  0.8679 -0.1608
 4045TIP3    H233695   2.797   4.359   0.364 -1.9115 -0.0371  0.3116
 4046TIP3   OH233696   5.320   5.612   0.573 -0.5098 -0.2759  0.3839
 4046TIP3    H133697   5.353   5.694   0.610 -0.9952 -0.1458  0.5365
 4046TIP3    H233698   5.232   5.602   0.611 -0.8511 -0.3580 -0.4058
 4047TIP3   OH233699   1.445   2.339   1.802  0.1841  0.0472  0.0090
 4047TIP3    H133700   1.510   2.376   1.742 -0.7558  2.0018  0.1029
 4047TIP3    H233701   1.496   2.300   1.872  1.2552  0.0636 -0.7363
 4048TIP3   OH233702   2.115   3.981   0.686  0.7177  0.0619  0.1854
 4048TIP3    H133703   2.042   3.937   0.643  1.3291  0.1235 -0.9554
 4048TIP3    H233704   2.188   3.919   0.680  0.8433  0.1111  1.0592
 4049TIP3   OH233705   2.903   1.328   7.016  0.1730 -0.5742  0.1348
 4049TIP3    H133706   2.820   1.297   7.052 -0.1315  0.6998  0.5490
 4049TIP3    H233707   2.884   1.344   6.924 -0.3344  0.7101  0.4505
 4050TIP3   OH233708   4.952   0.880   7.088  0.0874 -0.3569 -0.7166
 4050TIP3    H133709   4.999   0.799   7.106 -0.1709 -0.9003 -2.2994
 4050TIP3    H233710   4.892   0.858   7.017 -0.0035  1.2117 -1.1667
 4051TIP3   OH233711   3.033   1.126   5.975  0.1831  0.6195 -0.1304
 4051TIP3    H133712   2.960   1.136   5.914 -1.1214 -2.2686  0.7863
 4051TIP3    H233713   3.111   1.140   5.921 -0.9611 -0.3388 -2.1543
 4052TIP3   OH233714   0.908   0.184   7.169  0.5354  0.0079  0.2550
 4052TIP3    H133715   0.836   0.179   7.105  1.2831  0.7054 -0.6735
 4052TIP3    H233716   0.866   0.215   7.249 -0.3954 -0.6707  0.0539
 4053TIP3   OH233717   4.453   4.333   1.152  0.3084 -0.7053 -0.3036
 4053TIP3    H133718   4.360   4.313   1.143  0.4006 -2.1285  1.3398
 4053TIP3    H233719   4.498   4.253   1.125  1.0153 -0.3647 -0.1707
 4054TIP3   OH233720   2.858   4.561   0.464 -0.5736 -0.3498  0.0281
 4054TIP3    H133721   2.765   4.564   0.487 -0.5739  0.9495 -0.0616
 4054TIP3    H233722   2.879   4.651   0.439  0.3456 -0.9428 -1.4175
 4055TIP3   OH233723   0.215   4.527   6.103 -0.2561 -0.4964  0.2304
 4055TIP3    H133724   0.150   4.480   6.050  0.5290  0.2427 -1.4848
 4055TIP3    H233725   0.294   4.529   6.047  0.5460  0.5211  1.3546
 4056TIP3   OH233726   7.073   2.799   7.123  0.0233  0.5988 -0.6965
 4056TIP3    H133727   7.028   2.801   7.039 -1.6950 -1.8355  0.0574
 4056TIP3    H233728   7.006   2.823   7.187  0.0553 -1.7306  0.3189
 4057TIP3   OH233729   2.327   2.068   7.909  0.1637  0.4082  0.5672
 4057TIP3    H133730   2.240   2.029   7.898 -0.1072  1.1990 -0.2172
 4057TIP3    H233731   2.312   2.147   7.960  0.4941  0.2900  0.8508
 4058TIP3   OH233732   2.676   3.666   1.272 -0.1767 -0.0244  0.0807
 4058TIP3    H133733   2.643   3.726   1.339 -2.3798 -1.1721  0.0912
 4058TIP3    H233734   2.770   3.684   1.269  0.0390  0.1047  3.4652
 4059TIP3   OH233735   3.607   2.423   0.384  0.8845  0.0804 -0.2084
 4059TIP3    H133736   3.688   2.470   0.405 -0.3812  1.8477  0.9386
 4059TIP3    H233737   3.587   2.373   0.464  0.2827  0.4918 -0.0983
 4060TIP3   OH233738   1.546   6.578   1.968 -0.1618  0.2457  0.0202
 4060TIP3    H133739   1.507   6.565   2.055  1.5039  0.4264  0.8324
 4060TIP3    H233740   1.580   6.492   1.944 -0.9483  0.1095 -0.6407
 4061TIP3   OH233741   2.648   0.522   2.232 -0.2809 -0.0656  0.0798
 4061TIP3    H133742   2.559   0.534   2.200 -0.7854 -0.6078  1.2376
 4061TIP3    H233743   2.703   0.569   2.168 -1.4893  1.4802  0.1248
 4062TIP3   OH233744   1.829   1.031   6.379  0.6346  0.2867 -0.1336
 4062TIP3    H133745   1.750   1.044   6.328  0.3846  0.1246  0.2064
 4062TIP3    H233746   1.899   1.027   6.315 -0.0235 -3.4366 -0.8387
 4063TIP3   OH233747   3.292   3.826   0.107  0.2882 -0.0366  0.1533
 4063TIP3    H133748   3.388   3.833   0.106  0.2989 -0.1858 -0.7456
 4063TIP3    H233749   3.264   3.866   0.025 -0.3154 -1.3678 -0.3216
 4064TIP3   OH233750   5.129   5.777   6.730  0.7409  0.3777 -0.0156
 4064TIP3    H133751   5.061   5.746   6.671  1.0044  0.2417 -0.2522
 4064TIP3    H233752   5.186   5.701   6.743  1.5857  0.8477 -0.8677
 4065TIP3   OH233753   7.111   4.195   0.408 -0.4695 -0.0487  0.7207
 4065TIP3    H133754   7.050   4.132   0.445  0.6712 -0.9015  1.2019
 4065TIP3    H233755   7.127   4.258   0.479 -1.4605  0.7141  0.3013
 4066TIP3   OH233756   5.226   3.239   1.315 -0.3078 -0.4247 -0.1647
 4066TIP3    H133757   5.314   3.201   1.307  0.9622  1.7565  2.1985
 4066TIP3    H233758   5.215   3.289   1.234 -0.6801 -2.9846 -1.8232
 4067TIP3   OH233759   3.840   3.856   6.565 -0.0541  0.1013 -0.2067
 4067TIP3    H133760   3.809   3.936   6.524  0.7594  0.9361  0.7661
 4067TIP3    H233761   3.761   3.806   6.584 -0.6975  1.4111  0.6837
 4068TIP3   OH233762   6.476   2.045   7.524 -0.0000 -0.2175  0.2941
 4068TIP3    H133763   6.500   2.111   7.589 -0.2374 -0.1233  0.2883
 4068TIP3    H233764   6.484   2.090   7.440  2.0129 -0.8286  0.1002
 4069TIP3   OH233765   3.857   3.393   6.361  0.2632 -0.5399  0.4743
 4069TIP3    H133766   3.882   3.462   6.300 -0.9745 -0.3664  0.1246
 4069TIP3    H233767   3.912   3.408   6.438  0.2128  0.6806  0.2990
 4070TIP3   OH233768   4.772   4.447   0.127  0.4301  0.1042  0.5426
 4070TIP3    H133769   4.788   4.353   0.126 -0.9114 -0.1506 -0.2741
 4070TIP3    H233770   4.732   4.465   0.041 -1.5046  0.9887  1.5659
 4071TIP3   OH233771   3.671   3.689   7.385 -0.7509 -0.1588  0.6458
 4071TIP3    H133772   3.707   3.617   7.438  1.0564 -0.1094 -0.4171
 4071TIP3    H233773   3.702   3.768   7.429 -0.0302 -0.1067  0.0701
 4072TIP3   OH233774   4.307   0.424   5.603 -0.0105  0.2140  0.0058
 4072TIP3    H133775   4.280   0.393   5.689  0.9106  0.7340  0.5066
 4072TIP3    H233776   4.400   0.445   5.614  0.4405 -0.8912 -1.4508
 4073TIP3   OH233777   0.402   5.368   7.128  0.5366 -0.2915  0.4474
 4073TIP3    H133778   0.495   5.373   7.104  0.5627 -0.5267  0.4988
 4073TIP3    H233779   0.369   5.457   7.116  0.4470 -0.4898 -0.8709
 4074TIP3   OH233780   2.241   5.024   1.000 -0.2133  0.2278 -0.6921
 4074TIP3    H133781   2.325   5.066   1.022  0.3495 -1.5244  0.7174
 4074TIP3    H233782   2.241   4.942   1.049 -1.7443 -0.9357 -2.4726
 4075TIP3   OH233783   3.395   2.189   7.304  0.8698 -0.7070  0.1758
 4075TIP3    H133784   3.483   2.220   7.326  1.2692 -0.4980 -1.5859
 4075TIP3    H233785   3.409   2.126   7.233 -0.4906  0.6300 -1.3645
 4076TIP3   OH233786   1.581   4.608   7.976  0.2112 -0.0396  0.5345
 4076TIP3    H133787   1.670   4.640   7.960  0.5525 -0.4843  1.4707
 4076TIP3    H233788   1.580   4.520   7.938 -0.3047  0.5184 -0.8081
 4077TIP3   OH233789   3.958   2.131   6.729  0.1200  0.1384  0.1094
 4077TIP3    H133790   3.923   2.059   6.782  0.7711 -0.2815 -0.0180
 4077TIP3    H233791   3.892   2.145   6.661 -0.8004  0.7890  1.1111
 4078TIP3   OH233792   3.819   0.442   0.747 -0.1556  0.1854  0.1363
 4078TIP3    H133793   3.773   0.410   0.824 -2.7452  1.6733 -0.6859
 4078TIP3    H233794   3.849   0.529   0.771  1.1811 -0.2760  0.2281
 4079TIP3   OH233795   6.592   3.304   5.940  0.0290 -0.1338 -0.3108
 4079TIP3    H133796   6.502   3.284   5.913  0.1212  1.2968 -1.8661
 4079TIP3    H233797   6.583   3.352   6.022 -0.7541  1.1360 -1.1010
 4080TIP3   OH233798   2.407   2.016   0.947  0.3582 -0.7546 -0.0160
 4080TIP3    H133799   2.465   1.988   1.017  0.2645 -1.5786 -0.2618
 4080TIP3    H233800   2.387   2.108   0.968  1.8763 -0.4017 -0.0292
 4081TIP3   OH233801   1.757   1.442   8.007 -0.0614 -0.1911 -0.3588
 4081TIP3    H133802   1.782   1.350   8.012 -2.1526 -0.8289 -0.4749
 4081TIP3    H233803   1.820   1.488   8.061  0.1309 -1.9026  0.9397
 4082TIP3   OH233804   1.142   5.737   7.186  0.1632  0.0477  0.6540
 4082TIP3    H133805   1.124   5.659   7.133 -2.6692 -0.2874  1.9177
 4082TIP3    H233806   1.236   5.732   7.205  0.2404 -2.5902 -0.0224
 4083TIP3   OH233807   0.737   6.069   7.690  0.2356  0.0341  0.2690
 4083TIP3    H133808   0.730   6.163   7.704 -0.5198 -0.2261  2.0202
 4083TIP3    H233809   0.809   6.042   7.749  0.1826 -0.5289  0.0793
 4084TIP3   OH233810   5.762   0.428   7.433  0.0231 -0.4637  0.5612
 4084TIP3    H133811   5.681   0.386   7.461 -0.2380 -1.0765 -0.9714
 4084TIP3    H233812   5.826   0.405   7.500 -0.7428 -1.1671  1.0648
 4085TIP3   OH233813   2.217   7.144   1.101 -0.1911 -0.2493  0.7140
 4085TIP3    H133814   2.133   7.173   1.065  0.2246  1.6997  1.1787
 4085TIP3    H233815   2.270   7.124   1.025 -0.3943  0.6332  0.3258
 4086TIP3   OH233816   3.305   1.680   6.185  0.0574  0.0402 -0.1943
 4086TIP3    H133817   3.251   1.653   6.259  1.2037 -0.2311  0.5695
 4086TIP3    H233818   3.308   1.776   6.191  0.3074  0.0063  0.2288
 4087TIP3   OH233819   1.035   5.679   2.312 -0.0933 -0.2998 -0.4118
 4087TIP3    H133820   0.958   5.658   2.364 -0.9418  1.4610 -0.9188
 4087TIP3    H233821   1.001   5.705   2.226  1.1936 -1.4468 -1.3354
 4088TIP3   OH233822   4.279   3.361   1.364  0.1067  0.2669  0.0631
 4088TIP3    H133823   4.290   3.266   1.363  0.5476  0.3200 -1.0488
 4088TIP3    H233824   4.185   3.373   1.382 -0.5302 -0.4583 -2.4313
 4089TIP3   OH233825   6.784   5.262   5.597  0.1632 -0.0711 -0.1475
 4089TIP3    H133826   6.715   5.310   5.552 -0.9332 -1.0656  0.4091
 4089TIP3    H233827   6.806   5.316   5.673 -0.3355  0.0478 -0.0874
 4090TIP3   OH233828   6.121   4.594   6.654  0.4041 -0.6711  0.0469
 4090TIP3    H133829   6.071   4.608   6.573  0.4675  2.0931  0.3936
 4090TIP3    H233830   6.081   4.517   6.693 -0.3758 -1.4086 -2.0532
 4091TIP3   OH233831   4.852   5.986   0.423 -0.3524 -0.5239  0.0777
 4091TIP3    H133832   4.899   5.971   0.341  1.8588  1.5615  0.8268
 4091TIP3    H233833   4.861   5.904   0.471  0.9719 -0.7897 -0.5742
 4092TIP3   OH233834   0.189   4.798   6.267  0.1636  0.1245 -0.6660
 4092TIP3    H133835   0.110   4.848   6.246 -1.4064 -2.0357 -0.2339
 4092TIP3    H233836   0.188   4.724   6.207  2.2448  0.3499 -1.0622
 4093TIP3   OH233837   6.220   6.379   7.005  0.1020 -0.2629 -0.1051
 4093TIP3    H133838   6.300   6.431   6.993  0.4522 -0.4620  1.2738
 4093TIP3    H233839   6.167   6.400   6.928  2.2039 -1.5211 -2.0216
 4094TIP3   OH233840   3.967   3.974   1.188  0.0269 -0.4324  0.1881
 4094TIP3    H133841   4.023   3.950   1.262  1.2868 -2.2721 -1.2682
 4094TIP3    H233842   3.963   4.070   1.191  0.7806 -0.4209  2.0863
 4095TIP3   OH233843   4.490   3.636   6.959  0.3374 -0.4529 -0.6173
 4095TIP3    H133844   4.467   3.720   6.999  1.0031 -1.0160  1.0046
 4095TIP3    H233845   4.431   3.629   6.884 -2.1135 -0.0818  1.1524
 4096TIP3   OH233846   1.821   0.459   6.149 -0.1284  0.4804 -0.3983
 4096TIP3    H133847   1.727   0.447   6.136  0.2109 -1.5399 -1.4308
 4096TIP3    H233848   1.852   0.497   6.067  0.3344 -1.6625 -1.2960
 4097TIP3   OH233849   3.988   3.992   0.342  0.2345 -0.2216  0.1029
 4097TIP3    H133850   3.981   3.896   0.338  1.9698 -0.3643 -0.6448
 4097TIP3    H233851   3.902   4.021   0.373 -0.7081 -1.9401 -0.7159
 4098TIP3   OH233852   6.751   0.875   0.059  0.0628 -0.2886 -0.0077
 4098TIP3    H133853   6.747   0.873  -0.037 -1.9077  4.0705 -0.2633
 4098TIP3    H233854   6.666   0.840   0.086  0.8586 -2.1022  0.2644
 4099TIP3   OH233855   1.680   3.211   6.550 -0.2600 -0.4457 -0.0793
 4099TIP3    H133856   1.689   3.306   6.557  0.1480 -0.4268 -0.7587
 4099TIP3    H233857   1.623   3.197   6.474  1.4005 -0.7685 -1.3311
 4100TIP3   OH233858   0.495   4.819   7.101  0.0163 -0.0511  0.1347
 4100TIP3    H133859   0.409   4.784   7.125  0.1569 -2.1662 -2.0896
 4100TIP3    H233860   0.476   4.904   7.061 -1.0518 -0.4275 -0.1910
 4101TIP3   OH233861   3.334   3.353   0.225 -0.2256  0.6836 -0.1429
 4101TIP3    H133862   3.286   3.382   0.303  1.4090  0.5958  0.9416
 4101TIP3    H233863   3.426   3.371   0.245  0.4054 -0.9352 -1.3580
 4102TIP3   OH233864   2.532   4.130   0.731 -0.3491 -0.0192 -0.3440
 4102TIP3    H133865   2.515   4.224   0.739  0.5340  0.1126  0.1399
 4102TIP3    H233866   2.447   4.092   0.708 -0.4011  1.0786 -2.1013
 4103TIP3   OH233867   2.413   3.723   1.455 -0.2784  0.5367  0.0584
 4103TIP3    H133868   2.350   3.750   1.522 -1.0408  2.0759 -1.2012
 4103TIP3    H233869   2.469   3.799   1.442 -0.7926  0.6609 -1.7342
 4104TIP3   OH233870   3.763   0.984   7.341  0.3756  0.0976 -0.2083
 4104TIP3    H133871   3.815   0.974   7.260  0.9315 -0.2756  0.1882
 4104TIP3    H233872   3.713   0.902   7.347 -0.1684  0.4007 -0.5171
 4105TIP3   OH233873   5.405   5.019   0.473 -0.3350  0.7285  0.4434
 4105TIP3    H133874   5.372   5.105   0.500 -1.1272  0.9070 -0.9950
 4105TIP3    H233875   5.439   4.981   0.553  0.8167  2.7187  0.9662
 4106TIP3   OH233876   4.383   1.093   7.413  0.6754 -0.5916 -0.6583
 4106TIP3    H133877   4.356   1.176   7.451  0.6779 -1.7146  2.0452
 4106TIP3    H233878   4.433   1.117   7.336 -0.2893  1.8488 -0.6191
 4107TIP3   OH233879   6.091   6.929   0.556  0.0784 -1.0278 -0.1238
 4107TIP3    H133880   6.045   7.013   0.561  0.2633 -0.8714 -0.8504
 4107TIP3    H233881   6.079   6.889   0.642  0.2205 -0.1394  0.3166
 4108TIP3   OH233882   0.863   1.346   7.030 -0.1768 -0.1226 -0.6497
 4108TIP3    H133883   0.937   1.307   7.076  1.0429  0.8484 -1.6925
 4108TIP3    H233884   0.824   1.407   7.092  1.3491  1.0547 -0.8082
 4109TIP3   OH233885   4.233   0.657   6.779 -0.2633  0.4787  0.4073
 4109TIP3    H133886   4.233   0.753   6.772  4.0876  0.5231 -2.9455
 4109TIP3    H233887   4.202   0.627   6.693 -1.0856 -1.1577  1.2377
 4110TIP3   OH233888   4.085   1.600   7.426 -0.3793 -0.3715  0.0747
 4110TIP3    H133889   4.132   1.648   7.495  2.4111 -2.1232 -0.4356
 4110TIP3    H233890   4.115   1.641   7.344  1.7204 -2.5340 -0.3406
 4111TIP3   OH233891   5.748   2.099   1.891 -0.2681  0.3012 -0.1325
 4111TIP3    H133892   5.774   2.188   1.915  0.2005  0.0384  0.3705
 4111TIP3    H233893   5.653   2.098   1.901 -0.2236  0.6009  0.3843
 4112TIP3   OH233894   5.509   5.441   7.262 -0.0091  0.4157  0.5290
 4112TIP3    H133895   5.446   5.371   7.281  2.3173 -2.2690 -0.9962
 4112TIP3    H233896   5.562   5.448   7.342  0.3892 -0.3254  0.3406
 4113TIP3   OH233897   3.080   4.599   6.853  0.8210 -0.7246  0.1826
 4113TIP3    H133898   3.157   4.628   6.804  0.6493  0.5454  0.6149
 4113TIP3    H233899   3.047   4.679   6.895 -0.6596 -1.2617  0.1119
 4114TIP3   OH233900   2.988   5.147   6.126 -0.2992 -0.1366 -0.6001
 4114TIP3    H133901   2.952   5.133   6.039  1.5710  0.0273 -1.4376
 4114TIP3    H233902   3.060   5.084   6.133 -1.2011 -1.0668  1.3463
 4115TIP3   OH233903   0.817   7.148   0.675 -0.0665 -0.5753  0.5840
 4115TIP3    H133904   0.901   7.144   0.629  0.2737 -1.9633  1.2627
 4115TIP3    H233905   0.830   7.214   0.742 -0.3085  0.8985 -0.7575
 4116TIP3   OH233906   4.415   4.453   0.075 -0.1992 -0.1030 -0.0623
 4116TIP3    H133907   4.357   4.451  -0.002 -0.8256 -0.7002  0.4155
 4116TIP3    H233908   4.491   4.504   0.046 -1.2235  1.2255 -0.5145
 4117TIP3   OH233909   2.536   2.439   5.902  0.2025  0.3324  0.0324
 4117TIP3    H133910   2.539   2.533   5.886 -0.1789  0.1642 -1.1304
 4117TIP3    H233911   2.612   2.404   5.855 -0.5533 -0.1084 -0.8907
 4118TIP3   OH233912   2.631   3.470   7.475  0.5693 -0.1872 -0.9482
 4118TIP3    H133913   2.609   3.424   7.556 -3.3474  0.0193 -1.6917
 4118TIP3    H233914   2.608   3.561   7.493  1.4760  0.2114 -1.7409
 4119TIP3   OH233915   2.872   0.762   0.425 -0.2382  0.3826 -0.0209
 4119TIP3    H133916   2.933   0.818   0.472  1.2039 -1.0868 -0.0395
 4119TIP3    H233917   2.899   0.767   0.334  0.0340 -0.4557  0.0015
 4120TIP3   OH233918   0.998   5.764   0.937 -0.9680  0.6776 -0.1302
 4120TIP3    H133919   0.983   5.769   1.031 -0.9108  2.0184 -0.1708
 4120TIP3    H233920   1.092   5.777   0.926 -0.8860 -0.0580 -0.3446
 4121TIP3   OH233921   6.824   3.714   0.065 -0.0471  0.4970 -0.1014
 4121TIP3    H133922   6.775   3.674   0.136 -1.3454 -1.5787 -2.0631
 4121TIP3    H233923   6.822   3.808   0.085  0.5015 -0.0605  3.0578
 4122TIP3   OH233924   4.095   6.879   7.617 -0.1976 -0.6313  0.1936
 4122TIP3    H133925   4.119   6.824   7.691  0.4209 -1.0023 -0.2808
 4122TIP3    H233926   4.164   6.945   7.612  1.7042 -2.6011 -2.1168
 4123TIP3   OH233927   2.065   2.377   1.400 -0.0671  0.4920  0.9935
 4123TIP3    H133928   2.158   2.360   1.415  0.2062  1.4791  0.5433
 4123TIP3    H233929   2.053   2.469   1.426 -0.7033  0.6608  0.1578
 4124TIP3   OH233930   3.068   5.619   6.652 -0.5146 -0.3635 -0.2546
 4124TIP3    H133931   3.078   5.703   6.695  0.1565 -0.7241  0.3126
 4124TIP3    H233932   3.007   5.636   6.580 -1.8583  0.1975  0.9648
 4125TIP3   OH233933   7.023   3.763   6.833  0.3704  0.6564 -0.0504
 4125TIP3    H133934   7.029   3.802   6.745 -3.1310  1.5847 -0.0056
 4125TIP3    H233935   7.009   3.837   6.892  0.6825 -0.1332  1.0476
 4126TIP3   OH233936   6.334   5.982   7.257  0.6184 -0.1915  0.0886
 4126TIP3    H133937   6.358   5.895   7.226  0.9087  0.7425 -2.6183
 4126TIP3    H233938   6.242   5.975   7.283 -0.2590 -0.7248 -2.8557
 4127TIP3   OH233939   5.295   1.533   0.483 -0.1307 -0.1827  0.6828
 4127TIP3    H133940   5.250   1.554   0.401 -2.1086 -1.9772  1.2135
 4127TIP3    H233941   5.379   1.495   0.455 -0.7940 -0.8283 -0.5234
 4128TIP3   OH233942   6.809   3.986   0.045  0.0287 -0.0291  0.1490
 4128TIP3    H133943   6.876   4.054   0.041 -1.7178  2.4167  4.6691
 4128TIP3    H233944   6.728   4.032   0.023 -0.9768 -1.0683  1.4946
 4129TIP3   OH233945   3.463   5.576   0.109  0.2789  0.7397 -0.1083
 4129TIP3    H133946   3.545   5.602   0.152  0.8528  0.6284 -1.0851
 4129TIP3    H233947   3.399   5.572   0.179  1.6110 -1.4104  1.1287
 4130TIP3   OH233948   0.109   2.587   7.872 -0.3100  0.1785 -0.4413
 4130TIP3    H133949   0.053   2.625   7.805  0.0984  1.5552 -0.0361
 4130TIP3    H233950   0.115   2.655   7.939  0.5815 -0.5527  0.2376
 4131TIP3   OH233951   4.475   1.290   0.989  0.2165 -0.2061 -0.0622
 4131TIP3    H133952   4.537   1.338   0.934 -0.4035 -0.5040 -1.0456
 4131TIP3    H233953   4.466   1.205   0.946 -0.4863 -0.3478  0.3578
 4132TIP3   OH233954   6.322   0.345   7.533 -0.0927 -0.0901 -0.0674
 4132TIP3    H133955   6.246   0.289   7.548  1.2084 -1.7287  0.6459
 4132TIP3    H233956   6.286   0.424   7.493 -2.2327 -0.5770  0.8063
 4133TIP3   OH233957   5.660   2.196   6.112  0.3853  0.4964  0.0133
 4133TIP3    H133958   5.681   2.264   6.049  2.4359  0.5444  0.6687
 4133TIP3    H233959   5.731   2.133   6.104 -1.2844 -1.4737 -0.3568
 4134TIP3   OH233960   3.747   0.493   6.261  0.0763  0.1004  0.3540
 4134TIP3    H133961   3.799   0.435   6.317  1.0566  0.9054  0.3093
 4134TIP3    H233962   3.706   0.554   6.322 -0.2597 -0.1025  0.3313
 4135TIP3   OH233963   2.478   3.868   7.933  0.5513 -0.5623 -0.6831
 4135TIP3    H133964   2.402   3.813   7.915  0.2130  0.2425 -1.9468
 4135TIP3    H233965   2.446   3.933   7.996  0.3244 -0.5388 -0.8191
 4136TIP3   OH233966   6.192   0.649   6.961  0.5686 -0.1541  0.4653
 4136TIP3    H133967   6.216   0.620   7.049  1.1970 -0.3485  0.2404
 4136TIP3    H233968   6.246   0.726   6.945  1.3322 -0.8023 -0.1864
 4137TIP3   OH233969   4.276   1.347   7.558  0.0647 -0.1632  0.1935
 4137TIP3    H133970   4.187   1.315   7.546 -0.4599  1.0327  0.6803
 4137TIP3    H233971   4.280   1.374   7.650  1.6262 -2.1806  0.7930
 4138TIP3   OH233972   3.687   0.891   7.056  0.1788 -0.2241  0.2066
 4138TIP3    H133973   3.655   0.827   6.992 -1.3771 -0.0592  0.7800
 4138TIP3    H233974   3.617   0.957   7.061  1.0275  0.6608  0.8355
 4139TIP3   OH233975   1.060   1.827   0.175  0.0802  0.0610  0.3180
 4139TIP3    H133976   1.039   1.868   0.091 -0.9481 -3.5783 -1.3855
 4139TIP3    H233977   0.995   1.861   0.236  0.8679  2.8012 -0.2482
 4140TIP3   OH233978   3.101   3.497   1.285 -0.7110  0.2536  0.1451
 4140TIP3    H133979   3.160   3.422   1.289 -0.3496  0.4842 -0.5920
 4140TIP3    H233980   3.153   3.566   1.244 -1.0753  0.8743  0.7118
 4141TIP3   OH233981   7.088   6.347   0.045  0.1970  0.3951 -0.5000
 4141TIP3    H133982   7.080   6.403   0.122  0.9288 -1.9591  1.4360
 4141TIP3    H233983   7.182   6.335   0.034  0.0948  0.6468 -1.7652
 4142TIP3   OH233984   2.628   0.810   7.183 -0.5333 -0.5134 -0.9092
 4142TIP3    H133985   2.652   0.726   7.223 -1.5770 -0.9427 -1.1587
 4142TIP3    H233986   2.573   0.853   7.248 -2.0187 -1.1000 -1.7325
 4143TIP3   OH233987   2.451   2.231   1.581  0.3076 -0.0934  0.3037
 4143TIP3    H133988   2.528   2.268   1.537  0.2494  0.0325  0.3098
 4143TIP3    H233989   2.442   2.282   1.661 -1.1722  1.4568 -0.7794
 4144TIP3   OH233990   5.425   5.975   1.758  0.0996  0.5821 -0.5930
 4144TIP3    H133991   5.351   5.915   1.748 -0.1176  0.8617 -0.6767
 4144TIP3    H233992   5.399   6.053   1.708  0.3590  0.7645 -0.4431
 4145TIP3   OH233993   3.612   1.470   1.147 -0.2071 -0.1947  0.1247
 4145TIP3    H133994   3.659   1.491   1.228 -0.6247  3.1382 -0.3748
 4145TIP3    H233995   3.679   1.430   1.091  0.5832 -0.6703  1.3592
 4146TIP3   OH233996   4.198   5.162   0.310  0.0473 -0.5551 -0.0211
 4146TIP3    H133997   4.241   5.244   0.335 -0.1318  0.0945 -1.7297
 4146TIP3    H233998   4.175   5.121   0.394  1.1192  0.6003  0.8842
 4147TIP3   OH233999   6.407   0.476   0.963  0.3114  0.3153 -0.4321
 4147TIP3    H134000   6.314   0.455   0.957  0.5621 -0.5892 -1.5718
 4147TIP3    H234001   6.429   0.512   0.877  0.8060  1.4909  0.1654
 4148TIP3   OH234002   2.015   2.233   7.601 -0.0132 -0.0957  0.0829
 4148TIP3    H134003   1.997   2.145   7.634 -1.0605  0.7260  1.8592
 4148TIP3    H234004   1.933   2.261   7.562 -0.5978  1.0895  2.0257
 4149TIP3   OH234005   2.024   4.965   1.499  0.1815 -0.1955 -0.0872
 4149TIP3    H134006   1.930   4.976   1.487  0.1131  0.3952  0.8823
 4149TIP3    H234007   2.037   4.870   1.501  0.2251 -0.5170 -4.5519
 4150TIP3   OH234008   0.692   1.579   1.972 -0.2708 -0.6054  0.2276
 4150TIP3    H134009   0.597   1.571   1.982 -0.4007 -1.9372 -1.4842
 4150TIP3    H234010   0.706   1.570   1.877  1.7139 -2.6818  0.6355
 4151TIP3   OH234011   3.944   0.207   0.446  0.1770  0.0490 -0.7145
 4151TIP3    H134012   4.013   0.272   0.428  0.6385  0.1912  1.3307
 4151TIP3    H234013   3.992   0.128   0.471 -0.4025 -0.4227 -1.0894
 4152TIP3   OH234014   6.265   0.127   0.686  0.2717 -0.1512 -0.0042
 4152TIP3    H134015   6.232   0.160   0.603 -1.4091 -0.4790  0.4881
 4152TIP3    H234016   6.350   0.170   0.698  0.5869 -0.1773 -1.9124
 4153TIP3   OH234017   1.189   3.248   6.635  0.1037  0.3415 -0.3006
 4153TIP3    H134018   1.226   3.314   6.693  0.2419 -1.1321  1.3787
 4153TIP3    H234019   1.231   3.166   6.661 -0.4068 -0.5091 -1.9835
 4154TIP3   OH234020   0.749   1.411   5.920  0.2084  0.1177  0.5556
 4154TIP3    H134021   0.657   1.409   5.944 -0.2279 -1.1318 -0.9981
 4154TIP3    H234022   0.769   1.321   5.892  1.2905  0.8226 -1.1469
 4155TIP3   OH234023   1.108   5.799   0.499 -0.1496 -0.6102  0.0650
 4155TIP3    H134024   1.158   5.865   0.546 -1.1257 -0.1816  0.5245
 4155TIP3    H234025   1.167   5.723   0.494  0.3661 -0.2815  1.0046
 4156TIP3   OH234026   7.042   2.475   6.496 -0.1587 -0.3231 -0.8389
 4156TIP3    H134027   6.998   2.449   6.415 -2.5848 -2.4495  1.0219
 4156TIP3    H234028   7.072   2.393   6.535  1.5268  0.7107  0.1965
 4157TIP3   OH234029   4.958   5.586   6.550  0.2660  0.1944 -0.1144
 4157TIP3    H134030   4.980   5.554   6.462  1.2080  1.4272 -0.3581
 4157TIP3    H234031   4.865   5.609   6.544  0.4955  0.9792 -1.0472
 4158TIP3   OH234032   1.500   5.248   2.072 -0.0639  0.5190 -0.1011
 4158TIP3    H134033   1.573   5.233   2.133 -0.7804  1.5902  1.0947
 4158TIP3    H234034   1.519   5.192   1.997  1.6451  0.2755  0.4579
 4159TIP3   OH234035   0.472   1.984   0.116  0.2239 -0.0169  0.4332
 4159TIP3    H134036   0.525   2.059   0.141  2.1078 -1.2304  0.2843
 4159TIP3    H234037   0.535   1.913   0.103 -1.3267 -1.2301 -0.9768
 4160TIP3   OH234038   0.671   1.142   6.945  0.3589 -0.7732  0.1437
 4160TIP3    H134039   0.651   1.127   6.853 -0.2161  0.1640  0.0948
 4160TIP3    H234040   0.758   1.183   6.944 -0.0776  0.1882 -0.0811
 4161TIP3   OH234041   5.381   2.334   1.918 -0.1112 -0.2402 -0.0644
 4161TIP3    H134042   5.321   2.349   1.991  0.1785 -0.8512  0.3144
 4161TIP3    H234043   5.410   2.243   1.930  0.6914 -0.0366 -0.3772
 4162TIP3   OH234044   0.008   2.577   1.322 -0.1137  0.2459  0.5100
 4162TIP3    H134045   0.014   2.637   1.397  0.6323  0.8944 -0.0382
 4162TIP3    H234046   0.003   2.490   1.361 -0.6420  0.6216  1.3209
 4163TIP3   OH234047   2.540   1.876   0.778  0.2282  0.0743 -0.3541
 4163TIP3    H134048   2.618   1.914   0.819  0.1214  0.3614 -0.4191
 4163TIP3    H234049   2.469   1.898   0.838 -0.0366  1.0604 -1.0128
 4164TIP3   OH234050   1.116   4.723   1.242  0.6808  0.0100 -0.1996
 4164TIP3    H134051   1.151   4.710   1.154 -0.0941  1.8806 -0.8488
 4164TIP3    H234052   1.157   4.803   1.273 -1.0514  0.8753  0.0144
 4165TIP3   OH234053   2.838   4.016   1.186 -0.7436  0.2831  0.5349
 4165TIP3    H134054   2.749   3.983   1.174 -0.4078  0.0788 -2.0421
 4165TIP3    H234055   2.893   3.938   1.181 -0.3709  0.4904  1.3625
 4166TIP3   OH234056   5.825   2.363   0.577 -0.1472  0.7758 -0.7620
 4166TIP3    H134057   5.860   2.368   0.666  0.3623  1.6884 -0.9958
 4166TIP3    H234058   5.763   2.436   0.572  1.0515  1.7663 -1.6558
 4167TIP3   OH234059   3.896   5.773   1.516 -0.4662  0.1906  0.4909
 4167TIP3    H134060   3.817   5.762   1.569 -1.9102  1.4556 -1.2644
 4167TIP3    H234061   3.876   5.726   1.434  0.8116  0.1282  0.2008
 4168TIP3   OH234062   3.065   1.178   0.352 -0.3613 -1.1571  0.6921
 4168TIP3    H134063   2.996   1.217   0.299  0.5084 -1.2821 -0.5704
 4168TIP3    H234064   3.138   1.239   0.344  0.1847 -1.8035  0.7493
 4169TIP3   OH234065   5.471   5.617   7.059  0.5872 -0.2533  0.5261
 4169TIP3    H134066   5.475   5.560   7.135 -0.7100 -1.7828 -0.4827
 4169TIP3    H234067   5.550   5.596   7.009  1.9141  1.3976  1.8041
 4170TIP3   OH234068   4.594   4.673   6.601 -0.0838 -0.0667  0.4179
 4170TIP3    H134069   4.512   4.627   6.617 -0.1615 -0.4776 -1.0197
 4170TIP3    H234070   4.618   4.648   6.512  1.4062  0.3532  0.6800
 4171TIP3   OH234071   3.674   2.814   7.345 -0.3039 -0.7049 -0.0949
 4171TIP3    H134072   3.752   2.869   7.341 -1.8492  1.5992 -0.6949
 4171TIP3    H234073   3.707   2.725   7.361  2.3269  0.3361  0.6721
 4172TIP3   OH234074   6.987   3.077   1.771  0.2103  0.3658  0.0605
 4172TIP3    H134075   6.906   3.119   1.743 -0.8935 -0.4863  1.7921
 4172TIP3    H234076   6.992   3.095   1.865  0.1444 -2.5168  0.7137
 4173TIP3   OH234077   4.940   2.542   0.592  0.2757 -0.2317 -0.0547
 4173TIP3    H134078   4.945   2.560   0.498 -0.4849  0.5506  0.0474
 4173TIP3    H234079   4.942   2.628   0.633  3.0151 -0.6125  0.7957
 4174TIP3   OH234080   4.878   5.849   7.081 -0.4139  0.1727  0.0247
 4174TIP3    H134081   4.822   5.924   7.061 -0.2977  0.1618 -0.3453
 4174TIP3    H234082   4.839   5.810   7.160  1.7389  2.9194  2.7042
 4175TIP3   OH234083   2.854   3.444   6.825 -0.1541 -0.1908  0.3118
 4175TIP3    H134084   2.914   3.500   6.875 -1.2408  0.5082  0.8671
 4175TIP3    H234085   2.790   3.504   6.789 -1.7318 -1.1022  1.4665
 4176TIP3   OH234086   2.142   6.596   6.650  0.0186  0.2070  0.0526
 4176TIP3    H134087   2.210   6.562   6.593 -0.4736 -1.0516  0.1802
 4176TIP3    H234088   2.189   6.645   6.718  0.8429 -1.0846  0.4370
 4177TIP3   OH234089   4.100   5.761   7.300 -0.1573  0.1062 -0.1406
 4177TIP3    H134090   4.090   5.686   7.242  0.9151 -0.4342  0.3499
 4177TIP3    H234091   4.195   5.771   7.310 -0.3042  0.1117  1.5973
 4178TIP3   OH234092   5.407   0.949   5.950  0.4302 -0.5748  0.0849
 4178TIP3    H134093   5.492   0.948   5.993  0.1150 -2.1181  0.7370
 4178TIP3    H234094   5.425   0.922   5.860  0.5878 -1.2525  0.3181
 4179TIP3   OH234095   4.740   5.063   1.281 -0.4344 -0.3831 -0.3253
 4179TIP3    H134096   4.777   5.137   1.328  2.0365 -2.1177  0.7022
 4179TIP3    H234097   4.648   5.060   1.307 -0.1016  1.1190  1.1649
 4180TIP3   OH234098   6.093   1.941   6.683  0.4499 -0.1855 -0.0354
 4180TIP3    H134099   6.029   1.884   6.725 -0.0467 -0.3979 -1.0507
 4180TIP3    H234100   6.175   1.920   6.727 -0.0939 -0.1883  1.0176
 4181TIP3   OH234101   1.774   0.016   0.023  0.2841 -0.9785  0.7910
 4181TIP3    H134102   1.693   0.013  -0.029  0.2994 -1.4530  0.7932
 4181TIP3    H234103   1.838  -0.030  -0.030  0.7746  0.0849  0.4279
 4182TIP3   OH234104   5.033   6.359   1.632  0.3300 -0.5809 -0.0962
 4182TIP3    H134105   4.963   6.324   1.576 -0.2875  0.1371  0.2094
 4182TIP3    H234106   5.103   6.382   1.571 -0.7540  1.2214 -0.7642
 4183TIP3   OH234107   4.609   3.958   6.695 -0.0121  0.2930  0.1912
 4183TIP3    H134108   4.549   3.914   6.635 -1.0301  2.0578 -0.1583
 4183TIP3    H234109   4.561   4.035   6.725  1.2905  0.6083  1.6061
 4184TIP3   OH234110   6.755   0.252   7.809  0.6604 -0.3200 -0.1274
 4184TIP3    H134111   6.844   0.236   7.841  0.3550 -2.3527 -0.1413
 4184TIP3    H234112   6.720   0.318   7.869  1.2190 -1.6255  1.7245
 4185TIP3   OH234113   3.604   0.085   7.449 -0.0237  0.0746 -0.1930
 4185TIP3    H134114   3.684   0.033   7.457 -0.0123 -0.0815 -1.1336
 4185TIP3    H234115   3.539   0.023   7.416 -0.3166  0.3836 -0.2028
 4186TIP3   OH234116   3.757   3.915   7.528 -0.7522  0.0320 -0.4485
 4186TIP3    H134117   3.815   3.946   7.457 -1.3556 -0.6587 -1.2695
 4186TIP3    H234118   3.816   3.903   7.603  0.1156 -0.2836 -1.1548
 4187TIP3   OH234119   5.437   4.320   0.884  0.4306 -0.5584 -0.1317
 4187TIP3    H134120   5.395   4.247   0.929 -1.7563  0.4272 -0.4634
 4187TIP3    H234121   5.448   4.387   0.952  0.5497 -0.4439 -0.2639
 4188TIP3   OH234122   6.709   6.892   7.943 -0.0477 -0.3319 -0.1233
 4188TIP3    H134123   6.795   6.934   7.940 -0.2248  0.0246 -0.3244
 4188TIP3    H234124   6.672   6.907   7.856 -0.5927  0.1237  0.1774
 4189TIP3   OH234125   0.565   2.853   7.891 -0.3894  0.2691 -0.2193
 4189TIP3    H134126   0.548   2.875   7.799 -0.9787  0.2903 -0.1063
 4189TIP3    H234127   0.661   2.845   7.896 -0.2305  1.7325 -0.5043
 4190TIP3   OH234128   2.528   4.445   0.052 -0.2085 -0.4254  0.0360
 4190TIP3    H134129   2.598   4.508   0.071  0.0811 -0.7317 -0.0074
 4190TIP3    H234130   2.564   4.360   0.079 -0.9284 -0.4594  0.9501
 4191TIP3   OH234131   4.024   0.982   7.189  0.4973  0.2708  0.4255
 4191TIP3    H134132   4.096   0.984   7.127 -0.5258 -0.3284 -0.8356
 4191TIP3    H234133   3.972   0.906   7.163 -0.6967  0.7983  1.1662
 4192TIP3   OH234134   4.832   6.246   0.550  0.9415  0.2773  0.0068
 4192TIP3    H134135   4.853   6.269   0.640 -0.4140  2.0838 -0.0850
 4192TIP3    H234136   4.820   6.151   0.551  1.2846  0.2284  1.6334
 4193TIP3   OH234137   4.051   0.047   6.334 -0.0670 -0.2894 -0.0434
 4193TIP3    H134138   3.976   0.077   6.386  0.0337 -1.8544  1.0695
 4193TIP3    H234139   4.123   0.041   6.397  1.2942  1.9929 -1.2368
 4194TIP3   OH234140   4.931   4.948   0.484  0.2944  0.0459 -0.3326
 4194TIP3    H134141   4.842   4.928   0.456  0.0319  1.9287 -0.9872
 4194TIP3    H234142   4.977   4.864   0.479 -1.0444 -0.6649 -1.5438
 4195TIP3   OH234143   5.337   2.455   1.329  0.8147 -0.3977 -0.0609
 4195TIP3    H134144   5.259   2.412   1.295  0.1323 -0.2464  1.2370
 4195TIP3    H234145   5.305   2.538   1.364  1.6480 -0.1006  0.0067
 4196TIP3   OH234146   4.558   0.399   0.177  0.0010 -0.1123 -0.6361
 4196TIP3    H134147   4.564   0.304   0.172  1.2633 -0.0990  0.2861
 4196TIP3    H234148   4.647   0.428   0.196 -0.3981  1.2456 -0.7521
 4197TIP3   OH234149   5.196   2.718   1.964  0.2239 -0.2914  0.5981
 4197TIP3    H134150   5.112   2.729   2.007 -1.2974  0.3365 -2.2365
 4197TIP3    H234151   5.235   2.805   1.966  0.2340 -0.3004  0.8271
 4198TIP3   OH234152   6.220   0.621   0.624  0.0444  0.1388  0.2752
 4198TIP3    H134153   6.198   0.547   0.680 -0.9500 -0.3496 -0.7356
 4198TIP3    H234154   6.315   0.619   0.618  0.0055 -1.4528 -0.2457
 4199TIP3   OH234155   5.007   3.883   5.622 -0.2727 -0.4114 -0.0201
 4199TIP3    H134156   4.944   3.954   5.613 -0.3081 -0.6880 -2.7892
 4199TIP3    H234157   5.077   3.905   5.561 -1.5061 -3.8773 -3.0211
 4200TIP3   OH234158   5.505   0.298   2.221 -0.3227 -0.1859  0.4247
 4200TIP3    H134159   5.557   0.321   2.143 -0.4367 -0.2573  0.3274
 4200TIP3    H234160   5.456   0.377   2.241  0.5612  0.2066  1.1075
 4201TIP3   OH234161   2.168   2.296   5.796 -1.4898 -0.1084  0.6358
 4201TIP3    H134162   2.104   2.279   5.727 -0.7798  1.9531 -0.6565
 4201TIP3    H234163   2.156   2.389   5.817  3.0025  1.4373 -2.0534
 4202TIP3   OH234164   4.021   3.296   0.173 -0.3518 -0.2193  0.9084
 4202TIP3    H134165   4.030   3.206   0.203  1.8729 -0.4366 -0.1555
 4202TIP3    H234166   4.068   3.348   0.238 -0.6545  0.0297  0.9292
 4203TIP3   OH234167   2.925   5.361   2.049 -0.0524  0.6339 -0.0834
 4203TIP3    H134168   3.005   5.383   2.001 -0.6180 -0.1017 -1.4244
 4203TIP3    H234169   2.938   5.271   2.079 -0.1997  0.6684  0.0900
 4204TIP3   OH234170   1.688   1.342   1.891 -0.4678 -0.3971 -0.9767
 4204TIP3    H134171   1.656   1.284   1.960  0.7327 -1.2430 -1.0977
 4204TIP3    H234172   1.781   1.352   1.909 -0.1373 -0.5976 -2.4417
 4205TIP3   OH234173   6.092   1.192   1.394 -0.7944  0.0372 -0.1455
 4205TIP3    H134174   6.108   1.284   1.416 -0.6714  0.3291 -1.4052
 4205TIP3    H234175   6.174   1.162   1.355 -1.3181 -0.1733 -1.1089
 4206TIP3   OH234176   4.458   1.901   7.014 -0.1542  0.2303 -0.1218
 4206TIP3    H134177   4.366   1.909   6.991 -0.1373 -0.1177 -0.3158
 4206TIP3    H234178   4.474   1.807   7.021  0.4960  0.2190 -1.3880
 4207TIP3   OH234179   4.118   1.354   7.275 -0.3557  0.1480 -0.3566
 4207TIP3    H134180   4.026   1.336   7.254 -0.8034  2.1946 -0.3274
 4207TIP3    H234181   4.115   1.423   7.341  1.2093 -0.0268 -0.0567
 4208TIP3   OH234182   3.984   0.397   0.113 -0.0911  0.0870 -0.0936
 4208TIP3    H134183   4.059   0.348   0.148 -0.0161  1.0108  1.1151
 4208TIP3    H234184   3.966   0.357   0.028  0.4539 -1.5133  0.5099
 4209TIP3   OH234185   1.208   6.208   6.826  0.1043 -0.2104 -0.2689
 4209TIP3    H134186   1.176   6.259   6.901  0.2958  0.7104 -0.7862
 4209TIP3    H234187   1.180   6.119   6.843  0.8907 -0.1955  1.3303
 4210TIP3   OH234188   1.634   5.140   7.109  0.1086  0.1520  0.6486
 4210TIP3    H134189   1.678   5.159   7.026 -0.2471 -0.4562  0.3126
 4210TIP3    H234190   1.698   5.163   7.176  0.0697  1.5220  0.2432
 4211TIP3   OH234191   0.039   6.794   6.512 -0.3693  0.2784  0.2109
 4211TIP3    H134192   0.061   6.862   6.448  1.5976  0.7375  1.2955
 4211TIP3    H234193   0.120   6.744   6.523 -0.3585  0.7201  2.9024
 4212TIP3   OH234194   0.739   0.679   1.209  0.6317 -0.5353 -0.1023
 4212TIP3    H134195   0.826   0.643   1.224  0.4672 -1.0963 -0.4853
 4212TIP3    H234196   0.747   0.730   1.128  0.1278 -2.2974 -1.3321
 4213TIP3   OH234197   2.428   6.702   0.884 -0.1912 -0.4606  0.4626
 4213TIP3    H134198   2.440   6.739   0.796  2.2921  2.3475  1.8136
 4213TIP3    H234199   2.513   6.662   0.905  0.6682  2.2919  2.9000
 4214TIP3   OH234200   6.985   3.349   6.217 -0.4431 -0.1643 -0.0501
 4214TIP3    H134201   6.927   3.281   6.252  0.5255 -2.6874 -2.8997
 4214TIP3    H234202   6.958   3.358   6.125 -0.1614  3.0296  0.0677
 4215TIP3   OH234203   4.871   4.866   1.654 -0.4073 -0.2175 -0.1202
 4215TIP3    H134204   4.843   4.798   1.592 -1.4939  0.1996 -0.1194
 4215TIP3    H234205   4.792   4.885   1.706 -0.4685  1.8540 -0.8745
 4216TIP3   OH234206   6.611   3.596   7.217  0.1143 -0.2020 -0.6100
 4216TIP3    H134207   6.667   3.593   7.294 -0.3481  0.4533 -0.2346
 4216TIP3    H234208   6.614   3.508   7.181  0.8922 -0.3318 -0.2441
 4217TIP3   OH234209   5.141   6.855   0.320  0.1103 -0.4853 -0.8820
 4217TIP3    H134210   5.096   6.858   0.405  0.2086  0.0107 -0.8464
 4217TIP3    H234211   5.183   6.769   0.318  1.6492  0.2098  0.3561
 4218TIP3   OH234212   0.818   1.259   7.844  0.0911 -0.1997  0.2528
 4218TIP3    H134213   0.766   1.251   7.924 -0.3190 -0.9637 -0.0750
 4218TIP3    H234214   0.762   1.222   7.775  0.8410 -0.5122 -0.2001
 4219TIP3   OH234215   2.966   6.750   1.778  0.3246  0.3814 -0.0275
 4219TIP3    H134216   2.924   6.827   1.741  0.8096 -0.3428 -2.2302
 4219TIP3    H234217   3.050   6.745   1.733  0.9604 -0.5935  1.2022
 4220TIP3   OH234218   4.832   5.109   6.900  0.1565  0.5425 -0.8703
 4220TIP3    H134219   4.755   5.058   6.923 -0.2795  1.6573  0.2514
 4220TIP3    H234220   4.896   5.044   6.869 -1.3716 -0.3488 -2.2888
 4221TIP3   OH234221   5.088   2.828   1.184 -0.1831  0.3258 -0.2666
 4221TIP3    H134222   5.161   2.777   1.151 -0.3687 -0.3816  0.3998
 4221TIP3    H234223   5.052   2.776   1.257  0.8693  2.2959  1.7866
 4222TIP3   OH234224   4.789   4.631   1.508 -0.5527  0.5883  0.4976
 4222TIP3    H134225   4.760   4.583   1.430  0.8842  0.6893 -0.1172
 4222TIP3    H234226   4.839   4.566   1.558  1.4960  1.4101 -0.3902
 4223TIP3   OH234227   7.061   7.143   7.063  0.1908 -0.1883 -0.6197
 4223TIP3    H134228   7.024   7.210   7.006  0.6351  0.8757  0.3178
 4223TIP3    H234229   7.012   7.063   7.041 -0.2401  0.3901 -1.8552
 4224TIP3   OH234230   7.152   5.369   1.526  0.2182  0.2276 -0.4780
 4224TIP3    H134231   7.133   5.356   1.619  1.4482  1.7096  0.0379
 4224TIP3    H234232   7.227   5.429   1.526  0.0534  0.4869 -2.4402
 4225TIP3   OH234233   5.006   2.651   1.679 -0.0801 -0.9582  0.3731
 4225TIP3    H134234   4.978   2.653   1.771 -1.0764 -1.2887  0.0893
 4225TIP3    H234235   5.075   2.585   1.677  1.2243  0.3133  1.2075
 4226TIP3   OH234236   6.595   3.123   7.257  0.6198  0.9210 -0.1735
 4226TIP3    H134237   6.589   3.031   7.232 -1.4129  1.2893 -1.2748
 4226TIP3    H234238   6.541   3.128   7.337  0.7347  1.1600 -0.1123
 4227TIP3   OH234239   6.124   0.614   7.536  0.3422  0.2464 -0.0552
 4227TIP3    H134240   6.190   0.631   7.469  1.2926 -2.9460 -0.1160
 4227TIP3    H234241   6.044   0.652   7.501  1.1956  0.2690 -2.1735
 4228TIP3   OH234242   5.915   3.511   5.822 -0.2008 -0.0751 -0.0259
 4228TIP3    H134243   5.994   3.459   5.834 -0.0957  0.0210 -0.2985
 4228TIP3    H234244   5.946   3.597   5.794 -0.3968 -0.0096 -0.0472
 4229TIP3   OH234245   2.999   0.736   0.744  0.5463  0.5815  0.1967
 4229TIP3    H134246   2.971   0.824   0.719  0.3451  0.6086  0.5146
 4229TIP3    H234247   2.931   0.705   0.804  0.9562  0.4612  0.6021
 4230TIP3   OH234248   5.281   4.530   0.386 -0.1522  0.3982  0.1357
 4230TIP3    H134249   5.315   4.477   0.315  2.4493 -0.1383  1.6272
 4230TIP3    H234250   5.295   4.477   0.465 -2.0790  1.3196  1.1778
 4231TIP3   OH234251   0.428   5.587   0.722 -0.6352 -0.0394 -0.1186
 4231TIP3    H134252   0.485   5.529   0.672 -0.0279  0.4226  0.0298
 4231TIP3    H234253   0.487   5.646   0.769 -1.2239  0.3019  0.2174
 4232TIP3   OH234254   3.840   0.335   7.623  0.6803 -0.6145  0.6599
 4232TIP3    H134255   3.852   0.406   7.560  0.5920 -1.1083  0.0799
 4232TIP3    H234256   3.746   0.317   7.622  0.5037  0.1241  1.7719
 4233TIP3   OH234257   1.572   3.293   7.282 -0.1359 -0.0909 -0.4868
 4233TIP3    H134258   1.565   3.206   7.322  0.7646  0.1429  0.2194
 4233TIP3    H234259   1.527   3.351   7.342  2.1996  0.4430  0.8686
 4234TIP3   OH234260   2.144   2.510   0.920  0.3502  0.3854  0.2039
 4234TIP3    H134261   2.172   2.503   1.011  2.4623 -1.1810 -0.4668
 4234TIP3    H234262   2.132   2.419   0.892 -0.0987  0.8278 -1.1337
 4235TIP3   OH234263   0.403   0.668   7.814  0.3609  0.2071 -0.0449
 4235TIP3    H134264   0.490   0.694   7.783 -0.1709  0.6385 -1.2408
 4235TIP3    H234265   0.349   0.669   7.735 -0.8008  0.2504  0.7400
 4236TIP3   OH234266   1.526   6.797   1.123 -0.1021 -0.2369 -0.1018
 4236TIP3    H134267   1.513   6.702   1.118  0.3312 -0.3491  0.7139
 4236TIP3    H234268   1.598   6.808   1.185 -0.6305  0.6547  0.3844
 4237TIP3   OH234269   2.927   7.017   6.634 -0.0005 -0.1354 -0.0235
 4237TIP3    H134270   2.863   7.057   6.575  0.6153  0.3227 -0.3994
 4237TIP3    H234271   3.012   7.049   6.601  0.3665 -0.0842  0.9509
 4238TIP3   OH234272   3.624   5.805   2.029 -0.1709  0.5669 -0.1692
 4238TIP3    H134273   3.661   5.722   1.999 -1.0635 -0.4912  1.4889
 4238TIP3    H234274   3.532   5.801   2.003 -0.5833  0.3271  1.2870
 4239TIP3   OH234275   0.316   3.832   0.087  0.1421 -0.1757  0.5817
 4239TIP3    H134276   0.309   3.859   0.179 -0.2781 -0.0313  0.5056
 4239TIP3    H234277   0.341   3.911   0.040  2.2212 -0.6191  0.8135
 4240TIP3   OH234278   0.855   3.896   6.071 -0.1761  0.5270  0.2220
 4240TIP3    H134279   0.873   3.986   6.044  1.9401  0.1285  0.0801
 4240TIP3    H234280   0.808   3.857   5.997 -0.6139  1.3484  0.0584
 4241TIP3   OH234281   4.012   2.854   1.257 -0.2598  0.5866  0.5458
 4241TIP3    H134282   4.076   2.812   1.315  0.3661  0.3758 -0.2907
 4241TIP3    H234283   3.938   2.874   1.315  0.1309 -0.1095  1.3123
 4242TIP3   OH234284   6.364   3.882   0.009  0.2444 -0.5281  0.2437
 4242TIP3    H134285   6.413   3.858  -0.070  0.9341  1.6806 -0.0719
 4242TIP3    H234286   6.390   3.816   0.073 -0.2064 -2.2863 -1.2862
 4243TIP3   OH234287   6.284   5.221   1.031 -0.4964 -0.1273  0.3563
 4243TIP3    H134288   6.374   5.253   1.039 -0.9139  0.8072  1.8979
 4243TIP3    H234289   6.232   5.300   1.015 -1.0618 -0.6436 -0.3830
 4244TIP3   OH234290   7.148   3.637   0.124 -0.5757 -0.3480  0.2770
 4244TIP3    H134291   7.121   3.728   0.135  0.8964  0.0512  0.8279
 4244TIP3    H234292   7.074   3.586   0.157 -1.0789  0.6663  0.7740
 4245TIP3   OH234293   7.079   6.592   0.828 -0.5222 -0.0366 -0.0447
 4245TIP3    H134294   7.004   6.575   0.884 -1.3814  1.0709 -0.7884
 4245TIP3    H234295   7.065   6.537   0.751 -1.1921  0.9706 -0.6740
 4246TIP3   OH234296   5.438   3.022   1.554  0.7403 -0.3898 -0.4169
 4246TIP3    H134297   5.528   3.031   1.584  1.1045 -2.3988 -0.7330
 4246TIP3    H234298   5.441   3.038   1.460  0.8887 -0.9547 -0.5156
 4247TIP3   OH234299   1.178   5.556   1.128 -0.5671  0.0516  0.1528
 4247TIP3    H134300   1.112   5.572   1.195 -1.6193  0.8022 -0.9994
 4247TIP3    H234301   1.139   5.490   1.071  0.7454 -1.3587  0.8196
 4248TIP3   OH234302   6.967   5.611   7.181  0.3167 -0.3182 -0.1175
 4248TIP3    H134303   6.979   5.524   7.143 -2.0521 -0.4287 -0.7354
 4248TIP3    H234304   7.036   5.664   7.140  1.6157 -1.7857  0.0465
 4249TIP3   OH234305   1.132   6.900   6.461  0.4985  0.4611 -0.6231
 4249TIP3    H134306   1.071   6.973   6.469 -1.2704 -1.0711  0.7820
 4249TIP3    H234307   1.219   6.940   6.466 -0.3556  2.6044 -1.6700
 4250TIP3   OH234308   6.548   0.117   0.682 -0.0362 -0.0197  0.4787
 4250TIP3    H134309   6.622   0.174   0.702 -0.6648  1.2750 -0.6865
 4250TIP3    H234310   6.529   0.073   0.764 -0.4505  2.5633  1.8797
 4251TIP3   OH234311   6.697   4.698   2.071 -0.4799  0.1418 -0.0332
 4251TIP3    H134312   6.774   4.697   2.013  0.7365  0.0098  1.5159
 4251TIP3    H234313   6.656   4.783   2.054 -0.4299 -0.0767 -1.3983
 4252TIP3   OH234314   3.655   1.773   0.188 -0.6063 -1.1714 -0.2579
 4252TIP3    H134315   3.678   1.700   0.131 -0.1406 -1.2354  0.0037
 4252TIP3    H234316   3.581   1.741   0.239  1.5317 -2.7160  2.1679
 4253TIP3   OH234317   4.351   4.315   6.601 -0.0977  0.2251 -0.1522
 4253TIP3    H134318   4.269   4.284   6.638  0.6904 -0.2152  1.2915
 4253TIP3    H234319   4.372   4.252   6.532 -0.0764 -0.7040  0.6861
 4254TIP3   OH234320   4.630   5.443   7.796 -0.1594  0.0685  0.7198
 4254TIP3    H134321   4.698   5.449   7.863 -0.0934 -0.0767  0.6657
 4254TIP3    H234322   4.548   5.460   7.844 -0.0533  0.6237  0.7136
 4255TIP3   OH234323   3.463   6.072   6.894 -0.6853 -0.0469  0.0530
 4255TIP3    H134324   3.557   6.083   6.882 -0.4561 -0.4250  1.3095
 4255TIP3    H234325   3.423   6.135   6.834  0.3663  0.1797 -0.4277
 4256TIP3   OH234326   1.218   1.566   7.272 -0.4767  0.1894 -0.1249
 4256TIP3    H134327   1.202   1.613   7.190 -1.8964 -0.3185 -0.1657
 4256TIP3    H234328   1.151   1.599   7.332  1.2438  1.3995  1.2284
 4257TIP3   OH234329   3.674   4.266   1.504 -0.4373  0.5383 -1.3181
 4257TIP3    H134330   3.691   4.283   1.597 -2.2241 -0.1716 -0.8198
 4257TIP3    H234331   3.626   4.343   1.473 -1.6735 -0.1033 -1.0763
 4258TIP3   OH234332   6.676   0.111   6.781  0.3298 -1.0420 -0.2075
 4258TIP3    H134333   6.606   0.170   6.810  1.8161 -0.2705  2.1494
 4258TIP3    H234334   6.733   0.166   6.727 -0.0828 -1.2831 -0.9035
 4259TIP3   OH234335   3.797   2.603   7.004 -0.4767 -0.0650 -0.7772
 4259TIP3    H134336   3.715   2.555   7.016 -1.2331  0.5613 -2.9791
 4259TIP3    H234337   3.771   2.686   6.963  1.2773  0.0520 -1.7626
 4260TIP3   OH234338   4.812   3.862   1.262 -0.3895  0.1738 -0.1669
 4260TIP3    H134339   4.872   3.934   1.247 -1.2727  0.6027 -2.0022
 4260TIP3    H234340   4.811   3.850   1.357  0.7927  1.6797  0.0698
 4261TIP3   OH234341   4.486   6.535   1.091  0.3570  0.8072 -0.0630
 4261TIP3    H134342   4.407   6.565   1.136 -0.3859 -1.1526  0.0560
 4261TIP3    H234343   4.473   6.562   1.000 -0.7795 -0.0474 -0.1743
 4262TIP3   OH234344   4.998   2.052   7.291  0.2481 -0.1206  0.1432
 4262TIP3    H134345   5.067   2.027   7.352  0.2233 -1.6789 -0.4153
 4262TIP3    H234346   4.934   1.980   7.297 -0.3798  0.3453 -0.7695
 4263TIP3   OH234347   5.207   2.333   2.124 -0.1196 -0.2786 -0.0360
 4263TIP3    H134348   5.188   2.256   2.177  0.0419  0.2324  0.7858
 4263TIP3    H234349   5.135   2.393   2.142 -0.4135 -0.3453 -0.9175
 4264TIP3   OH234350   6.788   1.128   1.924  0.5234 -0.4512  0.1627
 4264TIP3    H134351   6.748   1.194   1.982  1.3737  0.7678 -0.6057
 4264TIP3    H234352   6.759   1.153   1.837  0.6422 -1.2668 -0.1106
 4265TIP3   OH234353   0.112   1.352   0.750 -0.0261  0.2630  0.3712
 4265TIP3    H134354   0.087   1.260   0.747 -2.7077  0.6760  3.7347
 4265TIP3    H234355   0.145   1.371   0.662  1.1405 -3.9637 -0.3003
 4266TIP3   OH234356   3.196   5.049   7.020  0.2743  0.2776 -0.0968
 4266TIP3    H134357   3.108   5.053   7.056  0.6613 -1.4482  1.1735
 4266TIP3    H234358   3.185   5.069   6.927 -1.3933  0.4520  0.1070
 4267TIP3   OH234359   3.152   2.475   0.666 -0.6355 -0.1418  0.0523
 4267TIP3    H134360   3.094   2.518   0.728 -0.9229  2.1323 -1.6844
 4267TIP3    H234361   3.230   2.453   0.717 -0.9433  1.4661  1.2728
 4268TIP3   OH234362   0.011   1.734   6.318  0.0165 -0.0242 -0.1295
 4268TIP3    H134363  -0.045   1.806   6.290 -0.7062 -0.6004 -0.1790
 4268TIP3    H234364   0.098   1.758   6.285 -0.3940  0.3675 -0.9763
 4269TIP3   OH234365   5.773   1.895   6.231  0.2426 -0.4245 -0.0793
 4269TIP3    H134366   5.855   1.900   6.181 -0.2104  0.5103 -0.7638
 4269TIP3    H234367   5.710   1.857   6.169 -0.1326  0.0083  0.0279
 4270TIP3   OH234368   3.367   2.874   1.517  0.4760  0.0150 -0.5587
 4270TIP3    H134369   3.410   2.828   1.445 -0.2240 -1.9689  0.2400
 4270TIP3    H234370   3.291   2.917   1.476  0.0567 -1.1309 -1.0122
 4271TIP3   OH234371   6.789   6.574   0.694  0.3057  0.4803  0.1271
 4271TIP3    H134372   6.725   6.537   0.755 -1.1460  1.7005 -0.5902
 4271TIP3    H234373   6.790   6.513   0.620 -1.2760  1.2384 -0.5716
 4272TIP3   OH234374   2.232   5.204   1.941 -0.4251  0.3979  0.4282
 4272TIP3    H134375   2.172   5.188   2.014 -1.3578  0.1754 -0.3762
 4272TIP3    H234376   2.198   5.150   1.869 -0.3070  1.6482 -0.5974
 4273TIP3   OH234377   5.771   4.867   7.604  0.1061 -0.5909  0.0013
 4273TIP3    H134378   5.834   4.887   7.535 -0.8261  0.0865 -0.6816
 4273TIP3    H234379   5.822   4.871   7.685  1.2865 -1.7383 -0.6513
 4274TIP3   OH234380   5.188   5.327   0.671 -0.1620  0.3436 -0.1436
 4274TIP3    H134381   5.175   5.266   0.599  0.0046 -0.6049  0.6183
 4274TIP3    H234382   5.278   5.359   0.660 -0.0627  0.0357 -0.2333
 4275TIP3   OH234383   3.779   0.573   0.169 -0.2514 -0.4652 -0.1789
 4275TIP3    H134384   3.691   0.537   0.184  0.3808 -1.7562  0.6370
 4275TIP3    H234385   3.830   0.498   0.139  0.4066  0.4393 -1.4228
 4276TIP3   OH234386   1.274   2.378   0.844  0.4485  0.1396 -0.1689
 4276TIP3    H134387   1.301   2.307   0.787 -0.5624  1.0215 -1.8528
 4276TIP3    H234388   1.189   2.351   0.878  1.0175 -0.3532  0.9075
 4277TIP3   OH234389   5.295   5.414   6.435  0.5337  0.1003  0.0810
 4277TIP3    H134390   5.201   5.417   6.419  0.4841  0.5760  0.4154
 4277TIP3    H234391   5.322   5.506   6.437  0.6483  0.0651  1.9321
 4278TIP3   OH234392   4.248   1.539   7.049  0.1911  0.2769  0.0198
 4278TIP3    H134393   4.272   1.447   7.041 -0.1833  0.0472  1.3753
 4278TIP3    H234394   4.185   1.554   6.979 -0.5234 -0.7711  0.4280
 4279TIP3   OH234395   0.800   1.076   0.625 -0.2304  0.7318  0.2665
 4279TIP3    H134396   0.782   1.001   0.568 -1.2460  0.4107  0.9728
 4279TIP3    H234397   0.772   1.152   0.574  1.3449  0.7220 -0.6837
 4280TIP3   OH234398   5.347   7.014   1.250 -0.3100  0.9592  0.2659
 4280TIP3    H134399   5.304   6.929   1.247  1.7866 -0.1491 -0.5818
 4280TIP3    H234400   5.278   7.076   1.227 -1.4826 -0.7080 -1.0313
 4281TIP3   OH234401   2.033   4.473   7.620 -0.2793  0.0567  0.1385
 4281TIP3    H134402   2.097   4.541   7.641 -1.4709  1.1770  0.2430
 4281TIP3    H234403   2.048   4.454   7.528  0.5738 -0.1118  0.3003
 4282TIP3   OH234404   1.654   3.906   0.877 -0.0813  0.0198  0.0777
 4282TIP3    H134405   1.740   3.941   0.896 -0.1936  0.3867 -0.0970
 4282TIP3    H234406   1.599   3.982   0.862 -0.3240 -0.2249 -0.3027
 4283TIP3   OH234407   6.236   0.949   6.563  0.1872 -0.5488  0.2919
 4283TIP3    H134408   6.204   0.869   6.520 -1.5076  1.3771 -2.3406
 4283TIP3    H234409   6.305   0.981   6.504 -1.3830  1.5655 -0.4906
 4284TIP3   OH234410   3.805   6.908   7.296 -0.0539 -0.0066 -0.4875
 4284TIP3    H134411   3.779   6.924   7.387 -0.3252 -1.1577 -0.3379
 4284TIP3    H234412   3.793   6.992   7.252 -2.2731 -0.0059 -0.0018
 4285TIP3   OH234413   0.288   3.695   0.429 -0.4154  0.5244  0.3571
 4285TIP3    H134414   0.226   3.633   0.466 -0.1081  0.5187  0.8908
 4285TIP3    H234415   0.340   3.724   0.505  0.3329  0.4020 -0.0975
 4286TIP3   OH234416   5.980   3.928   6.060  0.1870 -0.1988  0.3176
 4286TIP3    H134417   6.017   3.840   6.067  0.5710  0.0000  0.8401
 4286TIP3    H234418   5.914   3.921   5.991 -0.7801 -1.2504  1.3084
 4287TIP3   OH234419   1.262   3.898   6.262 -0.0329  0.0231  0.0116
 4287TIP3    H134420   1.167   3.905   6.267  0.0657  0.8382  1.3525
 4287TIP3    H234421   1.279   3.856   6.178 -1.4284  2.5553 -1.6588
 4288TIP3   OH234422   1.349   2.250   6.645 -0.1391  0.0160 -0.0370
 4288TIP3    H134423   1.333   2.196   6.567 -0.0478  0.1338 -0.1379
 4288TIP3    H234424   1.367   2.187   6.714 -2.0664 -0.1687  0.3321
 4289TIP3   OH234425   3.903   6.387   1.939 -0.6396  0.4054  0.4171
 4289TIP3    H134426   3.928   6.368   2.030  1.4469  1.7760  0.1970
 4289TIP3    H234427   3.857   6.471   1.944  0.8690  1.2813  0.0707
 4290TIP3   OH234428   0.611   0.321   7.744 -0.0970 -0.0263 -0.0447
 4290TIP3    H134429   0.694   0.367   7.728 -0.1769  0.3153  0.4911
 4290TIP3    H234430   0.634   0.246   7.798 -0.0789 -0.1848 -0.2683
 4291TIP3   OH234431   6.953   4.826   6.490  0.2699  0.4241 -0.2369
 4291TIP3    H134432   7.022   4.893   6.490 -0.3125  1.0416 -0.2553
 4291TIP3    H234433   6.951   4.794   6.580 -0.4335  1.4922  0.1435
 4292TIP3   OH234434   6.650   0.157   7.573  0.4443  0.0695 -0.1382
 4292TIP3    H134435   6.720   0.140   7.510  0.1357 -3.6126  0.3162
 4292TIP3    H234436   6.693   0.204   7.645  2.2277 -1.1829 -0.3365
 4293TIP3   OH234437   4.146   6.008   7.487  0.1777  0.5997 -0.4198
 4293TIP3    H134438   4.176   5.978   7.402 -1.4708 -0.4168 -0.6931
 4293TIP3    H234439   4.205   5.966   7.550  0.3726  0.0151 -0.9871
 4294TIP3   OH234440   6.086   1.528   0.693 -0.5590  0.5274  0.0658
 4294TIP3    H134441   6.096   1.470   0.769 -0.4702 -2.0937 -1.8415
 4294TIP3    H234442   5.995   1.558   0.698 -0.2560  1.3385  1.7615
 4295TIP3   OH234443   1.026   0.127   0.523  0.7049 -0.1606 -0.4369
 4295TIP3    H134444   1.041   0.172   0.439  1.5930  1.0561  0.3406
 4295TIP3    H234445   0.953   0.174   0.563  0.3539 -0.6710 -0.4727
 4296TIP3   OH234446   3.255   0.043   0.718  1.0257 -0.1156 -0.1683
 4296TIP3    H134447   3.206  -0.018   0.662  1.2216  1.5056 -2.2664
 4296TIP3    H234448   3.189   0.106   0.747  1.3694  0.5594 -0.8146
 4297TIP3   OH234449   0.861   1.107   0.959 -0.0612 -0.4339 -0.1002
 4297TIP3    H134450   0.810   1.055   1.021  0.7647  0.2685  1.2063
 4297TIP3    H234451   0.935   1.051   0.936  0.9059  0.1606  1.4168
 4298TIP3   OH234452   1.546   2.631   7.938 -0.1643  0.2157 -0.2872
 4298TIP3    H134453   1.536   2.554   7.882 -0.0775 -0.4467  0.5897
 4298TIP3    H234454   1.481   2.619   8.007  1.0584 -0.0044  0.8723
 4299TIP3   OH234455   2.791   2.315   5.848  0.1502  0.2590 -0.1103
 4299TIP3    H134456   2.770   2.222   5.843 -4.6370  1.0040  0.9463
 4299TIP3    H234457   2.861   2.328   5.785 -0.4670 -3.7067 -1.8953
 4300TIP3   OH234458   3.322   6.998   7.619  0.2039  0.0190 -0.1637
 4300TIP3    H134459   3.385   7.050   7.669  0.8713  0.0060 -0.9701
 4300TIP3    H234460   3.276   6.946   7.684  1.9170 -0.9323  0.3428
 4301TIP3   OH234461   6.939   4.807   7.110 -0.0543  0.8457  0.0821
 4301TIP3    H134462   6.857   4.764   7.135  0.0128  0.4612 -0.3579
 4301TIP3    H234463   7.001   4.735   7.097  0.2813  1.1208  0.1497
 4302TIP3   OH234464   5.379   1.672   1.707  0.1006 -0.4844  0.1025
 4302TIP3    H134465   5.469   1.658   1.737 -0.1033  1.0813  1.6071
 4302TIP3    H234466   5.386   1.739   1.640 -0.0152  0.2918  0.8551
 4303TIP3   OH234467   2.258   0.872   7.011 -0.6898  0.5138 -0.5183
 4303TIP3    H134468   2.184   0.828   7.053 -0.2216 -0.7529 -0.9935
 4303TIP3    H234469   2.334   0.847   7.063 -0.3315  0.2588 -1.1598
 4304TIP3   OH234470   6.990   0.373   1.863  0.1192  0.5394 -0.0352
 4304TIP3    H134471   6.988   0.439   1.933  0.3589  1.9859 -1.3263
 4304TIP3    H234472   7.081   0.373   1.832  0.3599 -1.1570  0.6047
 4305TIP3   OH234473   2.379   3.776   6.117  0.0370  0.7348 -0.2080
 4305TIP3    H134474   2.452   3.814   6.068 -0.3537 -0.1587 -1.5478
 4305TIP3    H234475   2.301   3.801   6.068 -0.2362 -1.7374 -1.1984
 4306TIP3   OH234476   4.975   4.790   6.454 -0.4435  0.5361  0.0165
 4306TIP3    H134477   4.979   4.869   6.400  0.5791  0.1386 -0.5049
 4306TIP3    H234478   5.031   4.809   6.529 -0.9217  0.6365  0.3576
 4307TIP3   OH234479   7.066   1.318   6.444 -0.1964 -0.2924 -0.1943
 4307TIP3    H134480   7.085   1.235   6.488  0.2442 -0.0090  0.1697
 4307TIP3    H234481   6.991   1.354   6.492 -0.2583 -0.3821 -0.2234
 4308TIP3   OH234482   1.229   6.554   6.525 -0.3307 -0.0825 -0.2109
 4308TIP3    H134483   1.304   6.590   6.479  0.3901 -0.8694  0.3100
 4308TIP3    H234484   1.153   6.597   6.486  0.4587  1.8052  0.2265
 4309TIP3   OH234485   5.758   5.657   8.012 -0.2080  0.8525 -0.8990
 4309TIP3    H134486   5.698   5.726   7.982 -1.7498 -0.4278 -0.8986
 4309TIP3    H234487   5.841   5.678   7.969 -0.7268  2.4769 -1.1991
 4310TIP3   OH234488   0.417   1.564   1.962  0.2409  0.2251  1.2888
 4310TIP3    H134489   0.372   1.615   2.029  0.3496  0.6390  1.0489
 4310TIP3    H234490   0.405   1.614   1.881 -0.7144 -0.7546  0.8095
 4311TIP3   OH234491   5.557   2.374   7.512  0.3275  0.0809 -0.0974
 4311TIP3    H134492   5.497   2.304   7.485  1.5544 -1.5236  1.0893
 4311TIP3    H234493   5.528   2.397   7.600 -0.7355  1.9161 -0.8660
 4312TIP3   OH234494   4.339   2.178   7.100 -0.3945 -0.0412 -0.5747
 4312TIP3    H134495   4.355   2.101   7.045 -1.3144 -0.9386  0.3632
 4312TIP3    H234496   4.284   2.234   7.045  0.4141  0.0533 -1.3277
 4313TIP3   OH234497   3.203   5.464   0.512 -0.8821  0.2381 -0.5371
 4313TIP3    H134498   3.113   5.431   0.505 -0.7925  0.0182 -0.6695
 4313TIP3    H234499   3.250   5.393   0.556 -0.9280  0.6432  0.1755
 4314TIP3   OH234500   0.323   6.244   0.666 -0.4953  1.1372  0.0486
 4314TIP3    H134501   0.363   6.326   0.694  0.1325  0.7462  0.3310
 4314TIP3    H234502   0.390   6.202   0.611 -0.9598  0.9957 -0.4181
 4315TIP3   OH234503   1.422   6.514   5.801  0.0797 -0.1983 -1.1332
 4315TIP3    H134504   1.446   6.606   5.792 -1.8649  0.7058  1.6226
 4315TIP3    H234505   1.462   6.486   5.883  0.5876 -1.8653 -1.8868
 4316TIP3   OH234506   4.089   5.015   0.856 -0.0482  0.3335  1.2706
 4316TIP3    H134507   4.102   4.960   0.933  1.5617  1.0856  1.5846
 4316TIP3    H234508   4.079   5.103   0.891 -0.0823  0.5759  0.6630
 4317TIP3   OH234509   2.492   3.951   0.443  0.3304  0.3006 -0.4638
 4317TIP3    H134510   2.481   4.040   0.408 -0.4833  0.0752 -0.8092
 4317TIP3    H234511   2.582   3.927   0.419  0.4754  0.9330 -0.5862
 4318TIP3   OH234512   4.812   6.045   7.598  0.0747 -0.1848  0.0429
 4318TIP3    H134513   4.717   6.058   7.593  0.2105  1.2181  0.7871
 4318TIP3    H234514   4.849   6.116   7.545  0.7121 -1.1830 -0.8931
 4319TIP3   OH234515   5.004   6.866   0.077  0.5477  0.6056  0.1902
 4319TIP3    H134516   4.993   6.877   0.172 -2.2187 -0.1955  0.0259
 4319TIP3    H234517   5.025   6.774   0.066  0.4822  0.6174 -0.0204
 4320TIP3   OH234518   6.316   0.823   1.461  0.2301  0.0490 -0.0795
 4320TIP3    H134519   6.297   0.880   1.387  1.8357  2.5519  1.2951
 4320TIP3    H234520   6.314   0.735   1.424 -0.0407  1.1098 -2.8551
 4321TIP3   OH234521   5.548   0.145   7.759 -0.5017  0.3084 -0.1616
 4321TIP3    H134522   5.616   0.132   7.826  1.2735 -2.9686 -2.3722
 4321TIP3    H234523   5.474   0.092   7.789 -0.1462 -0.2320 -0.2359
 4322TIP3   OH234524   2.614   3.926   6.879  0.6527 -0.1350  0.9386
 4322TIP3    H134525   2.680   3.891   6.939  0.0505  0.6105  2.0794
 4322TIP3    H234526   2.614   4.021   6.895  0.0239  0.0017  0.2255
 4323TIP3   OH234527   6.634   5.235   0.134  0.0791  0.3888 -0.2144
 4323TIP3    H134528   6.567   5.267   0.074 -0.2294 -1.3772 -0.8693
 4323TIP3    H234529   6.587   5.183   0.198  0.7246 -0.1576 -0.1728
 4324TIP3   OH234530   6.841   1.644   0.326 -0.4309  0.1544 -0.5354
 4324TIP3    H134531   6.894   1.568   0.305  1.1005  1.1936 -0.6042
 4324TIP3    H234532   6.861   1.663   0.417 -0.1447  0.9486 -0.7521
 4325TIP3   OH234533   3.460   0.099   5.988  0.5089  0.8033 -0.1060
 4325TIP3    H134534   3.424   0.018   5.952  0.3024  0.1600  1.4712
 4325TIP3    H234535   3.384   0.155   6.002  0.0173 -0.4326  2.9168
 4326TIP3   OH234536   4.292   4.669   7.630 -0.3043 -0.2946  0.2163
 4326TIP3    H134537   4.314   4.601   7.566  2.4087  1.0433 -0.3779
 4326TIP3    H234538   4.365   4.730   7.627 -1.2464  1.1113  2.8923
 4327TIP3   OH234539   1.922   3.473   7.662  0.5434  0.3459 -0.0767
 4327TIP3    H134540   1.849   3.431   7.707 -0.1745 -1.2122 -2.4900
 4327TIP3    H234541   1.973   3.400   7.625  1.0235  1.4825 -1.7975
 4328TIP3   OH234542   3.685   5.052   0.213 -0.2176 -0.5399 -0.0044
 4328TIP3    H134543   3.661   5.002   0.135  1.5795  0.9236 -1.6224
 4328TIP3    H234544   3.606   5.101   0.235  0.1562  1.9668 -3.3710
 4329TIP3   OH234545   3.049   7.081   0.211  0.2858 -0.1907 -0.2650
 4329TIP3    H134546   3.050   7.084   0.306 -0.0175 -0.5824 -0.2440
 4329TIP3    H234547   3.102   7.004   0.189  2.7023  1.4235 -0.5293
 4330TIP3   OH234548   4.273   5.323   7.296  0.3191  0.4376  0.3147
 4330TIP3    H134549   4.179   5.312   7.306  0.3431 -0.9911 -0.7712
 4330TIP3    H234550   4.311   5.246   7.338  1.0048  0.9939  0.7302
 4331TIP3   OH234551   1.681   4.372   0.602  0.4571 -0.0448 -0.0072
 4331TIP3    H134552   1.602   4.399   0.554 -0.6385  0.3514  1.8784
 4331TIP3    H234553   1.694   4.281   0.578 -1.0439 -0.3451  0.1816
 4332TIP3   OH234554   1.785   1.640   5.915  0.3492  0.0783 -0.8468
 4332TIP3    H134555   1.721   1.709   5.899  0.0116 -0.4849 -2.0102
 4332TIP3    H234556   1.859   1.663   5.858  0.0358 -0.7591 -1.6212
 4333TIP3   OH234557   4.609   5.545   1.715  0.0891  0.1384  0.4882
 4333TIP3    H134558   4.615   5.585   1.802 -0.8016 -0.2237  0.7253
 4333TIP3    H234559   4.586   5.454   1.732 -0.5562  0.1777 -0.1446
 4334TIP3   OH234560   7.030   1.449   0.735 -0.3837 -0.0489  0.1252
 4334TIP3    H134561   7.124   1.445   0.722 -0.7064  0.3503 -2.9440
 4334TIP3    H234562   7.007   1.363   0.771  0.8046 -1.4357 -2.2115
 4335TIP3   OH234563   3.745   6.951   1.788 -0.0124  0.1462 -0.6274
 4335TIP3    H134564   3.725   6.878   1.729  0.4520  0.2806 -0.9574
 4335TIP3    H234565   3.785   6.910   1.864  0.7478  0.0921 -1.0438
 4336TIP3   OH234566   2.347   4.853   7.150 -0.3655 -0.5427 -0.3574
 4336TIP3    H134567   2.296   4.894   7.081  0.2351 -0.2800 -0.6516
 4336TIP3    H234568   2.380   4.772   7.111 -0.2091 -0.5036 -0.3071
 4337TIP3   OH234569   3.804   3.536   2.044  0.5527 -0.0132  0.0629
 4337TIP3    H134570   3.799   3.452   1.999 -0.3051  0.6980 -1.2296
 4337TIP3    H234571   3.876   3.526   2.107  0.1777 -1.8420  0.2460
 4338TIP3   OH234572   0.844   4.599   1.196 -0.0571 -0.2097  0.4680
 4338TIP3    H134573   0.919   4.657   1.184  0.1249 -0.3873  0.7202
 4338TIP3    H234574   0.778   4.630   1.134  0.2781 -0.1426  0.1451
 4339TIP3   OH234575   2.361   1.152   6.816  0.2255  0.3887 -0.4036
 4339TIP3    H134576   2.312   1.070   6.809 -0.6775  0.9060 -0.3452
 4339TIP3    H234577   2.344   1.197   6.734  0.0436  0.8739 -0.1044
 4340TIP3   OH234578   2.943   4.146   6.756 -0.3267 -0.1141  0.6681
 4340TIP3    H134579   2.962   4.062   6.798  1.9053 -0.0387 -0.0383
 4340TIP3    H234580   2.926   4.207   6.828 -2.5136 -1.2193  1.1727
 4341TIP3   OH234581   4.793   5.976   6.446  0.1234  0.3145 -0.3220
 4341TIP3    H134582   4.767   6.057   6.489  2.3286  0.7791  0.2853
 4341TIP3    H234583   4.888   5.971   6.460  0.1941 -1.8992 -1.1541
 4342TIP3   OH234584   2.556   1.059   0.544  0.1571 -0.0453  0.5256
 4342TIP3    H134585   2.538   1.151   0.530  0.7082  0.3544  2.1965
 4342TIP3    H234586   2.649   1.049   0.521  0.4986  0.1647  1.7347
 4343TIP3   OH234587   0.272   4.142   0.131  0.4794 -0.0957  0.1514
 4343TIP3    H134588   0.224   4.077   0.183  0.9085 -0.8735 -0.3981
 4343TIP3    H234589   0.216   4.219   0.131  0.4622 -0.0619  1.7706
 4344TIP3   OH234590   3.288   4.395   0.175 -0.4289 -0.6581 -0.0726
 4344TIP3    H134591   3.319   4.367   0.088  1.4682 -1.3742  0.7803
 4344TIP3    H234592   3.355   4.456   0.206 -1.5751  0.3393  0.5275
 4345TIP3   OH234593   4.676   1.959   6.291  0.3846 -0.2910 -0.4841
 4345TIP3    H134594   4.671   1.896   6.219  0.3889 -0.4414 -0.3542
 4345TIP3    H234595   4.742   2.022   6.264 -0.0267 -0.0244 -0.8664
 4346TIP3   OH234596   3.568   3.473   0.244 -0.3083  0.3006 -0.2009
 4346TIP3    H134597   3.571   3.567   0.264  0.7171  0.2562 -0.0464
 4346TIP3    H234598   3.657   3.443   0.265 -0.8057 -0.8201  0.3339
 4347TIP3   OH234599   2.637   6.144   1.005 -0.1866 -0.2952  0.0186
 4347TIP3    H134600   2.549   6.134   1.042 -0.9215  0.1377 -1.5311
 4347TIP3    H234601   2.658   6.058   0.970 -1.2746  0.2889 -2.2306
 4348TIP3   OH234602   3.186   5.223   7.483  0.1062  0.2890  0.2437
 4348TIP3    H134603   3.109   5.264   7.442  0.6805 -0.0219 -1.2046
 4348TIP3    H234604   3.150   5.172   7.556 -0.8212  1.8308  0.9209
 4349TIP3   OH234605   0.815   5.000   7.231  0.6210  0.3818  0.3382
 4349TIP3    H134606   0.797   4.999   7.137  1.9417 -0.7517  0.0820
 4349TIP3    H234607   0.729   5.018   7.271 -0.2082 -0.3525 -1.0253
 4350TIP3   OH234608   1.186   1.758   6.842 -0.1050  0.4412  0.4209
 4350TIP3    H134609   1.271   1.771   6.800 -0.2912  0.0878 -0.0800
 4350TIP3    H234610   1.166   1.666   6.828 -0.1980  0.3293  1.2547
 4351TIP3   OH234611   1.026   6.680   0.065 -0.1878  0.6184  0.3400
 4351TIP3    H134612   1.098   6.672   0.003  0.2617  1.7489  0.6921
 4351TIP3    H234613   0.975   6.755   0.034 -0.7047  0.3819  0.5954
 4352TIP3   OH234614   1.337   3.677   6.856  0.4520  0.0539  0.0324
 4352TIP3    H134615   1.372   3.760   6.823 -1.6814  1.2022  0.5408
 4352TIP3    H234616   1.324   3.691   6.949  0.3604 -0.9941  0.1921
 4353TIP3   OH234617   5.534   6.373   1.421 -0.1516  0.3930  0.1701
 4353TIP3    H134618   5.490   6.288   1.416 -0.2187  0.3709  1.0050
 4353TIP3    H234619   5.466   6.432   1.453  0.0865  0.6192  0.2521
 4354TIP3   OH234620   1.201   0.202   0.976 -0.3588  0.2013  1.0850
 4354TIP3    H134621   1.151   0.283   0.978 -1.2336 -0.3468  2.0109
 4354TIP3    H234622   1.200   0.175   0.884  0.1939  1.3746  0.7184
 4355TIP3   OH234623   0.156   6.050   6.004 -0.0647 -0.3344  0.5122
 4355TIP3    H134624   0.120   6.109   5.938 -0.0292  0.9627  1.6145
 4355TIP3    H234625   0.248   6.039   5.978  0.0354  0.4313  0.5278
 4356TIP3   OH234626   6.113   3.036   7.841  0.1829 -0.3299 -0.4698
 4356TIP3    H134627   6.064   2.953   7.836  2.4813 -1.8510  0.4631
 4356TIP3    H234628   6.106   3.073   7.753 -1.4991 -1.1350 -0.7227
 4357TIP3   OH234629   4.328   3.346   0.678  0.1606  0.3499 -0.1246
 4357TIP3    H134630   4.253   3.382   0.725  0.7247  1.0441  0.2652
 4357TIP3    H234631   4.393   3.329   0.746  0.7143  0.6789 -0.5582
 4358TIP3   OH234632   6.305   4.164   1.370  0.3258 -0.0863 -0.0246
 4358TIP3    H134633   6.372   4.221   1.407 -0.3769  2.1029 -1.8547
 4358TIP3    H234634   6.346   4.078   1.364  1.3898  0.0990  3.0260
 4359TIP3   OH234635   6.873   7.159   1.189  0.0859 -0.0514  0.3309
 4359TIP3    H134636   6.946   7.186   1.133 -1.9430  2.4505 -1.3122
 4359TIP3    H234637   6.912   7.150   1.276  2.7008 -0.8313 -0.8128
 4360TIP3   OH234638   4.016   1.132   6.383  0.7673 -0.1584 -0.2116
 4360TIP3    H134639   4.060   1.215   6.403  1.5642  0.1053 -2.6686
 4360TIP3    H234640   3.965   1.112   6.461  2.7081  1.2215  1.5146
 4361TIP3   OH234641   1.232   6.167   6.304  0.2383 -0.2146 -0.7718
 4361TIP3    H134642   1.214   6.247   6.354  1.4942  0.9179 -2.0338
 4361TIP3    H234643   1.288   6.196   6.232  1.3375 -2.3758 -0.8670
 4362TIP3   OH234644   6.710   6.259   5.664  0.0705  0.0532 -0.2563
 4362TIP3    H134645   6.632   6.313   5.650 -0.7431 -0.8234  0.7063
 4362TIP3    H234646   6.680   6.190   5.723  0.9612 -1.6860 -1.7265
 4363TIP3   OH234647   2.597   2.430   0.093  0.4109  0.1702 -0.0602
 4363TIP3    H134648   2.525   2.370   0.071  0.0476  0.8650 -0.8221
 4363TIP3    H234649   2.667   2.405   0.033  0.9465 -0.7136  0.8912
 4364TIP3   OH234650   2.152   6.894   5.767  0.1875 -0.3147  0.2896
 4364TIP3    H134651   2.129   6.915   5.676 -0.2300 -0.1916  0.4205
 4364TIP3    H234652   2.240   6.856   5.761 -0.5922 -2.1259 -0.3888
 4365TIP3   OH234653   4.968   0.355   5.738 -0.0210 -0.1185 -0.0719
 4365TIP3    H134654   4.981   0.269   5.778 -0.7737  0.0899  0.6425
 4365TIP3    H234655   5.052   0.399   5.750 -0.0120 -0.3145  0.6739
 4366TIP3   OH234656   5.020   3.968   7.470  0.1615 -0.2082 -0.0727
 4366TIP3    H134657   4.928   3.989   7.455  0.2965 -0.0714 -0.7145
 4366TIP3    H234658   5.017   3.890   7.525 -0.3387 -0.2858 -0.1981
 4367TIP3   OH234659   2.880   0.969   6.169 -0.2657  0.2041  0.2155
 4367TIP3    H134660   2.872   1.025   6.246  1.4945 -0.8852  1.2731
 4367TIP3    H234661   2.930   1.021   6.106  0.3275  0.2578  0.7270
 4368TIP3   OH234662   0.111   6.847   7.051  0.3840  0.3077  0.4366
 4368TIP3    H134663   0.204   6.826   7.052  0.1379 -0.8845  0.1396
 4368TIP3    H234664   0.093   6.869   6.959  0.3074  0.1903  0.4228
 4369TIP3   OH234665   4.244   6.140   7.031 -0.2301  0.3428  0.0700
 4369TIP3    H134666   4.167   6.188   7.061 -0.9529 -0.1707 -0.8961
 4369TIP3    H234667   4.299   6.131   7.109 -0.3903  2.1096  0.4209
 4370TIP3   OH234668   4.533   6.088   1.126  0.0825  0.3414  0.2910
 4370TIP3    H134669   4.492   6.174   1.134 -0.2195  0.1082  1.3908
 4370TIP3    H234670   4.501   6.054   1.043 -0.9839  0.6801  0.5430
 4371TIP3   OH234671   3.013   6.555   6.435  0.4598 -0.5639  0.3797
 4371TIP3    H134672   2.928   6.510   6.444  0.1068 -0.0556 -0.3354
 4371TIP3    H234673   2.996   6.643   6.469  1.0432 -0.8391  1.4065
 4372TIP3   OH234674   4.651   6.460   7.553  0.0239 -0.0765 -0.0405
 4372TIP3    H134675   4.578   6.487   7.498 -0.1237 -1.5418 -0.6044
 4372TIP3    H234676   4.610   6.428   7.633  0.2207  1.6876  0.8262
 4373TIP3   OH234677   5.937   6.620   5.501 -0.6020  0.3598  0.2109
 4373TIP3    H134678   5.873   6.560   5.464 -0.8555  0.7535  0.0030
 4373TIP3    H234679   5.977   6.571   5.572 -0.1869 -0.3579 -0.5098
 4374TIP3   OH234680   1.019   4.815   0.098  0.0719  0.2051  0.0678
 4374TIP3    H134681   0.975   4.845   0.019 -1.3693  0.0268  0.7698
 4374TIP3    H234682   1.106   4.855   0.094 -0.9069  2.4563 -0.2752
 4375TIP3   OH234683   0.268   4.288   0.927 -0.1619 -0.4737  0.3757
 4375TIP3    H134684   0.173   4.297   0.931 -0.2358 -0.4068 -1.0209
 4375TIP3    H234685   0.282   4.196   0.903  0.0268  0.0585 -1.6874
 4376TIP3   OH234686   7.070   5.958   1.202  0.5793 -0.0182  0.2365
 4376TIP3    H134687   7.034   6.031   1.252  2.6800 -0.0620  1.9612
 4376TIP3    H234688   7.070   5.988   1.111 -1.1930  0.9669  0.5058
 4377TIP3   OH234689   6.933   5.237   6.859 -0.5912 -0.3436  0.5459
 4377TIP3    H134690   6.917   5.195   6.775 -0.7684  0.5866  0.0997
 4377TIP3    H234691   6.923   5.331   6.842 -1.9975 -0.2027  1.9055
 4378TIP3   OH234692   3.223   0.992   1.583 -0.0605 -0.3523  0.0711
 4378TIP3    H134693   3.179   1.071   1.615  2.1264  0.1684  2.1093
 4378TIP3    H234694   3.159   0.922   1.597 -1.1073  0.6871  0.6627
 4379TIP3   OH234695   3.390   1.279   7.361 -0.0229 -0.4064  0.6701
 4379TIP3    H134696   3.328   1.251   7.293  1.7111 -3.2194  0.1067
 4379TIP3    H234697   3.338   1.279   7.442 -1.1974 -0.8667 -0.0592
 4380TIP3   OH234698   5.225   6.492   0.548 -0.5987 -0.4090 -0.6902
 4380TIP3    H134699   5.221   6.510   0.454 -1.2083  0.9764 -0.4259
 4380TIP3    H234700   5.250   6.400   0.554  0.5090 -0.2348 -2.1895
 4381TIP3   OH234701   6.565   1.019   0.690 -0.3655  0.4180  0.6614
 4381TIP3    H134702   6.469   1.012   0.690 -0.3297 -0.1482  1.0821
 4381TIP3    H234703   6.585   1.072   0.613 -0.8782 -1.4834 -0.8570
 4382TIP3   OH234704   2.325   5.791   7.452 -0.2319  0.3111  0.1713
 4382TIP3    H134705   2.415   5.823   7.454 -0.4987  1.1146 -0.2614
 4382TIP3    H234706   2.333   5.696   7.466  0.5536  0.5794  1.7713
 4383TIP3   OH234707   0.350   0.019   7.131 -0.0807  0.2219 -0.1529
 4383TIP3    H134708   0.294  -0.029   7.191  1.8224 -1.7453  0.1491
 4383TIP3    H234709   0.313   0.002   7.044  0.1959 -1.2988  0.0129
 4384TIP3   OH234710   0.326   1.505   1.189 -0.4335  0.3761  0.0084
 4384TIP3    H134711   0.338   1.447   1.115  0.5292  0.1783  0.3003
 4384TIP3    H234712   0.391   1.575   1.176 -0.9760  0.9149  0.1189
 4385TIP3   OH234713   6.823   2.896   6.548 -0.0577  0.2765 -0.2575
 4385TIP3    H134714   6.895   2.958   6.562  0.3994 -0.4455  0.6833
 4385TIP3    H234715   6.843   2.856   6.463 -1.0137  2.2541 -1.4698
 4386TIP3   OH234716   1.124   1.931   0.442  0.1528  0.2868  0.4708
 4386TIP3    H134717   1.117   1.899   0.352 -0.3523  0.7989  0.3181
 4386TIP3    H234718   1.107   1.855   0.497  2.2611 -0.4636  0.1738
 4387TIP3   OH234719   5.418   6.588   1.569 -0.4298  0.2628 -0.5909
 4387TIP3    H134720   5.335   6.626   1.597 -1.4791 -2.6738  0.7302
 4387TIP3    H234721   5.474   6.592   1.646 -0.2178  0.0348 -0.7307
 4388TIP3   OH234722   4.066   6.296   7.175 -0.4423 -0.6055 -0.8374
 4388TIP3    H134723   4.000   6.343   7.124 -0.7688  0.6379  0.6506
 4388TIP3    H234724   4.016   6.249   7.241  0.0498 -1.0687 -0.7914
 4389TIP3   OH234725   5.868   5.159   6.577  0.2397  0.3744 -0.2237
 4389TIP3    H134726   5.790   5.144   6.524 -0.0038  2.2714 -0.4828
 4389TIP3    H234727   5.837   5.209   6.653  0.9971 -0.0742  0.4061
 4390TIP3   OH234728   4.841   6.858   5.883 -0.1764  0.4793  0.1298
 4390TIP3    H134729   4.911   6.827   5.825  0.6264 -0.1677  1.4042
 4390TIP3    H234730   4.835   6.952   5.865 -0.6731  0.1217 -1.7277
 4391TIP3   OH234731   4.612   3.283   7.814  0.2937  0.5494  0.2062
 4391TIP3    H134732   4.575   3.205   7.774 -0.8436  0.5747  1.1429
 4391TIP3    H234733   4.567   3.356   7.771 -0.1630  0.6054  0.7607
 4392TIP3   OH234734   2.414   1.735   7.721  0.1233 -0.0934  0.2033
 4392TIP3    H134735   2.337   1.733   7.778  0.6902 -0.3946  0.9662
 4392TIP3    H234736   2.410   1.653   7.672  0.8392 -0.9117  1.4501
 4393TIP3   OH234737   3.732   3.480   6.827 -0.2672 -0.0033  0.5075
 4393TIP3    H134738   3.656   3.436   6.867 -0.8482 -0.4714 -1.0262
 4393TIP3    H234739   3.808   3.436   6.866 -0.8199 -1.1138  0.3905
 4394TIP3   OH234740   3.918   4.166   1.566  0.4810 -0.0232  0.2896
 4394TIP3    H134741   3.823   4.172   1.555  0.4855 -0.2404  0.1192
 4394TIP3    H234742   3.929   4.128   1.654  0.3963 -0.5786  0.0645
 4395TIP3   OH234743   4.799   0.928   1.558 -0.0620 -0.3916  0.6320
 4395TIP3    H134744   4.804   0.980   1.638  1.6076 -0.0538  0.3425
 4395TIP3    H234745   4.868   0.963   1.502 -0.5066 -1.3196 -0.5445
 4396TIP3   OH234746   6.205   6.678   6.983 -0.2233  0.2946  0.4017
 4396TIP3    H134747   6.289   6.644   6.952 -0.4255 -0.4129  0.6080
 4396TIP3    H234748   6.220   6.701   7.074 -1.0294 -2.8321  1.4540
 4397TIP3   OH234749   6.629   0.449   7.971 -0.4770 -0.3177 -0.2008
 4397TIP3    H134750   6.588   0.526   7.933  1.5397  0.8292 -0.1946
 4397TIP3    H234751   6.556   0.390   7.990 -1.9264  0.8293 -1.8357
 4398TIP3   OH234752   0.335   3.716   6.402  0.1166 -0.0407 -0.7327
 4398TIP3    H134753   0.329   3.736   6.309  0.2375  0.9856 -0.5406
 4398TIP3    H234754   0.249   3.737   6.437  0.2734  0.2408 -0.5064
 4399TIP3   OH234755   4.193   6.163   6.150 -0.4374 -0.6169  0.9779
 4399TIP3    H134756   4.109   6.136   6.186 -0.4974  0.8737  2.0565
 4399TIP3    H234757   4.188   6.259   6.148  1.0070 -0.5271  0.4953
 4400TIP3   OH234758   1.972   5.965   1.404 -0.0852  0.6207 -0.0793
 4400TIP3    H134759   1.898   6.019   1.375  0.1462  0.3116 -1.2788
 4400TIP3    H234760   1.994   6.000   1.491 -1.8567  0.4882  0.4582
 4401TIP3   OH234761   2.450   5.080   0.454 -0.6355 -0.3763  0.1352
 4401TIP3    H134762   2.464   5.147   0.387 -1.4388  0.7512  1.0541
 4401TIP3    H234763   2.523   5.091   0.515 -1.5915  0.7637  1.1308
 4402TIP3   OH234764   1.909   2.954   6.594  0.1497  0.6534  0.1668
 4402TIP3    H134765   1.829   2.938   6.544  0.1387  1.6068 -0.1342
 4402TIP3    H234766   1.878   2.991   6.677  0.3088  2.1117 -0.3951
 4403TIP3   OH234767   3.846   5.895   7.232  0.6510 -0.2743  0.7310
 4403TIP3    H134768   3.874   5.959   7.297  1.2636 -1.2515  1.4517
 4403TIP3    H234769   3.904   5.820   7.245  0.5726 -0.6216 -0.7330
 4404TIP3   OH234770   2.572   1.414   6.884 -0.2012 -0.1099 -0.4585
 4404TIP3    H134771   2.543   1.364   6.960  1.1254  0.9290  0.8074
 4404TIP3    H234772   2.577   1.505   6.916  2.0051  0.1123 -1.2471
 4405TIP3   OH234773   6.921   3.681   2.101  0.3375  0.3062  0.3570
 4405TIP3    H134774   6.892   3.686   2.010 -1.1928 -5.1106  0.1750
 4405TIP3    H234775   6.847   3.715   2.152 -1.2348 -1.6263 -0.4668
 4406TIP3   OH234776   5.000   1.350   6.979 -0.1680  0.3144 -0.1432
 4406TIP3    H134777   4.940   1.302   7.036 -0.3312 -0.2461 -0.7638
 4406TIP3    H234778   5.086   1.312   6.997 -0.3482 -0.5004 -0.8923
 4407TIP3   OH234779   0.744   0.969   1.314  0.1123  0.1495 -0.6587
 4407TIP3    H134780   0.731   0.948   1.406  0.3874  1.2464 -0.3623
 4407TIP3    H234781   0.662   0.941   1.272 -0.6610  1.0863  0.1727
 4408TIP3   OH234782   7.108   3.116   7.109 -0.5178 -0.4674  0.2950
 4408TIP3    H134783   7.157   3.160   7.040 -1.1800  0.1431  0.2099
 4408TIP3    H234784   7.067   3.041   7.066 -0.5718 -0.3371  0.1201
 4409TIP3   OH234785   7.162   5.454   1.015 -0.0423 -0.2794  0.0836
 4409TIP3    H134786   7.251   5.479   0.993 -0.9196  2.2033 -1.0983
 4409TIP3    H234787   7.154   5.364   0.986  3.0352 -1.8945  3.4432
 4410TIP3   OH234788   0.959   6.293   7.344  0.1011  0.2998 -0.3718
 4410TIP3    H134789   0.988   6.217   7.294 -1.0495 -1.1329  1.0231
 4410TIP3    H234790   0.864   6.295   7.331  0.1128  1.5091 -0.3702
 4411TIP3   OH234791   5.865   1.009   0.208  0.5967 -0.1068 -0.2755
 4411TIP3    H134792   5.960   1.009   0.195  0.5244 -0.3085 -0.8012
 4411TIP3    H234793   5.849   0.933   0.263  0.7935  0.2250  0.2572
 4412TIP3   OH234794   4.742   2.637   7.224 -0.4902  0.0403 -0.2174
 4412TIP3    H134795   4.807   2.703   7.245 -1.5639  2.0247 -2.6226
 4412TIP3    H234796   4.741   2.633   7.129 -3.7004 -0.0026 -0.3139
 4413TIP3   OH234797   2.419   0.126   1.276  0.3316  0.8458 -0.0421
 4413TIP3    H134798   2.362   0.066   1.229  1.0559 -0.4799  0.7129
 4413TIP3    H234799   2.359   0.180   1.329 -0.4660  2.2051 -2.2029
 4414TIP3   OH234800   3.724   1.451   1.604 -0.5539  0.4360 -0.1073
 4414TIP3    H134801   3.692   1.375   1.653 -0.1000  0.8049  0.7784
 4414TIP3    H234802   3.685   1.526   1.648 -0.6157  0.7571 -0.6872
 4415TIP3   OH234803   1.417   6.254   7.749  0.3987 -0.3382 -0.5102
 4415TIP3    H134804   1.429   6.173   7.797  1.5908 -0.4039 -0.8860
 4415TIP3    H234805   1.425   6.323   7.816 -0.3427 -0.5062 -0.2384
 4416TIP3   OH234806   5.394   0.673   0.876  0.1781 -0.0612  0.2425
 4416TIP3    H134807   5.383   0.767   0.889  0.1538  0.0896 -0.8314
 4416TIP3    H234808   5.485   0.661   0.851 -0.1286 -0.1728 -0.8632
 4417TIP3   OH234809   7.126   2.018   7.348 -0.8774 -0.7532 -0.9955
 4417TIP3    H134810   7.174   1.942   7.315 -0.8909 -2.2472  2.0944
 4417TIP3    H234811   7.034   1.994   7.339 -0.8916 -0.8954 -0.4976
 4418TIP3   OH234812   6.458   5.172   1.538  0.0726 -0.0552  0.0405
 4418TIP3    H134813   6.492   5.248   1.585  1.0437 -0.2027 -0.4023
 4418TIP3    H234814   6.489   5.097   1.588  2.6257 -0.2932 -1.6875
 4419TIP3   OH234815   6.669   0.171   1.207  0.0643  0.2968  0.2886
 4419TIP3    H134816   6.744   0.112   1.199 -0.2864 -0.1051 -0.0805
 4419TIP3    H234817   6.638   0.157   1.297  0.2452  0.2374  0.3433
 4420TIP3   OH234818   3.188   3.525   7.955 -0.9795 -0.2863  0.2419
 4420TIP3    H134819   3.118   3.567   8.006 -1.5224 -0.8326 -0.0392
 4420TIP3    H234820   3.198   3.438   7.994 -0.4840 -0.2311  0.2482
 4421TIP3   OH234821   3.677   2.416   6.232  0.2001 -0.0604  0.0900
 4421TIP3    H134822   3.615   2.359   6.276 -0.6057  1.1120  0.5269
 4421TIP3    H234823   3.644   2.423   6.142 -1.7750  2.4509  0.8893
 4422TIP3   OH234824   5.398   0.694   6.499 -0.1002  0.1616  0.0962
 4422TIP3    H134825   5.354   0.778   6.504 -2.3117 -0.9663  0.8180
 4422TIP3    H234826   5.432   0.690   6.410  1.8549  2.6077  0.6285
 4423TIP3   OH234827   5.937   6.173   1.281  0.4023  0.2856  0.5373
 4423TIP3    H134828   5.954   6.250   1.227 -0.0239  1.6818  2.3032
 4423TIP3    H234829   6.020   6.125   1.282  0.6481  0.6638 -0.6599
 4424TIP3   OH234830   3.023   5.259   0.162 -0.2092 -0.1196 -0.3242
 4424TIP3    H134831   3.099   5.203   0.144 -1.0593 -0.5675 -2.9217
 4424TIP3    H234832   2.972   5.210   0.226  1.4901  0.0926  1.3210
 4425TIP3   OH234833   4.034   4.841   5.898  0.1802  0.1328 -0.2155
 4425TIP3    H134834   4.020   4.936   5.899 -2.5890 -0.1593  2.0906
 4425TIP3    H234835   4.130   4.831   5.895  0.5239  2.9149 -1.7593
 4426TIP3   OH234836   0.814   0.292   0.587 -0.2516 -0.1655  0.0039
 4426TIP3    H134837   0.823   0.341   0.505 -1.2960 -1.5119 -0.9587
 4426TIP3    H234838   0.721   0.300   0.609  0.3221  1.7106  2.0918
 4427TIP3   OH234839   4.914   6.684   6.975 -0.0555 -0.0856  0.3353
 4427TIP3    H134840   4.876   6.771   6.961  0.2698  0.0242  0.1358
 4427TIP3    H234841   4.904   6.640   6.890  2.1551  0.6697 -0.3759
 4428TIP3   OH234842   1.988   7.047   1.663 -0.2917  0.6654  0.2133
 4428TIP3    H134843   2.031   6.962   1.655 -1.5455 -0.0174  0.5392
 4428TIP3    H234844   1.955   7.066   1.575 -1.3757  0.0677  0.4870
 4429TIP3   OH234845   4.531   0.009   0.939 -0.0232  0.6657  0.2042
 4429TIP3    H134846   4.462   0.073   0.956  0.1191  0.5387  1.3474
 4429TIP3    H234847   4.609   0.062   0.924 -0.3567  0.8099 -1.1215
 4430TIP3   OH234848   3.024   4.901   1.012  0.1516 -0.5908  0.1591
 4430TIP3    H134849   3.079   4.978   1.020 -1.2138  0.4562 -0.2347
 4430TIP3    H234850   3.068   4.834   1.065  1.7883  0.1880 -0.1825
 4431TIP3   OH234851   5.138   0.690   0.231  0.2899  0.1896  0.0201
 4431TIP3    H134852   5.057   0.735   0.208  0.1268 -0.5459 -0.8922
 4431TIP3    H234853   5.141   0.694   0.327 -1.7260 -1.2952  0.2066
 4432TIP3   OH234854   5.301   3.114   1.047  0.1737 -0.1588  0.4722
 4432TIP3    H134855   5.286   3.020   1.038 -0.4858  0.1019 -1.8292
 4432TIP3    H234856   5.215   3.150   1.068 -0.0004  0.1012 -0.6156
 4433TIP3   OH234857   3.970   2.438   7.845 -0.7501 -0.4817 -0.4271
 4433TIP3    H134858   4.050   2.418   7.798 -1.3031 -1.2623 -1.0672
 4433TIP3    H234859   3.980   2.394   7.930  0.6392  1.6816  0.6189
 4434TIP3   OH234860   5.147   2.036   0.129 -0.0136 -0.1189  0.5969
 4434TIP3    H134861   5.235   2.022   0.164  0.8531  0.6031 -1.1969
 4434TIP3    H234862   5.146   2.127   0.099  0.0834 -1.1528 -3.1106
 4435TIP3   OH234863   5.148   3.018   7.773 -0.2891 -0.0298 -0.2489
 4435TIP3    H134864   5.120   2.981   7.690 -1.8095 -0.6819  0.5110
 4435TIP3    H234865   5.186   2.945   7.822 -1.4679 -0.1792  0.4815
 4436TIP3   OH234866   5.657   4.119   1.784  0.4656  0.3137 -0.2762
 4436TIP3    H134867   5.708   4.190   1.822  1.1976 -0.2594 -0.1746
 4436TIP3    H234868   5.698   4.102   1.700  0.6110 -0.3262 -0.0796
 4437TIP3   OH234869   0.036   2.285   7.939 -0.2486 -0.2559 -0.1731
 4437TIP3    H134870   0.037   2.381   7.936  0.0655 -0.2297  0.6568
 4437TIP3    H234871   0.120   2.261   7.977 -0.2874 -0.8715 -0.4632
 4438TIP3   OH234872   6.653   2.927   7.829 -0.0510 -0.0445  0.0895
 4438TIP3    H134873   6.698   2.868   7.890  0.7457  0.0714 -0.3749
 4438TIP3    H234874   6.650   3.011   7.876 -1.3218 -0.4684  0.8130
 4439TIP3   OH234875   1.867   3.693   6.598  0.1311  0.0242 -0.0411
 4439TIP3    H134876   1.950   3.668   6.638 -0.3517  0.5006  1.3053
 4439TIP3    H234877   1.808   3.621   6.619 -0.3565  0.6807  0.9020
 4440TIP3   OH234878   6.686   5.921   0.141 -0.3265  0.7432 -0.5048
 4440TIP3    H134879   6.779   5.920   0.163 -0.2717  0.9612 -0.7333
 4440TIP3    H234880   6.653   6.002   0.180 -0.6428  0.1507  0.4961
 4441TIP3   OH234881   7.006   4.958   0.509  0.0403 -0.2999  0.5507
 4441TIP3    H134882   6.924   4.910   0.521 -0.2045  0.0912  0.4481
 4441TIP3    H234883   6.980   5.050   0.505  0.2906 -0.2856 -1.3401
 4442TIP3   OH234884   6.572   4.532   1.896  0.1902  0.0712  0.3632
 4442TIP3    H134885   6.621   4.594   1.949 -1.0307 -0.5891  2.3548
 4442TIP3    H234886   6.481   4.544   1.923 -0.1757 -2.0163  0.2168
 4443TIP3   OH234887   2.526   6.867   0.274  0.2664 -0.0333  0.5663
 4443TIP3    H134888   2.618   6.866   0.299  0.2039  0.1037  0.8116
 4443TIP3    H234889   2.519   6.805   0.202  0.1037 -1.8565  2.0837
 4444TIP3   OH234890   3.907   1.692   7.956 -0.0427 -0.1151 -0.2552
 4444TIP3    H134891   3.853   1.627   8.002 -0.3766 -0.5343 -1.2295
 4444TIP3    H234892   3.981   1.707   8.015 -1.1321  0.3662  1.0447
 4445TIP3   OH234893   4.577   6.571   6.881 -0.5606  0.0353 -0.3890
 4445TIP3    H134894   4.529   6.490   6.895 -0.3923 -0.0992 -0.5758
 4445TIP3    H234895   4.637   6.551   6.808  0.9099 -0.2957  0.8486
 4446TIP3   OH234896   2.629   0.529   7.237 -0.2639 -0.2935  0.0863
 4446TIP3    H134897   2.616   0.447   7.189 -0.4154 -0.5469  0.5485
 4446TIP3    H234898   2.644   0.501   7.328 -0.1928  0.1867  0.2247
 4447TIP3   OH234899   4.239   0.308   0.728  0.2427  0.0791 -0.5740
 4447TIP3    H134900   4.303   0.316   0.658  0.7843 -0.3557 -0.1375
 4447TIP3    H234901   4.265   0.373   0.792  1.7970 -1.7553  0.7716
 4448TIP3   OH234902   4.061   5.515   7.183  0.2562 -0.4039  0.0854
 4448TIP3    H134903   3.975   5.488   7.216 -0.5177  1.3113 -0.4038
 4448TIP3    H234904   4.079   5.454   7.111 -1.5269  0.4186 -1.1367
 4449TIP3   OH234905   4.319   1.690   1.020 -0.0844  0.4643 -0.1581
 4449TIP3    H134906   4.231   1.651   1.021  1.0454 -2.3703 -0.8060
 4449TIP3    H234907   4.348   1.680   0.929  1.8828 -1.2307  0.5769
 4450TIP3   OH234908   0.542   4.598   1.147 -0.2608 -0.1137 -0.7374
 4450TIP3    H134909   0.540   4.685   1.186  2.3710 -0.0010 -0.6743
 4450TIP3    H234910   0.469   4.597   1.086 -1.3320  1.5419  0.4408
 4451TIP3   OH234911   4.608   4.506   7.100 -0.8053  0.4019  0.3500
 4451TIP3    H134912   4.635   4.584   7.051  1.4046 -0.1063  0.6387
 4451TIP3    H234913   4.516   4.493   7.077 -0.4073  1.3578 -2.0784
 4452TIP3   OH234914   0.858   3.405   6.037 -0.0518  0.3522 -0.3952
 4452TIP3    H134915   0.827   3.322   6.000  0.7985 -0.0603 -0.2104
 4452TIP3    H234916   0.830   3.402   6.128  0.2432  0.1279 -0.3107
 4453TIP3   OH234917   2.921   5.208   7.425  0.3820 -0.4628 -0.2372
 4453TIP3    H134918   2.871   5.270   7.372  0.5203 -0.4285 -0.3284
 4453TIP3    H234919   2.878   5.208   7.510  1.2003  0.8034  0.2040
 4454TIP3   OH234920   3.092   1.073   7.841 -0.0422  0.0025 -0.3295
 4454TIP3    H134921   3.150   1.010   7.798 -0.8140  0.3646 -1.9826
 4454TIP3    H234922   3.073   1.139   7.773 -0.3697  1.2638  0.9272
 4455TIP3   OH234923   1.117   6.679   0.505 -0.1627 -0.2295  0.0627
 4455TIP3    H134924   1.101   6.627   0.583  1.5106 -1.3107 -0.2727
 4455TIP3    H234925   1.212   6.690   0.502 -0.2659  0.4756 -1.3782
 4456TIP3   OH234926   6.597   5.510   6.515 -0.6816  0.1736  0.3533
 4456TIP3    H134927   6.596   5.479   6.425  0.6614 -0.8696  0.6626
 4456TIP3    H234928   6.678   5.560   6.522 -0.0691 -0.9034  1.3225
 4457TIP3   OH234929   1.144   3.831   0.036 -0.0997 -0.1084  0.1398
 4457TIP3    H134930   1.098   3.899  -0.011 -1.7585 -0.2524  1.4320
 4457TIP3    H234931   1.083   3.757   0.038 -0.0475 -0.1827  2.2446
 4458TIP3   OH234932   6.316   2.924   6.945  0.3174  0.0286  0.5643
 4458TIP3    H134933   6.328   2.996   6.883  1.5824 -0.9608 -0.4032
 4458TIP3    H234934   6.307   2.968   7.030  1.7823  1.3396  0.1149
 4459TIP3   OH234935   1.009   0.391   0.360 -0.2281  0.9678  0.3544
 4459TIP3    H134936   0.939   0.381   0.296 -0.8210  0.2610  1.0964
 4459TIP3    H234937   1.077   0.330   0.331 -0.7967  0.1151  0.7910
 4460TIP3   OH234938   1.219   1.130   6.615  0.3866  0.1137  0.4456
 4460TIP3    H134939   1.226   1.135   6.710 -2.0948 -0.5230  0.7518
 4460TIP3    H234940   1.175   1.212   6.590  0.1978 -0.1210 -0.0115
 4461TIP3   OH234941   0.337   2.311   0.200  0.1126 -0.3617 -0.0203
 4461TIP3    H134942   0.328   2.360   0.118 -0.1478  0.2497  0.3657
 4461TIP3    H234943   0.425   2.272   0.194  0.2932  0.0819 -0.3761
 4462TIP3   OH234944   0.222   1.218   6.954  0.6063 -0.3877  0.4610
 4462TIP3    H134945   0.216   1.257   7.042  1.9069  0.5719  0.1640
 4462TIP3    H234946   0.248   1.291   6.898  0.9288 -1.2324 -0.5140
 4463TIP3   OH234947   6.220   3.380   1.129  0.0728 -0.0211 -0.0035
 4463TIP3    H134948   6.147   3.329   1.164  0.0553  0.5840  0.8816
 4463TIP3    H234949   6.187   3.470   1.128  1.3330  0.5358  2.0462
 4464TIP3   OH234950   3.883   6.915   7.932 -0.4838 -0.4679 -0.5166
 4464TIP3    H134951   3.841   6.829   7.935 -0.7014 -0.3504 -0.2114
 4464TIP3    H234952   3.969   6.898   7.894  0.4418 -1.2195  1.7475
 4465TIP3   OH234953   5.522   5.084   1.181 -0.3999  0.2636 -0.3615
 4465TIP3    H134954   5.455   5.151   1.169 -1.6976 -1.2418 -2.2049
 4465TIP3    H234955   5.524   5.036   1.098  2.2928 -0.4035 -0.0092
 4466TIP3   OH234956   1.814   5.084   7.483 -0.0871  0.5270 -0.4870
 4466TIP3    H134957   1.833   5.124   7.568 -1.9378 -1.8120  1.2112
 4466TIP3    H234958   1.847   4.994   7.492  1.2448  0.6990 -2.9703
 4467TIP3   OH234959   6.779   1.861   6.525  0.1624 -0.2136  0.3972
 4467TIP3    H134960   6.732   1.789   6.483  0.2249  0.7238 -1.3296
 4467TIP3    H234961   6.866   1.825   6.545  0.2373 -0.5880 -0.5731
 4468TIP3   OH234962   5.786   1.818   6.962  0.3945 -0.3665  0.0031
 4468TIP3    H134963   5.778   1.779   7.048  2.4027 -0.7094  0.0748
 4468TIP3    H234964   5.768   1.911   6.975  1.0363 -0.3587  0.8695
 4469TIP3   OH234965   4.174   2.171   7.944  0.3300  0.1946  0.7950
 4469TIP3    H134966   4.156   2.225   8.022  0.0952  0.3056  0.6636
 4469TIP3    H234967   4.204   2.233   7.878  3.3555 -0.1859  1.6318
 4470TIP3   OH234968   3.694   0.635   0.528 -0.1581 -0.2334 -0.2885
 4470TIP3    H134969   3.641   0.606   0.455 -0.4306  1.6376 -0.8674
 4470TIP3    H234970   3.779   0.591   0.515 -0.1046  0.2997 -1.9023
 4471TIP3   OH234971   2.427   0.198   0.417  0.8675 -0.3163  0.3737
 4471TIP3    H134972   2.476   0.278   0.436 -0.5913  0.3179  1.7111
 4471TIP3    H234973   2.350   0.204   0.473 -1.3398 -0.7054 -2.4319
 4472TIP3   OH234974   5.864   3.130   7.672  0.0451 -0.0497  0.3890
 4472TIP3    H134975   5.835   3.219   7.654  1.0769  0.3827  0.7918
 4472TIP3    H234976   5.937   3.115   7.611 -0.6289 -0.9162 -0.2333
 4473TIP3   OH234977   1.470   5.820   6.967  0.5703 -0.2835 -0.6155
 4473TIP3    H134978   1.534   5.878   7.009 -1.1651  1.2146  0.0534
 4473TIP3    H234979   1.446   5.865   6.886 -1.5449  0.5295  0.3896
 4474TIP3   OH234980   1.423   4.800   7.845 -0.2676 -0.0079 -0.0362
 4474TIP3    H134981   1.487   4.748   7.893 -2.1902 -1.0594  1.5535
 4474TIP3    H234982   1.405   4.749   7.766 -0.9454 -0.9621  0.7220
 4475TIP3   OH234983   1.379   0.756   6.516  0.0826 -0.2850 -0.3469
 4475TIP3    H134984   1.349   0.685   6.460  0.9925 -0.6124 -0.4394
 4475TIP3    H234985   1.464   0.781   6.479 -0.7714  1.7249 -1.1070
 4476TIP3   OH234986   2.055   6.473   6.948 -0.2394  0.3865  0.3530
 4476TIP3    H134987   2.045   6.453   6.855 -0.1251 -1.5126  0.7111
 4476TIP3    H234988   2.088   6.563   6.950 -2.2554  1.2369 -1.3390
 4477TIP3   OH234989   4.951   2.453   6.592 -0.1479 -0.3166  0.0670
 4477TIP3    H134990   5.037   2.416   6.572 -0.0807  1.0345 -2.4775
 4477TIP3    H234991   4.905   2.455   6.508 -2.4093 -0.3113  1.2320
 4478TIP3   OH234992   4.156   0.622   0.273  0.2130  0.5484  0.2208
 4478TIP3    H134993   4.159   0.532   0.305  1.9925  1.3605  2.6475
 4478TIP3    H234994   4.065   0.648   0.286  0.0419 -0.3982  1.1000
 4479TIP3   OH234995   5.478   2.253   7.987  0.1962 -0.5023 -0.7783
 4479TIP3    H134996   5.509   2.258   8.078 -0.6249  2.8476 -0.5567
 4479TIP3    H234997   5.536   2.312   7.939  1.1703 -2.8760 -2.7272
 4480TIP3   OH234998   0.529   7.025   1.787 -0.0467  0.6987 -0.2467
 4480TIP3    H134999   0.464   6.982   1.731  0.4537 -0.8650  0.3142
 4480TIP3    H235000   0.527   7.116   1.760 -2.8382  0.8238  0.1038
 4481TIP3   OH235001   0.033   6.096   7.588 -0.0143 -0.2230 -0.2388
 4481TIP3    H135002   0.049   6.001   7.595  2.9443  0.0101 -2.0948
 4481TIP3    H235003  -0.029   6.105   7.516  0.2059 -0.7416 -0.5001
 4482TIP3   OH235004   1.715   1.032   1.917 -0.4450 -0.4359  0.2923
 4482TIP3    H135005   1.630   1.013   1.956  0.0160 -0.8726  1.1127
 4482TIP3    H235006   1.777   1.025   1.990  0.0051  2.3749  0.3042
 4483TIP3   OH235007   2.128   4.640   6.925  0.0648 -0.5463 -0.3057
 4483TIP3    H135008   2.104   4.550   6.945  0.0027 -0.5070 -0.2042
 4483TIP3    H235009   2.105   4.651   6.833 -2.2375  0.1227  0.2931
 4484TIP3   OH235010   0.424   6.177   7.743  0.0701 -0.5010  0.4735
 4484TIP3    H135011   0.340   6.203   7.780 -0.5194  1.5158 -1.9729
 4484TIP3    H235012   0.488   6.203   7.809 -0.9320  2.5418  0.4279
 4485TIP3   OH235013   1.624   4.735   7.261  0.2156 -0.1247  0.8250
 4485TIP3    H135014   1.540   4.750   7.304  0.1160 -2.3893  1.5083
 4485TIP3    H235015   1.606   4.749   7.168 -0.8392 -0.3191  0.9868
 4486TIP3   OH235016   4.038   6.741   0.669  0.1100  0.1591  0.1053
 4486TIP3    H135017   4.084   6.664   0.636  0.0355  0.5324 -0.9134
 4486TIP3    H235018   4.012   6.789   0.590 -2.5782 -0.3525  0.5858
 4487TIP3   OH235019   0.667   6.076   7.122  0.0417 -0.3216 -0.1659
 4487TIP3    H135020   0.664   6.140   7.193  0.5286 -0.0299 -0.4031
 4487TIP3    H235021   0.715   6.002   7.159  0.5414 -0.0578 -0.2737
 4488TIP3   OH235022   0.052   5.526   6.141  0.7800 -0.0532  0.0284
 4488TIP3    H135023   0.065   5.495   6.051  2.2866 -0.3069  0.2973
 4488TIP3    H235024  -0.039   5.507   6.160  0.3981  0.1207 -1.4901
 4489TIP3   OH235025   4.737   5.347   1.144 -0.2720 -0.4457 -0.3504
 4489TIP3    H135026   4.751   5.307   1.229 -1.3627 -0.9179 -0.3689
 4489TIP3    H235027   4.763   5.280   1.080  2.9115  0.7647 -0.4629
 4490TIP3   OH235028   0.210   2.998   0.222 -0.1833  0.2127 -0.1377
 4490TIP3    H135029   0.282   2.976   0.281 -0.0952  1.6587  0.3372
 4490TIP3    H235030   0.158   2.918   0.216  1.6821 -1.0221 -0.8488
 4491TIP3   OH235031   6.734   3.946   7.786 -0.4725  0.0482  0.2326
 4491TIP3    H135032   6.683   4.027   7.784  3.2179  2.6030 -0.5363
 4491TIP3    H235033   6.767   3.941   7.876  0.1230 -0.0234  0.0162
 4492TIP3   OH235034   5.009   7.004   6.307 -0.4988  0.5606  0.6191
 4492TIP3    H135035   5.013   6.934   6.241 -2.5868  2.4611 -1.6925
 4492TIP3    H235036   5.089   7.055   6.292  0.3273 -0.4531  1.3791
 4493TIP3   OH235037   6.476   4.194   6.406 -0.5470  0.6004 -0.2096
 4493TIP3    H135038   6.468   4.105   6.439  0.4058  0.9915  1.1546
 4493TIP3    H235039   6.476   4.249   6.484  0.3448  1.6798 -0.9325
 4494TIP3   OH235040   3.770   5.195   7.882 -0.6573  0.4728  0.2385
 4494TIP3    H135041   3.759   5.183   7.788  2.7256  0.1959 -0.2455
 4494TIP3    H235042   3.726   5.278   7.901 -2.2606  0.0459 -1.3232
 4495TIP3   OH235043   6.197   6.728   7.539  0.7868 -0.0082 -0.3203
 4495TIP3    H135044   6.182   6.668   7.612 -0.1353 -0.3939 -0.8009
 4495TIP3    H235045   6.125   6.792   7.546  0.3443 -0.3819 -1.2034
 4496TIP3   OH235046   6.612   5.992   6.414 -0.3809 -0.7423  0.7115
 4496TIP3    H135047   6.537   6.051   6.410  0.4959  0.3689  0.2263
 4496TIP3    H235048   6.627   5.977   6.507 -0.2659  0.2674  0.8611
 4497TIP3   OH235049   6.880   6.508   1.019  0.3240 -0.2876 -0.3641
 4497TIP3    H135050   6.804   6.481   0.967  1.3151 -1.7115 -1.1691
 4497TIP3    H235051   6.885   6.444   1.089 -2.3054  2.8398  3.0900
 4498TIP3   OH235052   0.395   0.268   7.206  0.7785 -0.1391 -0.0156
 4498TIP3    H135053   0.444   0.270   7.288 -1.2475 -0.4880  1.2687
 4498TIP3    H235054   0.366   0.177   7.197  0.4848  0.0231 -0.8171
 4499TIP3   OH235055   5.544   3.834   7.350 -0.0153  0.2749  0.5624
 4499TIP3    H135056   5.583   3.791   7.273 -2.9085 -3.3380  0.8337
 4499TIP3    H235057   5.593   3.799   7.424  0.3033  0.7725  0.5930
 4500TIP3   OH235058   6.959   0.227   0.621 -0.5870 -0.2056 -0.3474
 4500TIP3    H135059   6.953   0.247   0.715 -0.4886  0.5516 -0.4930
 4500TIP3    H235060   6.915   0.143   0.612 -1.2665  0.0659  0.2688
 4501TIP3   OH235061   7.161   5.151   1.172 -0.1049  0.3191 -0.2598
 4501TIP3    H135062   7.187   5.214   1.104  0.2728 -0.1890 -0.5926
 4501TIP3    H235063   7.189   5.191   1.254 -0.4507  0.8818 -0.4069
 4502TIP3   OH235064   2.420   7.084   2.206  0.4308 -0.4217  0.0019
 4502TIP3    H135065   2.360   7.015   2.176  1.0553 -1.0136  0.0773
 4502TIP3    H235066   2.400   7.159   2.150 -1.8044  0.1107  1.3739
 4503TIP3   OH235067   1.805   3.908   0.210  0.6958  0.2745 -0.2265
 4503TIP3    H135068   1.832   3.869   0.127  1.2466 -0.3768  0.2502
 4503TIP3    H235069   1.887   3.932   0.253  0.3902  1.3930 -0.2296
 4504TIP3   OH235070   5.658   1.562   1.366  0.8431 -0.5249 -0.7112
 4504TIP3    H135071   5.611   1.485   1.397  0.4738 -1.0130 -2.3617
 4504TIP3    H235072   5.616   1.583   1.282  1.1443  1.2882 -0.4453
 4505TIP3   OH235073   6.511   3.505   7.505 -0.1250 -0.2053 -0.0516
 4505TIP3    H135074   6.553   3.425   7.472  0.4717  0.0812 -0.0023
 4505TIP3    H235075   6.440   3.522   7.443  0.4867 -0.1142 -0.7465
 4506TIP3   OH235076   0.054   4.927   7.678 -0.2782 -0.0136 -0.2673
 4506TIP3    H135077   0.068   4.992   7.609  0.5499 -0.9523 -1.0183
 4506TIP3    H235078   0.132   4.872   7.674 -1.6012 -1.9663 -0.6756
 4507TIP3   OH235079   3.775   2.528   0.823  0.0529 -0.1263 -0.2440
 4507TIP3    H135080   3.772   2.432   0.821 -0.5922 -0.1323  0.5585
 4507TIP3    H235081   3.740   2.551   0.909  0.7855  0.8155 -0.1832
 4508TIP3   OH235082   6.436   1.930   1.283 -0.2703  0.0969 -0.6508
 4508TIP3    H135083   6.444   2.021   1.256 -0.4937  0.6239  0.9629
 4508TIP3    H235084   6.344   1.919   1.304  0.0355 -0.0252  0.7008
 4509TIP3   OH235085   5.738   3.261   6.596 -0.0273  0.1283 -0.7045
 4509TIP3    H135086   5.754   3.292   6.507 -0.7941 -0.9852 -1.2597
 4509TIP3    H235087   5.647   3.230   6.594 -0.2684  0.6883  0.6552
 4510TIP3   OH235088   5.432   5.545   1.779 -0.1285 -0.4306 -0.4368
 4510TIP3    H135089   5.500   5.611   1.795  0.8113 -1.7402  1.3232
 4510TIP3    H235090   5.413   5.552   1.686  1.2131  1.1114 -0.6348
 4511TIP3   OH235091   3.183   4.723   1.182 -0.1831  0.2355 -0.3787
 4511TIP3    H135092   3.183   4.721   1.278  0.0680  1.0402 -0.3578
 4511TIP3    H235093   3.254   4.783   1.159 -1.9224  2.1832 -1.0037
 4512TIP3   OH235094   1.203   3.548   6.637  0.1164  0.0735  0.7620
 4512TIP3    H135095   1.170   3.637   6.650 -1.0089 -0.4355  1.5213
 4512TIP3    H235096   1.215   3.540   6.542  0.9944  1.2813  0.7416
 4513TIP3   OH235097   1.564   6.937   6.945 -0.0669  0.0211  0.1368
 4513TIP3    H135098   1.515   7.006   6.990 -0.5419  1.6259 -2.6025
 4513TIP3    H235099   1.496   6.879   6.909  0.1130  0.5784 -1.1633
 4514TIP3   OH235100   5.163   3.379   7.177 -0.3472  0.3084 -0.3510
 4514TIP3    H135101   5.085   3.339   7.214 -0.1133  0.6568  0.5580
 4514TIP3    H235102   5.131   3.453   7.126 -0.7679 -0.8627 -1.8723
 4515TIP3   OH235103   1.942   5.346   7.024 -0.2097 -0.4092  0.3776
 4515TIP3    H135104   1.883   5.304   6.961 -1.2968  0.5608  0.7278
 4515TIP3    H235105   1.901   5.333   7.109  0.7678 -0.8787  0.7927
 4516TIP3   OH235106   0.286   6.426   7.949 -0.1518  0.0004 -0.2410
 4516TIP3    H135107   0.228   6.365   7.903 -1.2457  1.6093 -1.1087
 4516TIP3    H235108   0.349   6.454   7.882  0.8205 -0.7140  0.3476
 4517TIP3   OH235109   2.995   3.677   0.883 -0.3173  0.0616 -0.2911
 4517TIP3    H135110   3.076   3.628   0.902  0.6129  0.7637 -2.1836
 4517TIP3    H235111   2.975   3.655   0.792 -1.4368  1.0518 -0.3015
 4518TIP3   OH235112   4.252   6.733   1.185 -0.0394 -0.2819  0.1425
 4518TIP3    H135113   4.159   6.753   1.191  0.0359 -0.1677  0.9782
 4518TIP3    H235114   4.291   6.773   1.262  0.6554 -0.6072 -0.0279
 4519TIP3   OH235115   6.706   2.402   1.958 -0.4672 -0.6000 -0.2698
 4519TIP3    H135116   6.635   2.465   1.969  0.2598  0.4622 -1.4145
 4519TIP3    H235117   6.776   2.434   2.016  0.1725  0.0938 -1.3937
 4520TIP3   OH235118   4.128   5.864   6.043  0.2668  0.4806  0.2006
 4520TIP3    H135119   4.094   5.857   6.132  0.1154  0.5278  0.1471
 4520TIP3    H235120   4.133   5.773   6.013 -0.6671  0.5187 -0.1084
 4521TIP3   OH235121   0.362   4.640   0.904 -0.1358  0.2637 -0.0073
 4521TIP3    H135122   0.453   4.630   0.876 -0.1231 -1.4927  0.5345
 4521TIP3    H235123   0.315   4.570   0.858 -0.9821  0.3535  0.7030
 4522TIP3   OH235124   6.915   6.815   0.647  0.4640 -0.4606  0.4104
 4522TIP3    H135125   7.004   6.802   0.617 -0.2404 -1.1621 -1.4935
 4522TIP3    H235126   6.879   6.727   0.656 -1.1450 -0.2226 -2.4969
 4523TIP3   OH235127   0.625   1.950   7.453  0.2923  0.1806 -0.0006
 4523TIP3    H135128   0.554   1.967   7.391 -0.2653 -0.7969  0.3366
 4523TIP3    H235129   0.628   1.854   7.460 -0.3473  0.2624  2.2317
 4524TIP3   OH235130   6.127   1.462   1.433 -0.2204  0.3557  0.5933
 4524TIP3    H135131   6.112   1.534   1.494 -2.4347  1.8862 -1.5690
 4524TIP3    H235132   6.129   1.504   1.347  1.7112 -1.8349 -0.5255
 4525TIP3   OH235133   3.609   6.297   1.825  0.4667  0.3806  0.3361
 4525TIP3    H135134   3.577   6.293   1.735  1.7466  1.1468 -0.1869
 4525TIP3    H235135   3.634   6.208   1.847 -0.9325 -0.0325  0.3785
 4526TIP3   OH235136   3.612   3.611   0.584 -0.3845  0.3763 -0.3369
 4526TIP3    H135137   3.665   3.683   0.550  0.1614 -0.6599 -1.7730
 4526TIP3    H235138   3.536   3.607   0.526  0.6046 -1.4767 -1.6252
 4527TIP3   OH235139   5.319   4.353   0.624 -0.0637  0.3321  0.0084
 4527TIP3    H135140   5.369   4.354   0.707  0.8682  0.1508 -0.5333
 4527TIP3    H235141   5.348   4.273   0.580 -2.5242 -0.9992  0.6429
 4528TIP3   OH235142   5.258   2.393   6.502 -0.4810 -0.0752  0.1926
 4528TIP3    H135143   5.316   2.383   6.577 -0.1446  0.2509 -0.0247
 4528TIP3    H235144   5.304   2.452   6.443  0.2003 -1.8987 -1.2090
 4529TIP3   OH235145   2.006   7.055   7.076  0.0329 -0.4831  0.5018
 4529TIP3    H135146   1.974   7.021   6.992  1.1059  0.5264 -0.3472
 4529TIP3    H235147   2.020   6.977   7.130 -0.2717 -1.1780 -0.4002
 4530TIP3   OH235148   6.180   6.593   6.462  0.1338  0.4370  0.1789
 4530TIP3    H135149   6.189   6.662   6.527  0.3633  0.7771 -0.2107
 4530TIP3    H235150   6.267   6.552   6.458  0.1189  0.4145  0.0883
 4531TIP3   OH235151   7.045   3.328   0.908 -0.5347  0.1715 -0.0537
 4531TIP3    H135152   7.072   3.349   0.997  1.1957  1.7031 -0.8859
 4531TIP3    H235153   7.018   3.411   0.870 -1.7790 -0.5411 -0.8351
 4532TIP3   OH235154   6.404   6.962   7.326 -0.1678 -0.0780  0.4242
 4532TIP3    H135155   6.470   6.923   7.268 -0.4525 -1.6105  1.0844
 4532TIP3    H235156   6.381   7.045   7.284 -0.1970 -1.0289 -1.5444
 4533TIP3   OH235157   2.586   4.980   6.732 -0.3108 -0.1289 -0.0939
 4533TIP3    H135158   2.653   4.911   6.727 -0.3338 -0.0756 -1.2970
 4533TIP3    H235159   2.612   5.044   6.666  0.3455  1.6429  1.7594
 4534TIP3   OH235160   4.805   3.800   6.188 -0.1469  0.3932 -0.4964
 4534TIP3    H135161   4.857   3.804   6.268 -0.0200 -2.1266 -0.3728
 4534TIP3    H235162   4.866   3.768   6.122 -0.8168  0.2725 -1.0640
 4535TIP3   OH235163   2.798   5.504   7.797  0.0438  0.3360 -0.2702
 4535TIP3    H135164   2.866   5.529   7.734 -0.0376  2.5739  0.4583
 4535TIP3    H235165   2.719   5.549   7.767 -1.1048 -1.8711 -0.8454
 4536TIP3   OH235166   1.860   5.297   0.475  0.4175  0.1354 -0.1859
 4536TIP3    H135167   1.930   5.239   0.448 -0.4933 -0.8122 -0.5635
 4536TIP3    H235168   1.871   5.305   0.570  2.1879  1.5832 -0.4528
 4537TIP3   OH235169   0.022   2.734   1.533 -0.3090  0.0061 -0.5862
 4537TIP3    H135170  -0.056   2.789   1.544  0.1853  0.6051 -0.0690
 4537TIP3    H235171   0.090   2.778   1.583  0.6325  0.0284 -1.8486
 4538TIP3   OH235172   1.411   1.746   6.697 -0.2709 -0.6019  0.0879
 4538TIP3    H135173   1.410   1.778   6.607 -1.5198 -2.0661 -0.4805
 4538TIP3    H235174   1.454   1.660   6.691  0.4634 -0.3171  1.0578
 4539TIP3   OH235175   1.866   5.361   2.028 -0.9054  0.0742 -0.6271
 4539TIP3    H135176   1.817   5.282   2.050 -1.9039  0.6364 -0.7479
 4539TIP3    H235177   1.907   5.388   2.110  1.5906 -1.9523 -1.0946
 4540TIP3   OH235178   5.084   6.399   0.856  0.5454  0.3456  0.5538
 4540TIP3    H135179   5.143   6.432   0.789  0.5662  1.1427  0.9465
 4540TIP3    H235180   5.032   6.476   0.882  0.5272  0.0482  1.4285
 4541TIP3   OH235181   3.832   3.325   7.040 -0.1367 -0.2503 -0.1719
 4541TIP3    H135182   3.887   3.247   7.042 -2.0078 -1.6744 -0.4810
 4541TIP3    H235183   3.891   3.397   7.060  2.6100 -1.1417 -3.8988
 4542TIP3   OH235184   4.419   4.791   6.358  0.1715  0.5257  0.0372
 4542TIP3    H135185   4.398   4.726   6.425  0.2416 -0.2150 -0.6321
 4542TIP3    H235186   4.511   4.774   6.336  0.0375  0.4903 -0.5229
 4543TIP3   OH235187   2.603   2.356   0.356 -0.4104  0.1134 -0.1132
 4543TIP3    H135188   2.683   2.409   0.360  1.7582 -2.8740 -0.0878
 4543TIP3    H235189   2.588   2.343   0.263  0.7545 -1.4118 -0.1344
 4544TIP3   OH235190   6.085   1.969   1.186  0.2155 -0.4288 -0.3396
 4544TIP3    H135191   6.114   2.011   1.268  0.2162 -2.0479  0.5268
 4544TIP3    H235192   6.071   2.042   1.126  2.1780  0.6879  0.4644
 4545TIP3   OH235193   2.573   2.524   0.834 -0.0907  0.3165  0.1729
 4545TIP3    H135194   2.629   2.538   0.759  0.1631  0.8645  0.4595
 4545TIP3    H235195   2.594   2.436   0.864  1.1406  0.7785  0.7119
 4546TIP3   OH235196   0.984   2.834   0.194  0.2881  0.4731 -0.2085
 4546TIP3    H135197   0.889   2.827   0.208 -0.0391  0.0370 -2.2729
 4546TIP3    H235198   1.012   2.902   0.255 -1.5514  1.3645 -0.2683
 4547TIP3   OH235199   1.379   2.548   1.257 -0.3507 -0.1184 -0.8125
 4547TIP3    H135200   1.423   2.505   1.184  1.9888  2.0171 -0.8052
 4547TIP3    H235201   1.441   2.542   1.330 -0.9258  1.1690 -0.1729
 4548TIP3   OH235202   1.619   5.484   1.172 -0.3054 -0.1176 -0.0100
 4548TIP3    H135203   1.703   5.473   1.127 -0.5246  1.0890 -0.7595
 4548TIP3    H235204   1.574   5.552   1.121 -1.7018 -0.6949  0.4243
 4549TIP3   OH235205   5.269   3.020   7.232  0.4392  0.6167 -0.3582
 4549TIP3    H135206   5.252   2.933   7.196 -0.4192  1.0394 -1.0242
 4549TIP3    H235207   5.344   3.052   7.183  0.8713  0.1854  0.0123
 4550TIP3   OH235208   3.128   1.374   6.364  0.5842 -0.0286 -0.1170
 4550TIP3    H135209   3.143   1.342   6.454 -0.0941  0.3849  0.1500
 4550TIP3    H235210   3.120   1.469   6.374 -0.2878 -0.0559 -0.5019
 4551TIP3   OH235211   2.339   0.670   1.432 -0.3063  0.1234  0.0112
 4551TIP3    H135212   2.386   0.750   1.455  0.0182 -0.0411 -0.0769
 4551TIP3    H235213   2.407   0.609   1.405 -0.5262 -0.2861  0.3749
 4552TIP3   OH235214   4.622   4.897   7.438  0.0331 -0.2369  0.2488
 4552TIP3    H135215   4.652   4.969   7.492  1.1871 -0.1453 -0.4814
 4552TIP3    H235216   4.689   4.830   7.447  1.3228  0.5235 -2.5415
 4553TIP3   OH235217   1.795   6.960   1.003 -0.6026  0.0367 -0.7603
 4553TIP3    H135218   1.811   6.867   0.983  0.6631  0.3020 -1.0482
 4553TIP3    H235219   1.747   6.992   0.926 -1.3916 -0.4572 -0.4887
 4554TIP3   OH235220   1.391   6.636   0.474  0.1278 -0.9500 -0.3494
 4554TIP3    H135221   1.428   6.619   0.388 -0.5746  0.4172 -0.9384
 4554TIP3    H235222   1.438   6.712   0.507  1.0916 -2.0410  0.9357
 4555TIP3   OH235223   1.433   6.959   6.582  0.3834 -0.1348 -0.4136
 4555TIP3    H135224   1.511   6.927   6.628  0.6855  0.5648 -0.4309
 4555TIP3    H235225   1.448   6.936   6.491  0.6780  0.2028 -0.4510
 4556TIP3   OH235226   5.015   5.539   1.375 -0.1831 -0.6021 -0.3163
 4556TIP3    H135227   5.059   5.553   1.458  1.6701 -1.2700 -1.1270
 4556TIP3    H235228   4.967   5.621   1.359  0.1063 -0.1608  1.0045
 4557TIP3   OH235229   6.725   2.664   5.776 -0.7264  0.0217  0.4362
 4557TIP3    H135230   6.796   2.691   5.717 -1.0381 -0.9663 -0.4227
 4557TIP3    H235231   6.766   2.658   5.862 -0.4436  2.2988  0.5197
 4558TIP3   OH235232   1.091   6.093   0.330 -0.1102 -0.2469  0.5124
 4558TIP3    H135233   1.022   6.052   0.382  0.3335 -0.6805  0.7748
 4558TIP3    H235234   1.049   6.167   0.287 -1.0430 -1.1993 -0.2752
 4559TIP3   OH235235   1.907   5.496   1.053  0.1382 -0.1735  0.4214
 4559TIP3    H135236   1.965   5.422   1.035  2.4168  1.0221  2.2848
 4559TIP3    H235237   1.882   5.528   0.966  2.6328 -0.5262 -0.5136
 4560TIP3   OH235238   4.857   4.187   0.113  0.7150 -0.4229 -0.7140
 4560TIP3    H135239   4.857   4.093   0.130 -0.2904 -0.4338 -0.7487
 4560TIP3    H235240   4.948   4.207   0.090  0.9466 -1.3728 -0.6598
 4561TIP3   OH235241   1.276   2.192   1.428  0.4848 -0.4486  0.5186
 4561TIP3    H135242   1.241   2.272   1.467  0.5759 -0.1603  0.0117
 4561TIP3    H235243   1.370   2.198   1.441  0.4630 -0.6251  0.7612
 4562TIP3   OH235244   2.880   6.750   0.819  0.3299 -0.2745 -0.0573
 4562TIP3    H135245   2.905   6.717   0.733  2.3927  1.2255 -0.1106
 4562TIP3    H235246   2.938   6.705   0.880 -1.1127 -1.3223  0.5995
 4563TIP3   OH235247   2.595   1.492   1.222 -0.3895  0.2455  0.4052
 4563TIP3    H135248   2.631   1.502   1.134 -2.2206 -0.7379 -0.5130
 4563TIP3    H235249   2.619   1.404   1.248 -0.8882  0.1030  0.3866
 4564TIP3   OH235250   0.049   4.861   1.325 -0.0119  0.2588 -0.1659
 4564TIP3    H135251   0.066   4.879   1.233  0.0145  0.7309 -0.0677
 4564TIP3    H235252   0.063   4.766   1.333  0.0122  0.2187 -0.6389
 4565TIP3   OH235253   2.089   4.349   1.131 -0.2322 -0.3494  0.3259
 4565TIP3    H135254   2.180   4.356   1.162 -0.7009 -2.7847  2.6192
 4565TIP3    H235255   2.098   4.335   1.037  1.8067 -0.6508  0.4981
 4566TIP3   OH235256   5.055   3.909   6.915  0.2627 -0.5314 -0.0289
 4566TIP3    H135257   4.970   3.886   6.876 -0.2216  0.2402  0.5351
 4566TIP3    H235258   5.033   3.936   7.004  0.9725  0.6875 -0.2104
 4567TIP3   OH235259   0.231   4.211   7.373  0.0274 -0.1016  0.3081
 4567TIP3    H135260   0.140   4.184   7.361  0.1655 -0.0249 -1.1739
 4567TIP3    H235261   0.282   4.131   7.360  0.1608 -0.2397  1.5948
 4568TIP3   OH235262   0.159   4.030   6.477  0.6025 -0.2715 -0.3863
 4568TIP3    H135263   0.143   4.008   6.385 -0.4474  2.9891 -1.0936
 4568TIP3    H235264   0.201   4.115   6.475 -0.3361  0.3452  2.1692
 4569TIP3   OH235265   3.280   5.371   1.564  0.5502 -0.4631  0.3865
 4569TIP3    H135266   3.271   5.456   1.520 -0.7775 -1.0457 -0.5191
 4569TIP3    H235267   3.310   5.312   1.496 -1.1494 -1.2898  0.3106
 4570TIP3   OH235268   5.970   5.557   1.286  0.7399 -0.3364 -0.0916
 4570TIP3    H135269   5.919   5.632   1.254 -0.4235 -0.4866  1.3199
 4570TIP3    H235270   6.017   5.526   1.209 -0.3398  0.5853 -1.1663
 4571TIP3   OH235271   7.156   5.562   7.467  0.1104 -0.0028 -0.0539
 4571TIP3    H135272   7.219   5.537   7.534 -0.7162 -0.5141  0.5412
 4571TIP3    H235273   7.210   5.584   7.391  0.9623 -1.8431 -0.0204
 4572TIP3   OH235274   5.949   7.006   0.083  0.5385 -0.1147 -0.0722
 4572TIP3    H135275   5.984   6.999  -0.006  0.0681 -0.5589 -0.2261
 4572TIP3    H235276   5.854   7.006   0.071  0.4693  1.0768  0.3355
 4573TIP3   OH235277   1.776   3.130   0.028  0.6269  0.4572 -0.1246
 4573TIP3    H135278   1.708   3.178   0.074  0.4970  1.6430 -1.4600
 4573TIP3    H235279   1.736   3.046   0.005  0.5531  0.0382  1.4572
 4574TIP3   OH235280   3.313   6.233   6.628  0.1420 -0.5667 -0.0328
 4574TIP3    H135281   3.329   6.301   6.562 -0.4704 -3.3989 -3.3519
 4574TIP3    H235282   3.225   6.251   6.660  0.9150  1.5961  1.0661
 4575TIP3   OH235283   0.840   0.483   7.649 -0.6032 -0.2971 -0.0153
 4575TIP3    H135284   0.924   0.489   7.605  0.0934 -3.2186  0.6498
 4575TIP3    H235285   0.811   0.573   7.660  1.4815  0.7107 -2.0186
 4576TIP3   OH235286   3.805   4.639   1.601  0.5158  0.6043 -0.2404
 4576TIP3    H135287   3.710   4.647   1.602  0.2809 -1.3201  2.1464
 4576TIP3    H235288   3.836   4.721   1.638 -0.3210  0.5941  0.5084
 4577TIP3   OH235289   2.524   5.915   1.367  0.5121 -0.3234 -0.0030
 4577TIP3    H135290   2.436   5.895   1.336 -0.0242  2.7256 -0.7629
 4577TIP3    H235291   2.553   5.988   1.311  1.9530  1.3771  2.7653
 4578TIP3   OH235292   2.560   2.553   6.558 -0.3567 -0.5002  0.1037
 4578TIP3    H135293   2.631   2.511   6.510  1.6236  2.7825 -0.1252
 4578TIP3    H235294   2.553   2.503   6.639  0.4232 -2.4208 -0.9204
 4579TIP3   OH235295   2.222   0.964   1.703 -0.2535 -0.3286 -0.3023
 4579TIP3    H135296   2.147   0.983   1.760  0.9867  1.5332  0.8452
 4579TIP3    H235297   2.232   1.042   1.649 -0.2338 -1.3092 -1.7646
 4580TIP3   OH235298   5.913   5.066   1.146 -0.0711 -0.6565 -0.5703
 4580TIP3    H135299   5.839   5.019   1.182 -1.7472  1.6118 -0.8128
 4580TIP3    H235300   5.939   5.127   1.216 -1.0554  1.2996 -1.8256
 4581TIP3   OH235301   6.064   0.657   6.637 -0.1255 -0.6549  0.0456
 4581TIP3    H135302   6.005   0.649   6.563 -0.7194 -0.2129  0.4620
 4581TIP3    H235303   6.152   0.648   6.600 -0.4683 -2.0521 -0.4765
 4582TIP3   OH235304   5.732   6.843   0.340  0.1051  0.3819 -0.2680
 4582TIP3    H135305   5.680   6.913   0.299  0.6689  0.8406 -0.2165
 4582TIP3    H235306   5.807   6.833   0.282  1.1293  1.3181  0.8424
 4583TIP3   OH235307   0.756   0.994   0.367  0.4089  0.0590  0.3463
 4583TIP3    H135308   0.702   0.916   0.355 -0.6793  0.9152 -0.5113
 4583TIP3    H235309   0.775   1.024   0.278  0.9523  0.6861  0.6615
 4584TIP3   OH235310   6.472   0.197   8.008  0.1378  0.3337 -0.5564
 4584TIP3    H135311   6.547   0.145   8.035 -0.0339  0.4988  0.2581
 4584TIP3    H235312   6.445   0.159   7.924 -1.6850 -2.7772  1.2517
 4585TIP3   OH235313   1.268   5.920   7.666 -1.1461  0.1606 -0.4366
 4585TIP3    H135314   1.362   5.933   7.682 -1.4903  2.8072 -0.1197
 4585TIP3    H235315   1.251   5.969   7.586 -2.5513  1.2170  0.4629
 4586TIP3   OH235316   2.569   0.499   1.405  0.3836  0.0693  0.2466
 4586TIP3    H135317   2.551   0.409   1.380  0.4290  0.2440 -0.4544
 4586TIP3    H235318   2.594   0.495   1.497 -0.2726 -0.5462  0.4024
 4587TIP3   OH235319   3.421   1.941   1.581  0.1355  0.3601 -0.8244
 4587TIP3    H135320   3.411   1.906   1.670  0.6637 -2.0558 -1.6442
 4587TIP3    H235321   3.513   1.929   1.561 -0.0613  0.5082 -1.8717
 4588TIP3   OH235322   1.538   5.597   6.640  0.0493 -0.4537 -0.7148
 4588TIP3    H135323   1.589   5.676   6.623  1.0178 -1.1896 -1.4107
 4588TIP3    H235324   1.479   5.591   6.565 -0.1222 -0.3121 -0.5905
 4589TIP3   OH235325   3.195   0.667   7.535  0.0457  0.2286 -0.1305
 4589TIP3    H135326   3.263   0.600   7.536  0.4116  0.5103 -2.1704
 4589TIP3    H235327   3.117   0.620   7.504  0.2991  0.6895 -1.5515
 4590TIP3   OH235328   6.251   6.447   7.385  0.1553  0.1644 -0.0663
 4590TIP3    H135329   6.282   6.378   7.327 -0.9863 -2.2678  2.0670
 4590TIP3    H235330   6.182   6.491   7.334  2.1283  1.0572 -2.1383
 4591TIP3   OH235331   1.798   5.818   6.873  0.0474  0.2764  0.2329
 4591TIP3    H135332   1.735   5.745   6.871 -0.1369  0.4504 -0.7231
 4591TIP3    H235333   1.753   5.887   6.921 -0.2672  0.1995  0.0518
 4592TIP3   OH235334   0.522   0.454   0.894  0.0737 -0.5008 -0.1653
 4592TIP3    H135335   0.585   0.389   0.922 -0.9414 -1.5773 -0.2961
 4592TIP3    H235336   0.449   0.403   0.858 -1.2286  0.6642  0.7204
 4593TIP3   OH235337   5.444   2.786   2.167  0.0371  0.5854 -0.6787
 4593TIP3    H135338   5.398   2.763   2.248  0.9683  1.2693  0.0702
 4593TIP3    H235339   5.379   2.835   2.116  0.2919  2.8235  0.9844
 4594TIP3   OH235340   4.294   2.696   7.306 -0.2501  0.4644 -0.4550
 4594TIP3    H135341   4.346   2.715   7.384 -0.4237  0.0542 -0.2365
 4594TIP3    H235342   4.340   2.740   7.235 -1.0381  2.3382  0.1358
 4595TIP3   OH235343   2.563   6.892   1.982 -0.3247 -0.7746 -0.7176
 4595TIP3    H135344   2.495   6.859   2.040 -1.4264 -0.0720 -1.5645
 4595TIP3    H235345   2.616   6.950   2.037  0.8385 -2.8288  0.4498
 4596TIP3   OH235346   1.749   0.917   0.667 -0.2776 -0.2152  0.0613
 4596TIP3    H135347   1.811   0.845   0.679 -0.6524 -0.6119 -0.3422
 4596TIP3    H235348   1.801   0.988   0.630 -0.2829 -0.9475 -1.4123
 4597TIP3   OH235349   1.543   5.213   6.107 -1.3312 -0.4648  0.6536
 4597TIP3    H135350   1.617   5.237   6.051 -1.0696 -0.3396  1.0422
 4597TIP3    H235351   1.558   5.121   6.129 -2.2046 -0.9378 -0.6397
 4598TIP3   OH235352   3.472   0.144   6.794  0.0742 -0.1281 -0.1324
 4598TIP3    H135353   3.493   0.188   6.876  1.0181 -1.3405  0.3064
 4598TIP3    H235354   3.378   0.158   6.783  0.5994  3.9593 -1.2386
 4599TIP3   OH235355   3.906   1.278   5.735 -0.3871 -0.1573 -0.2455
 4599TIP3    H135356   3.853   1.268   5.815 -1.5525 -1.2614 -1.1069
 4599TIP3    H235357   3.872   1.357   5.695  0.6407  0.7660  0.6364
 4600TIP3   OH235358   4.302   6.416   7.662 -0.1636 -0.2916  0.2970
 4600TIP3    H135359   4.209   6.436   7.649 -0.4703 -1.3072  0.8125
 4600TIP3    H235360   4.346   6.501   7.652 -0.9087 -0.0956 -1.8363
 4601TIP3   OH235361   4.029   1.094   6.645  0.1080  0.5842 -0.7678
 4601TIP3    H135362   4.005   1.178   6.684  2.4397  0.6322  0.7893
 4601TIP3    H235363   3.959   1.035   6.671 -0.4296  1.5525  0.0856
 4602TIP3   OH235364   1.299   6.105   1.085 -0.2926  0.2567 -0.4113
 4602TIP3    H135365   1.322   6.145   1.002 -0.5383 -0.0718 -0.6381
 4602TIP3    H235366   1.355   6.027   1.091 -1.1134 -0.3855 -0.8325
 4603TIP3   OH235367   1.761   5.623   7.263  0.4128 -0.0180 -0.4995
 4603TIP3    H135368   1.798   5.659   7.344  0.9007 -1.8233  0.1490
 4603TIP3    H235369   1.828   5.638   7.197  1.1496 -0.8053  0.0424
 4604TIP3   OH235370   6.383   6.454   7.628 -0.7496  0.1628  0.0364
 4604TIP3    H135371   6.341   6.465   7.543 -0.2539 -0.1723 -0.2558
 4604TIP3    H235372   6.468   6.495   7.619 -1.5257  2.1536  1.0819
 4605TIP3   OH235373   2.295   6.095   0.532  0.3410  0.2190  0.4252
 4605TIP3    H135374   2.232   6.037   0.490  0.7042 -0.4702  0.8046
 4605TIP3    H235375   2.346   6.132   0.460  0.1244  0.0390  0.1810
 4606TIP3   OH235376   3.433   5.811   8.015  0.1458  0.3156  1.2810
 4606TIP3    H135377   3.502   5.856   8.065  1.7604 -0.5352 -0.0783
 4606TIP3    H235378   3.433   5.722   8.048  1.2294 -0.2563 -0.1627
 4607TIP3   OH235379   3.158   2.404   1.340 -0.3248  0.4876 -0.0657
 4607TIP3    H135380   3.128   2.374   1.426 -1.3227 -1.3314 -1.0124
 4607TIP3    H235381   3.170   2.324   1.289  1.7416  1.4346 -1.1831
 4608TIP3   OH235382   1.671   1.575   7.281  0.2595  0.3574  0.5206
 4608TIP3    H135383   1.628   1.588   7.366 -0.5853  0.8509  0.0294
 4608TIP3    H235384   1.727   1.499   7.294 -2.3117 -1.6727  0.6029
 4609TIP3   OH235385   6.886   6.387   0.511 -0.4307 -0.2627 -0.7143
 4609TIP3    H135386   6.952   6.324   0.539  0.7652  0.7673 -1.1174
 4609TIP3    H235387   6.850   6.350   0.430  0.6832 -0.1669 -1.2768
 4610TIP3   OH235388   5.464   6.588   5.993 -0.6654  0.0600 -0.0648
 4610TIP3    H135389   5.391   6.626   5.943 -1.2885  0.3836  1.0583
 4610TIP3    H235390   5.456   6.628   6.080 -0.9759 -2.1864  0.9936
 4611TIP3   OH235391   2.517   0.340   5.649  0.7995  0.1373 -0.0063
 4611TIP3    H135392   2.495   0.385   5.567  0.6147 -0.0303 -0.0480
 4611TIP3    H235393   2.514   0.409   5.715  0.7241  0.2277 -0.1038
 4612TIP3   OH235394   5.124   4.810   0.378  0.0983 -0.4295  0.0974
 4612TIP3    H135395   5.213   4.838   0.401  0.0602 -0.8699  0.7977
 4612TIP3    H235396   5.113   4.839   0.287  1.3698 -1.3704 -0.3830
 4613TIP3   OH235397   3.586   1.478   6.615 -0.1007 -0.8550 -0.3846
 4613TIP3    H135398   3.505   1.433   6.640 -0.2591  0.0585  0.8271
 4613TIP3    H235399   3.578   1.491   6.521 -1.6702 -0.2227 -0.2022
 4614TIP3   OH235400   3.703   1.335   0.924  0.1442  0.0855 -0.4109
 4614TIP3    H135401   3.791   1.301   0.910 -0.1274 -0.2819 -1.2959
 4614TIP3    H235402   3.705   1.424   0.889  1.3440  1.8010  3.4427
 4615TIP3   OH235403   2.701   4.834   0.562  0.0942 -0.4349 -0.3251
 4615TIP3    H135404   2.739   4.881   0.636  2.6759 -0.7745 -1.3161
 4615TIP3    H235405   2.616   4.803   0.593  1.1432 -0.6829  2.5431
 4616TIP3   OH235406   1.758   6.479   1.009  0.2959 -0.4089  0.0317
 4616TIP3    H135407   1.775   6.426   0.931  1.4271  0.6579 -0.4945
 4616TIP3    H235408   1.755   6.416   1.080  0.8442 -1.2648 -0.6716
 4617TIP3   OH235409   6.213   5.294   2.016  0.8281  0.2993  0.0909
 4617TIP3    H135410   6.144   5.353   2.048  0.1494 -0.5728  0.2968
 4617TIP3    H235411   6.294   5.342   2.030  0.2559  1.4018 -0.2612
 4618TIP3   OH235412   4.349   7.087   7.921 -0.2080 -0.1145  0.3483
 4618TIP3    H135413   4.339   7.060   8.012 -3.5167  0.2868  0.2394
 4618TIP3    H235414   4.357   7.182   7.925 -2.4653  0.1552  0.2658
 4619TIP3   OH235415   6.249   4.237   0.835  0.3513 -0.2375  0.9911
 4619TIP3    H135416   6.167   4.261   0.792 -0.2863  0.0292  2.2890
 4619TIP3    H235417   6.259   4.303   0.904  2.4391  0.6275 -0.0530
 4620TIP3   OH235418   6.223   6.888   6.509  0.3364  0.1682 -0.6729
 4620TIP3    H135419   6.232   6.917   6.599  1.2689 -0.0434 -0.6859
 4620TIP3    H235420   6.132   6.907   6.486  0.3712  1.1867 -0.0262
 4621TIP3   OH235421   1.052   0.857   6.686  0.2404  0.1012 -0.3334
 4621TIP3    H135422   1.143   0.886   6.685  0.9272 -1.8579 -0.0556
 4621TIP3    H235423   1.012   0.899   6.610  1.1156  1.7069  0.0493
 4622TIP3   OH235424   1.055   1.534   6.949  0.2574 -0.4417  0.9914
 4622TIP3    H135425   1.030   1.601   7.013 -1.2598  0.8834 -0.8794
 4622TIP3    H235426   0.980   1.474   6.946  0.1651 -0.2965  0.2157
 4623TIP3   OH235427   6.475   5.761   6.847 -0.2888 -0.2039  0.3553
 4623TIP3    H135428   6.410   5.772   6.916 -0.2212 -0.6975  0.5005
 4623TIP3    H235429   6.521   5.680   6.870 -1.7308 -1.6120 -1.4377
 4624TIP3   OH235430   5.002   5.946   6.134 -0.0457 -0.1611  0.1994
 4624TIP3    H135431   5.081   5.976   6.180  0.2236 -0.2354 -0.2116
 4624TIP3    H235432   5.034   5.910   6.052 -0.5397  0.1116 -0.1155
 4625TIP3   OH235433   6.505   4.002   1.883 -0.1082  0.5191 -0.0863
 4625TIP3    H135434   6.530   4.088   1.849 -0.7106  0.1673 -1.4680
 4625TIP3    H235435   6.434   4.022   1.945  1.6205  1.2456  1.7538
 4626TIP3   OH235436   6.313   3.042   8.034  0.5229 -0.4560 -0.1325
 4626TIP3    H135437   6.245   3.055   7.968  0.9338  1.7373 -0.1963
 4626TIP3    H235438   6.387   3.095   8.004  1.0448 -0.1236  1.6017
 4627TIP3   OH235439   0.936   1.333   0.767 -0.3949 -0.0093  0.2503
 4627TIP3    H135440   0.913   1.243   0.788  0.9439 -0.2071  1.0046
 4627TIP3    H235441   0.852   1.378   0.756 -1.1420 -0.7668  2.4023
 4628TIP3   OH235442   0.589   2.818   6.420 -0.4900 -0.2994  0.4655
 4628TIP3    H135443   0.602   2.851   6.509  2.7534 -0.6772  0.2254
 4628TIP3    H235444   0.625   2.885   6.363 -2.4082 -0.1284 -0.6393
 4629TIP3   OH235445   3.074   0.959   0.487  0.1624 -0.5172  0.3425
 4629TIP3    H135446   3.087   1.033   0.428  2.2383 -1.7732 -0.9083
 4629TIP3    H235447   3.091   0.994   0.575 -1.9002  1.1327  0.1611
 4630TIP3   OH235448   3.462   1.773   7.898 -0.2482 -0.0470  0.0422
 4630TIP3    H135449   3.432   1.750   7.810  1.1377 -0.4983 -0.3338
 4630TIP3    H235450   3.459   1.868   7.901 -0.1786 -0.0229 -0.5433
 4631TIP3   OH235451   5.224   1.540   1.139 -0.0440 -0.5117 -0.1016
 4631TIP3    H135452   5.247   1.487   1.063 -2.2050 -0.5478 -0.7984
 4631TIP3    H235453   5.251   1.629   1.116  3.1089 -1.0803  0.8578
 4632TIP3   OH235454   1.071   4.208   0.751 -0.1191 -0.3005 -0.1161
 4632TIP3    H135455   0.991   4.173   0.714  0.8515 -1.8614 -0.8584
 4632TIP3    H235456   1.089   4.153   0.827  0.0372  0.3253  0.3174
 4633TIP3   OH235457   2.323   2.321   0.036  0.1821  0.6888  0.8335
 4633TIP3    H135458   2.282   2.347   0.119 -0.7569  1.4775  0.1387
 4633TIP3    H235459   2.316   2.398  -0.020 -0.2657 -0.2047 -0.3936
 4634TIP3   OH235460   7.157   2.043   0.202  0.0492 -0.2939 -0.3416
 4634TIP3    H135461   7.085   2.106   0.193  0.8736  0.9222  1.1657
 4634TIP3    H235462   7.114   1.957   0.196 -1.5486  0.4027  0.5599
 4635TIP3   OH235463   4.952   6.691   0.895 -0.1788 -0.0836 -0.0305
 4635TIP3    H135464   4.874   6.684   0.840 -0.3086 -0.5620  0.2139
 4635TIP3    H235465   4.918   6.693   0.985 -0.2285  3.6986  0.0460
 4636TIP3   OH235466   2.022   6.979   0.716 -0.0966 -0.2715 -0.0596
 4636TIP3    H135467   2.051   7.014   0.800  0.4232  0.9487 -0.7155
 4636TIP3    H235468   2.098   6.931   0.683 -0.5545 -1.4064  0.4926
 4637TIP3   OH235469   0.497   5.236   1.611  0.6903 -0.1452 -0.7017
 4637TIP3    H135470   0.526   5.192   1.531  0.6644  0.7562 -1.2226
 4637TIP3    H235471   0.564   5.215   1.676 -0.2054 -2.4190 -0.4028
 4638TIP3   OH235472   1.354   6.237   5.775 -0.8276  1.0173  0.2624
 4638TIP3    H135473   1.261   6.216   5.768 -0.8655  0.9064  1.0380
 4638TIP3    H235474   1.362   6.324   5.736 -1.7424  2.2176  2.5486
 4639TIP3   OH235475   6.998   2.949   0.220  0.5848  0.8993  0.2618
 4639TIP3    H135476   6.934   2.926   0.286  1.6558  0.7432  1.2833
 4639TIP3    H235477   7.040   3.028   0.254  1.5842  0.4551  0.1013
 4640TIP3   OH235478   0.555   4.591   0.073  0.0091  0.1187 -0.1024
 4640TIP3    H135479   0.604   4.671   0.053 -0.0637  0.1522 -0.1442
 4640TIP3    H235480   0.534   4.554  -0.012 -0.0315  0.1003 -0.0842
 4641TIP3   OH235481   0.067   0.645   6.579  0.3065  0.4297 -0.2687
 4641TIP3    H135482   0.129   0.624   6.649 -0.3108  0.6455  0.3541
 4641TIP3    H235483  -0.011   0.676   6.625 -0.6449 -0.8097 -1.0035
 4642TIP3   OH235484   6.127   1.697   7.647  0.1160 -0.1807 -0.2113
 4642TIP3    H135485   6.192   1.739   7.590 -0.6236  0.8872 -0.2940
 4642TIP3    H235486   6.071   1.769   7.677  1.9972 -0.1663  4.0038
 4643TIP3   OH235487   2.873   4.151   6.479  0.4325  0.1929  0.2031
 4643TIP3    H135488   2.777   4.157   6.476  0.4849  0.7253 -1.8399
 4643TIP3    H235489   2.893   4.140   6.572 -1.6903 -1.8277  0.5103
 4644TIP3   OH235490   1.007   1.744   7.110 -0.1362 -0.3437  0.7976
 4644TIP3    H135491   1.094   1.778   7.090  0.4887 -2.1828  0.1196
 4644TIP3    H235492   0.978   1.795   7.185  0.9490  1.2127  0.2174
 4645TIP3   OH235493   1.222   5.351   6.787  0.2592  0.2628 -0.3513
 4645TIP3    H135494   1.289   5.399   6.835 -1.4300  0.6104  1.7826
 4645TIP3    H235495   1.269   5.276   6.751  2.4762  2.1717 -1.8101
 4646TIP3   OH235496   6.149   5.367   0.159 -1.2140 -0.4599  0.3852
 4646TIP3    H135497   6.134   5.395   0.250 -0.7989  0.2697  0.2395
 4646TIP3    H235498   6.112   5.438   0.106 -0.2047 -0.2081  0.0017
 4647TIP3   OH235499   6.573   1.103   7.318  0.6006 -0.5744 -0.2502
 4647TIP3    H135500   6.636   1.075   7.252  2.7106  0.8675  1.0089
 4647TIP3    H235501   6.561   1.196   7.302  0.5152 -0.3760  0.8949
 4648TIP3   OH235502   2.599   3.330   0.648 -0.1600 -0.2206 -0.4857
 4648TIP3    H135503   2.587   3.260   0.713 -1.2675  1.8676  1.7161
 4648TIP3    H235504   2.682   3.370   0.670 -1.1602  1.3546  0.5815
 4649TIP3   OH235505   3.401   1.666   5.899 -0.2589 -0.0948 -0.0661
 4649TIP3    H135506   3.390   1.689   5.991  0.6384  1.7369 -0.3526
 4649TIP3    H235507   3.352   1.734   5.851  0.5127 -0.1333 -0.9429
 4650TIP3   OH235508   0.170   6.681   0.745  0.3562  0.2591 -0.7345
 4650TIP3    H135509   0.096   6.626   0.769  0.2755  0.8758  0.5181
 4650TIP3    H235510   0.237   6.620   0.716  0.7353 -0.6689  1.8117
 4651TIP3   OH235511   2.826   2.790   6.565 -0.2774 -0.2282  0.0905
 4651TIP3    H135512   2.812   2.877   6.527 -1.9777 -1.3089 -1.9727
 4651TIP3    H235513   2.756   2.780   6.629  0.9977  0.5625  1.6684
 4652TIP3   OH235514   0.572   3.114   7.015 -0.1415 -0.4864  0.2020
 4652TIP3    H135515   0.477   3.121   7.027  0.1764  2.2726  2.1357
 4652TIP3    H235516   0.604   3.084   7.100  0.7477 -1.2464 -0.3913
 4653TIP3   OH235517   0.614   4.070   6.526  0.0262  0.0311  0.3553
 4653TIP3    H135518   0.655   4.109   6.449 -1.2250 -0.9802 -0.8657
 4653TIP3    H235519   0.646   3.980   6.527 -0.6498 -0.2087  0.5050
 4654TIP3   OH235520   3.777   0.229   1.588 -0.5229  0.1740  0.2640
 4654TIP3    H135521   3.747   0.237   1.678  0.4156 -0.4176  0.6409
 4654TIP3    H235522   3.816   0.142   1.583  1.6385  1.1091 -0.0230
 4655TIP3   OH235523   2.639   5.180   7.992 -0.5101 -0.3082  0.5020
 4655TIP3    H135524   2.594   5.133   7.922 -0.1474  0.9989 -0.6687
 4655TIP3    H235525   2.675   5.112   8.048 -1.4789 -1.3879 -0.1434
 4656TIP3   OH235526   0.594   3.627   7.693 -0.4931 -0.1270  0.0976
 4656TIP3    H135527   0.655   3.568   7.738 -1.4433 -0.6188  0.7835
 4656TIP3    H235528   0.514   3.623   7.745 -0.9035  1.0340 -0.3943
 4657TIP3   OH235529   2.829   2.627   7.006 -0.3175  0.2480  0.1956
 4657TIP3    H135530   2.864   2.668   7.085  2.0537 -0.8797 -0.1884
 4657TIP3    H235531   2.825   2.534   7.026  0.3114 -0.0560 -0.9724
 4658TIP3   OH235532   2.444   3.814   6.484 -0.7297  0.3944 -0.3608
 4658TIP3    H135533   2.451   3.869   6.406 -1.3254 -0.4514 -1.0403
 4658TIP3    H235534   2.524   3.761   6.483 -0.9336  0.0844 -0.6502
 4659TIP3   OH235535   5.404   5.661   6.413 -1.2375 -0.4404 -0.0684
 4659TIP3    H135536   5.484   5.670   6.362 -1.8020 -0.1241 -0.9303
 4659TIP3    H235537   5.432   5.668   6.504  0.2139 -3.8935 -0.1064
 4660TIP3   OH235538   2.178   5.624   7.864  0.4685 -0.6199 -0.3136
 4660TIP3    H135539   2.128   5.639   7.944 -0.0444 -2.2104 -0.3052
 4660TIP3    H235540   2.183   5.529   7.856  1.1568 -0.4922 -1.7822
 4661TIP3   OH235541   0.559   2.825   1.769 -0.7013  0.1847 -0.5332
 4661TIP3    H135542   0.627   2.888   1.794 -1.5518  0.7567  0.4561
 4661TIP3    H235543   0.540   2.778   1.851 -0.7866 -0.6713 -1.0366
 4662TIP3   OH235544   6.893   4.135   7.238  0.6585 -0.0563  0.6647
 4662TIP3    H135545   6.801   4.152   7.217  0.1253 -1.9944  1.2533
 4662TIP3    H235546   6.940   4.212   7.204 -1.1866  1.0879  0.5761
 4663TIP3   OH235547   0.955   2.721   1.507  0.1219 -0.4660 -0.6787
 4663TIP3    H135548   1.030   2.674   1.470  0.6819  0.1108 -0.2822
 4663TIP3    H235549   0.927   2.666   1.581  0.8321 -0.1378 -0.1605
 4664TIP3   OH235550   6.825   1.413   6.550 -0.0916  0.3627 -0.6524
 4664TIP3    H135551   6.824   1.376   6.638 -0.9070  0.5550 -0.5707
 4664TIP3    H235552   6.870   1.497   6.559 -1.8755  1.2962 -0.0141
 4665TIP3   OH235553   3.006   0.265   6.621  0.2696 -0.0436  0.1960
 4665TIP3    H135554   2.990   0.338   6.561  1.4319  1.7494  1.9312
 4665TIP3    H235555   2.931   0.267   6.681 -0.4023 -1.2193 -0.5667
 4666TIP3   OH235556   4.899   4.773   7.322  0.2194  0.0216 -0.1877
 4666TIP3    H135557   4.961   4.834   7.282  0.3629 -0.6785 -1.0609
 4666TIP3    H235558   4.954   4.706   7.362  0.0423 -0.5463 -0.8759
 4667TIP3   OH235559   5.458   2.057   1.851  0.1231 -0.2109 -0.1634
 4667TIP3    H135560   5.493   2.039   1.764 -0.3008  1.6518 -0.7494
 4667TIP3    H235561   5.373   2.013   1.853 -0.3121  0.5620 -1.0784
 4668TIP3   OH235562   6.400   3.298   0.233  0.6811  0.7136  0.1944
 4668TIP3    H135563   6.484   3.325   0.195  1.5357 -0.0050  1.4985
 4668TIP3    H235564   6.422   3.272   0.322 -1.2549  2.3510  1.2184
 4669TIP3   OH235565   5.700   5.885   0.500 -0.3598 -0.4407 -0.1836
 4669TIP3    H135566   5.756   5.825   0.451 -0.7486 -0.0147 -1.1721
 4669TIP3    H235567   5.754   5.913   0.573  1.1796  0.8682 -1.7399
 4670TIP3   OH235568   1.914   3.434   1.226  0.3432 -0.2525  0.0517
 4670TIP3    H135569   1.880   3.486   1.299 -0.5408 -0.8684  0.1034
 4670TIP3    H235570   1.843   3.433   1.162  1.6704  1.5427 -1.5235
 4671TIP3   OH235571   4.764   7.085   6.428  0.1524 -0.0927  0.1588
 4671TIP3    H135572   4.828   7.052   6.365 -1.4590 -2.1017 -0.5070
 4671TIP3    H235573   4.704   7.013   6.442 -2.1717  1.7895  0.5508
 4672TIP3   OH235574   5.952   2.108   8.000 -0.7973  0.3158  0.3517
 4672TIP3    H135575   5.889   2.115   7.928 -0.7678  0.1788  0.3129
 4672TIP3    H235576   5.949   2.016   8.026  0.4980 -0.0425 -0.6529
 4673TIP3   OH235577   2.121   1.755   7.806  0.4780 -0.4795  0.0697
 4673TIP3    H135578   2.076   1.670   7.798  1.1862 -0.9399  0.8057
 4673TIP3    H235579   2.100   1.784   7.895  1.0049 -0.3335  0.1474
 4674TIP3   OH235580   1.229   3.706   0.861  0.6410 -0.1732 -0.5489
 4674TIP3    H135581   1.150   3.679   0.814 -0.0103 -0.3304  0.5957
 4674TIP3    H235582   1.235   3.801   0.847 -0.2409 -0.0180  0.0433
 4675TIP3   OH235583   0.213   5.052   1.520 -0.5723  0.1836 -0.0244
 4675TIP3    H135584   0.147   4.991   1.487 -0.2701 -1.0276  1.4852
 4675TIP3    H235585   0.296   5.006   1.508 -0.3927 -0.0083  1.6540
 4676TIP3   OH235586   0.404   3.451   7.049  0.0493 -0.0918 -0.3688
 4676TIP3    H135587   0.322   3.415   7.082  0.4051  0.0690  0.7635
 4676TIP3    H235588   0.438   3.384   6.991  0.3435 -1.3064  1.1302
 4677TIP3   OH235589   0.596   4.594   0.786  0.0406  0.0534  0.4844
 4677TIP3    H135590   0.662   4.564   0.850  0.9901 -0.1610 -0.5579
 4677TIP3    H235591   0.608   4.536   0.711 -0.6224  0.7083 -0.1388
 4678TIP3   OH235592   6.530   4.249   1.500 -0.1689 -0.1532  0.0440
 4678TIP3    H135593   6.532   4.240   1.595 -2.2688 -1.2030  0.0531
 4678TIP3    H235594   6.621   4.260   1.474  0.3475  1.1167  2.2448
 4679TIP3   OH235595   3.939   1.540   7.027 -0.1523 -0.3663  0.3178
 4679TIP3    H135596   3.924   1.628   7.061  1.1724 -0.2096  0.5621
 4679TIP3    H235597   3.914   1.482   7.099 -1.1495 -0.2189  0.1116
 4680TIP3   OH235598   0.919   7.077   7.808  0.2314 -0.2369 -0.3606
 4680TIP3    H135599   0.842   7.132   7.795 -0.1727 -0.8751 -0.7394
 4680TIP3    H235600   0.893   7.015   7.876  0.1985 -0.8264 -0.9018
 4681TIP3   OH235601   4.822   5.665   5.998  0.3455  0.6444 -0.0164
 4681TIP3    H135602   4.804   5.653   5.904 -1.2436 -3.9072  0.6287
 4681TIP3    H235603   4.745   5.711   6.031 -0.5413 -0.3983 -0.5573
 4682TIP3   OH235604   0.235   5.575   7.601  0.0308  0.1326  0.3389
 4682TIP3    H135605   0.249   5.664   7.632 -0.1119 -0.2843  1.6707
 4682TIP3    H235606   0.298   5.564   7.530 -0.2061  1.4065 -0.0882
 4683TIP3   OH235607   1.994   4.182   7.286 -0.5148 -0.3954 -0.6027
 4683TIP3    H135608   1.907   4.148   7.265 -0.7492  0.3736 -0.9300
 4683TIP3    H235609   2.040   4.108   7.325 -0.8769 -1.1874 -1.6270
 4684TIP3   OH235610   2.255   3.915   1.305  0.2040  0.4325  0.0844
 4684TIP3    H135611   2.186   3.857   1.337 -0.8772  1.1370 -0.8882
 4684TIP3    H235612   2.324   3.856   1.276 -1.0221 -0.4190 -1.2111
 4685TIP3   OH235613   2.878   3.480   0.634 -0.4288  0.0253  0.1552
 4685TIP3    H135614   2.887   3.439   0.548 -1.6520 -0.9489  0.4604
 4685TIP3    H235615   2.869   3.574   0.615 -0.1732 -0.1180 -0.7266
 4686TIP3   OH235616   4.093   4.020   6.635 -0.2792  0.0064 -0.3367
 4686TIP3    H135617   4.010   3.981   6.664 -1.0573 -0.0076 -2.3722
 4686TIP3    H235618   4.070   4.111   6.616 -0.0596 -0.2151 -1.7427
 4687TIP3   OH235619   1.906   3.270   1.532 -0.0346  0.1661 -0.0044
 4687TIP3    H135620   1.881   3.354   1.570 -0.0654  1.3192 -2.4025
 4687TIP3    H235621   1.993   3.252   1.567  0.3515  1.6740 -0.1239
 4688TIP3   OH235622   2.520   4.181   1.464  0.4158  0.1441  0.0800
 4688TIP3    H135623   2.525   4.248   1.532  0.6801 -0.0678  0.2729
 4688TIP3    H235624   2.431   4.188   1.429  0.5308  0.7738 -0.0849
 4689TIP3   OH235625   0.223   2.077   0.063  0.4322 -0.3820 -0.5858
 4689TIP3    H135626   0.314   2.046   0.065  1.0350  0.8750 -3.0906
 4689TIP3    H235627   0.171   1.999   0.050  1.0875 -1.1705  1.2489
 4690TIP3   OH235628   5.245   2.198   0.412  0.6913  0.4029 -0.1952
 4690TIP3    H135629   5.161   2.233   0.385  1.2812  1.7759 -0.3065
 4690TIP3    H235630   5.250   2.214   0.507  1.2806  1.3243 -0.3744
 4691TIP3   OH235631   5.120   5.936   1.256  0.1246  0.0840  0.0702
 4691TIP3    H135632   5.045   5.902   1.306 -0.3951 -0.1543 -0.8484
 4691TIP3    H235633   5.116   5.890   1.172  0.4353  1.1537 -0.5492
 4692TIP3   OH235634   3.150   1.066   6.751 -0.0119 -0.6075 -0.9966
 4692TIP3    H135635   3.146   1.065   6.847  0.4447  0.1998 -0.9539
 4692TIP3    H235636   3.170   0.976   6.726 -1.4296 -1.1045 -0.4091
 4693TIP3   OH235637   3.659   0.289   0.145 -0.1772 -0.5416  0.1813
 4693TIP3    H135638   3.564   0.291   0.156  0.0770  0.2260  2.9887
 4693TIP3    H235639   3.686   0.203   0.179  0.2111 -0.3021  0.4929
 4694TIP3   OH235640   3.349   0.795   7.325  0.1264 -0.7706 -0.0044
 4694TIP3    H135641   3.345   0.890   7.320  1.7317 -0.6963 -0.1779
 4694TIP3    H235642   3.284   0.772   7.392 -0.7427  0.3736 -0.4273
 4695TIP3   OH235643   1.306   1.343   7.339  0.4027 -0.0102  0.8611
 4695TIP3    H135644   1.268   1.426   7.313  0.2664 -0.5689 -0.8515
 4695TIP3    H235645   1.384   1.334   7.283  0.1080 -1.2688  0.6211
 4696TIP3   OH235646   5.088   6.690   7.175  0.4006  0.4540 -0.0575
 4696TIP3    H135647   5.020   6.754   7.195 -1.0835 -0.8694 -0.6601
 4696TIP3    H235648   5.076   6.672   7.082  0.8565 -0.6147  0.0796
 4697TIP3   OH235649   4.828   6.654   7.615  0.0243  0.3475  0.0745
 4697TIP3    H135650   4.816   6.741   7.576  2.2476  0.1371 -1.2226
 4697TIP3    H235651   4.748   6.607   7.593 -0.6335  1.6418 -0.4005
 4698TIP3   OH235652   6.590   3.385   0.819 -0.0097  0.6371 -0.6001
 4698TIP3    H135653   6.609   3.332   0.897 -2.4522  2.1383  1.1775
 4698TIP3    H235654   6.500   3.361   0.796 -0.6744  2.8895 -0.5873
 4699TIP3   OH235655   6.691   2.451   0.870 -0.3720 -0.4754 -0.2255
 4699TIP3    H135656   6.780   2.431   0.841  0.3079  0.2327  1.2484
 4699TIP3    H235657   6.660   2.370   0.910 -0.9431 -1.1497 -1.9540
 4700TIP3   OH235658   4.403   5.461   1.375  0.1531  0.0527  0.8971
 4700TIP3    H135659   4.431   5.518   1.303  0.1238 -0.9654  0.0592
 4700TIP3    H235660   4.484   5.423   1.408  0.0208 -0.8107  0.2515
 4701TIP3   OH235661   3.761   3.435   1.626 -0.3131 -0.3599 -0.7522
 4701TIP3    H135662   3.754   3.380   1.547  1.1224  0.6674 -1.6473
 4701TIP3    H235663   3.701   3.394   1.689 -0.3755 -2.0985 -1.8594
 4702TIP3   OH235664   1.153   0.637   0.375  0.0408 -0.0302 -0.0846
 4702TIP3    H135665   1.244   0.609   0.391 -0.2431 -0.7600  0.3075
 4702TIP3    H235666   1.103   0.556   0.377 -0.7698  0.4787  0.7514
 4703TIP3   OH235667   4.550   0.550   5.697  0.3361 -0.0166  0.3004
 4703TIP3    H135668   4.594   0.595   5.626 -1.9774 -1.4866 -2.2543
 4703TIP3    H235669   4.620   0.522   5.756  2.7604 -1.3550 -2.9330
 4704TIP3   OH235670   3.299   7.010   6.785 -0.2912 -0.1659 -0.1455
 4704TIP3    H135671   3.375   7.039   6.736  2.1297 -0.4800  3.1058
 4704TIP3    H235672   3.243   7.088   6.790 -0.7591 -0.1629 -3.2867
 4705TIP3   OH235673   1.889   2.729   0.112  0.2879 -0.3885  0.6193
 4705TIP3    H135674   1.860   2.773   0.032  0.9463 -0.0906  0.5420
 4705TIP3    H235675   1.831   2.653   0.120  0.4822 -0.6492 -0.3539
 4706TIP3   OH235676   2.429   2.086   0.540  0.7626 -0.5160 -0.0033
 4706TIP3    H135677   2.430   2.180   0.557  0.7023 -0.6517  0.8420
 4706TIP3    H235678   2.472   2.048   0.617  0.0798 -1.2258  0.0423
 4707TIP3   OH235679   1.626   5.351   6.339 -0.0936  0.9776  0.5502
 4707TIP3    H135680   1.611   5.350   6.245 -0.3896  0.5365  0.5996
 4707TIP3    H235681   1.718   5.376   6.348  0.2288  0.0152  0.1008
 4708TIP3   OH235682   2.234   6.598   1.183 -0.2686 -0.0210  0.3504
 4708TIP3    H135683   2.207   6.610   1.274  1.5308  1.2075  0.7811
 4708TIP3    H235684   2.209   6.680   1.140  1.9779  0.8505  0.6002
 4709TIP3   OH235685   3.847   3.098   0.410 -0.1978 -0.3675 -0.0073
 4709TIP3    H135686   3.907   3.164   0.444  0.8359 -2.2097  1.9806
 4709TIP3    H235687   3.886   3.070   0.328 -0.0585  0.6428 -0.3075
 4710TIP3   OH235688   0.748   3.862   0.543  0.5966  0.7788  0.6283
 4710TIP3    H135689   0.719   3.772   0.548  1.0712  0.3848 -1.9795
 4710TIP3    H235690   0.838   3.860   0.576  1.2448 -0.1124 -1.0770
 4711TIP3   OH235691   6.077   2.643   0.083  0.3711  0.3415  0.4220
 4711TIP3    H135692   6.001   2.585   0.090  1.0955 -1.5017 -3.8020
 4711TIP3    H235693   6.148   2.595   0.126  0.0966  0.0035  0.5009
 4712TIP3   OH235694   5.188   6.427   6.087 -0.1647 -0.4886  0.0495
 4712TIP3    H135695   5.187   6.485   6.010  0.1890 -0.7714 -0.1697
 4712TIP3    H235696   5.149   6.480   6.157 -3.7192 -1.3121 -1.0757
 4713TIP3   OH235697   6.398   4.099   1.050  0.0804 -0.3733 -0.2307
 4713TIP3    H135698   6.476   4.070   1.098  1.0131 -0.4744 -1.7311
 4713TIP3    H235699   6.433   4.150   0.976 -1.2890 -0.2471 -0.8206
 4714TIP3   OH235700   3.290   6.829   1.005  0.0354  0.9230  0.0527
 4714TIP3    H135701   3.295   6.923   0.989 -1.4843  1.5251  2.4800
 4714TIP3    H235702   3.374   6.807   1.044  0.3254  1.2992 -0.3469
 4715TIP3   OH235703   3.284   6.742   6.605  0.3822  0.0420 -0.6317
 4715TIP3    H135704   3.301   6.799   6.680  0.8744 -1.0180  0.0825
 4715TIP3    H235705   3.189   6.748   6.592 -0.3171 -2.3274  2.2633
 4716TIP3   OH235706   2.874   3.773   6.150  0.3921 -0.0642  0.3867
 4716TIP3    H135707   2.936   3.806   6.086  1.8387 -0.4101  1.5626
 4716TIP3    H235708   2.880   3.834   6.224 -0.7124 -0.0699  0.4950
 4717TIP3   OH235709   6.370   5.880   1.397 -0.0821  0.7752 -0.4212
 4717TIP3    H135710   6.357   5.787   1.376  1.4673  0.7558 -1.4293
 4717TIP3    H235711   6.454   5.883   1.442 -0.8364  1.5342  0.9981
 4718TIP3   OH235712   3.654   6.606   0.876  0.4021  0.0261  0.9766
 4718TIP3    H135713   3.568   6.620   0.837  0.1721 -0.5249  1.2739
 4718TIP3    H235714   3.692   6.535   0.825  1.7298  1.8957 -0.8017
 4719TIP3   OH235715   7.060   4.860   0.233  0.3602  0.5587 -0.0693
 4719TIP3    H135716   7.013   4.922   0.177 -0.0523  1.3550  1.1177
 4719TIP3    H235717   7.040   4.889   0.322  3.3096  1.1193  0.5163
 4720TIP3   OH235718   3.826   3.933   5.449  0.4326 -0.5808  0.2156
 4720TIP3    H135719   3.817   3.903   5.359 -0.7402  0.4742 -0.0369
 4720TIP3    H235720   3.917   3.961   5.456  0.1264  0.8632 -1.1520
 4721TIP3   OH235721   2.899   2.589   1.319  0.3372  0.2082  0.3854
 4721TIP3    H135722   2.927   2.525   1.385 -1.0528  0.8112  1.6180
 4721TIP3    H235723   2.840   2.648   1.366 -1.9135 -0.2028 -1.7070
 4722TIP3   OH235724   3.218   2.719   7.043  0.5052 -0.6498  0.1428
 4722TIP3    H135725   3.295   2.715   7.100  0.7071 -2.4969 -0.2044
 4722TIP3    H235726   3.183   2.630   7.044 -2.5897  0.4555  1.5368
 4723TIP3   OH235727   3.134   2.216   6.154 -0.6666 -0.4088 -0.0077
 4723TIP3    H135728   3.216   2.192   6.110  0.7072 -0.7600  2.5047
 4723TIP3    H235729   3.103   2.294   6.108  1.9135  0.6220 -0.1631
 4724TIP3   OH235730   0.086   3.490   0.508  0.2980 -0.3302 -0.1393
 4724TIP3    H135731  -0.007   3.514   0.506  0.6653  1.1567 -0.7231
 4724TIP3    H235732   0.092   3.426   0.579 -1.1607 -0.4267 -0.0579
 4725TIP3   OH235733   0.631   5.242   7.601  0.3844 -0.0763 -0.2928
 4725TIP3    H135734   0.589   5.317   7.557  1.3454  0.2352 -0.7044
 4725TIP3    H235735   0.724   5.256   7.588  0.7289  0.1357  2.0780
 4726TIP3   OH235736   6.190   2.471   7.314  0.2522  0.5160 -0.0617
 4726TIP3    H135737   6.175   2.475   7.220  2.1502  0.5352 -0.4053
 4726TIP3    H235738   6.284   2.457   7.323  0.1246  0.5689  1.8421
 4727TIP3   OH235739   6.036   7.121   0.795 -0.1681  0.1474  0.0767
 4727TIP3    H135740   5.950   7.131   0.754  0.8901  1.2289 -2.0462
 4727TIP3    H235741   6.080   7.204   0.778  1.8281 -0.9344 -0.2416
 4728TIP3   OH235742   4.789   1.469   1.111 -0.0667 -0.3992  0.3589
 4728TIP3    H135743   4.781   1.374   1.125 -0.3701 -0.3409  0.5970
 4728TIP3    H235744   4.704   1.504   1.136  0.7653  0.2023  2.6813
 4729TIP3   OH235745   1.357   4.736   0.284 -0.4840  0.8156  0.2888
 4729TIP3    H135746   1.337   4.812   0.339 -1.7001 -0.2704  1.4314
 4729TIP3    H235747   1.381   4.773   0.199 -1.6686  2.4589  0.6252
 4730TIP3   OH235748   2.928   2.155   1.700  0.0259 -0.0967 -0.2463
 4730TIP3    H135749   2.840   2.176   1.731  1.3408  0.7043  3.4333
 4730TIP3    H235750   2.976   2.237   1.706  1.4909 -0.8970 -0.4968
 4731TIP3   OH235751   0.899   4.686   6.198 -0.4619 -0.9029  0.1585
 4731TIP3    H135752   0.833   4.743   6.238 -0.4981 -0.9242  0.1298
 4731TIP3    H235753   0.936   4.739   6.127  1.3781  0.0834  1.7587
 4732TIP3   OH235754   2.421   2.947   6.175  0.2287 -0.1121  0.0138
 4732TIP3    H135755   2.426   2.852   6.189 -2.7590 -0.4669 -0.7052
 4732TIP3    H235756   2.495   2.966   6.117  1.2750 -1.8525  0.6873
 4733TIP3   OH235757   3.896   2.045   0.155  0.1930 -0.1843  0.1911
 4733TIP3    H135758   3.885   2.012   0.066  0.8743  1.2719 -0.4576
 4733TIP3    H235759   3.826   2.108   0.166 -1.0830 -1.7210  1.4210
 4734TIP3   OH235760   0.804   5.299   7.275 -0.3024  0.1755 -0.4506
 4734TIP3    H135761   0.882   5.287   7.221 -0.7899  0.4526 -1.2267
 4734TIP3    H235762   0.834   5.352   7.349  0.2278  0.3380 -0.7764
 4735TIP3   OH235763   6.726   2.208   8.024 -0.6856 -0.2595  0.1298
 4735TIP3    H135764   6.665   2.282   8.031  0.3447  0.6533 -0.2996
 4735TIP3    H235765   6.670   2.131   8.032 -1.6179  0.5417  2.2334
 4736TIP3   OH235766   1.124   0.069   1.206  0.0944 -0.5367 -0.6083
 4736TIP3    H135767   1.167   0.142   1.162 -1.5306  0.6277 -0.3493
 4736TIP3    H235768   1.188  -0.002   1.203  1.7043  0.8665 -0.9249
 4737TIP3   OH235769   3.138   0.132   1.784  0.4811 -0.6894 -0.5897
 4737TIP3    H135770   3.124   0.200   1.718  1.2010  1.8226  1.6407
 4737TIP3    H235771   3.190   0.065   1.739 -0.8402 -0.1513 -3.0968
 4738TIP3   OH235772   2.478   7.085   6.620  0.6854 -0.0396  0.5686
 4738TIP3    H135773   2.541   7.033   6.570  0.7960  0.2847  0.3757
 4738TIP3    H235774   2.511   7.174   6.616  0.6338  0.0088  1.1249
 4739TIP3   OH235775   3.533   3.583   2.109  0.1725 -0.3779 -0.1640
 4739TIP3    H135776   3.628   3.596   2.109  0.0376  0.8384  0.5386
 4739TIP3    H235777   3.518   3.510   2.049  1.6321 -1.2575  0.4894
 4740TIP3   OH235778   1.138   4.924   1.591  0.0922 -1.0126 -0.5716
 4740TIP3    H135779   1.170   4.850   1.643  1.1276  0.4834  1.0139
 4740TIP3    H235780   1.183   5.000   1.626 -0.5298  0.3432 -2.5194
 4741TIP3   OH235781   0.386   2.657   7.129 -0.2394 -0.2801  0.0584
 4741TIP3    H135782   0.358   2.573   7.166 -1.3169 -0.4651 -1.1055
 4741TIP3    H235783   0.310   2.714   7.140  0.2098  0.3131  0.1251
 4742TIP3   OH235784   0.778   2.169   6.487 -0.3484 -0.4272  0.0885
 4742TIP3    H135785   0.785   2.264   6.484  0.3917 -0.4719 -2.6269
 4742TIP3    H235786   0.771   2.143   6.395  0.0245 -3.0312  0.7158
 4743TIP3   OH235787   6.655   5.366   1.083 -0.0961 -0.1324  0.1222
 4743TIP3    H135788   6.746   5.349   1.057 -0.1404  0.9920 -0.8982
 4743TIP3    H235789   6.657   5.455   1.118 -0.6032 -0.5530  1.2520
 4744TIP3   OH235790   4.129   7.140   0.171  0.4534 -0.5446 -0.3180
 4744TIP3    H135791   4.138   7.179   0.084  0.7414  0.9918  0.3569
 4744TIP3    H235792   4.170   7.204   0.230 -1.3536 -0.6670  1.1582
 4745TIP3   OH235793   1.484   1.520   0.004  0.3526  0.0416  0.0398
 4745TIP3    H135794   1.580   1.524   0.001  0.3334  0.4621 -0.2270
 4745TIP3    H235795   1.457   1.611   0.019  0.0053 -0.1384  0.5337
 4746TIP3   OH235796   3.630   1.291   7.670 -0.0696 -0.0416  0.2573
 4746TIP3    H135797   3.582   1.248   7.740  0.3150  0.6738  0.9819
 4746TIP3    H235798   3.677   1.220   7.626 -2.4031 -0.8791 -1.0272
 4747TIP3   OH235799   4.603   1.883   6.624 -0.1977 -0.0168  0.2003
 4747TIP3    H135800   4.651   1.802   6.643  0.4804 -0.3676 -2.6503
 4747TIP3    H235801   4.591   1.882   6.529 -1.7962  2.3623  0.3140
 4748TIP3   OH235802   0.299   0.340   0.772 -0.3423  0.3059 -0.6537
 4748TIP3    H135803   0.226   0.393   0.739 -1.7176 -0.8628  0.4167
 4748TIP3    H235804   0.306   0.267   0.710  0.7648  1.0348 -1.4421
 4749TIP3   OH235805   4.498   1.484   0.648  0.2994  0.3966 -0.1487
 4749TIP3    H135806   4.548   1.481   0.567  0.9068  0.1447  0.2287
 4749TIP3    H235807   4.538   1.555   0.698  0.0328  0.4442  0.0003
 4750TIP3   OH235808   6.745   3.474   7.895  0.2064 -0.4705 -0.1777
 4750TIP3    H135809   6.836   3.447   7.908  0.7155 -0.5464 -3.2771
 4750TIP3    H235810   6.744   3.566   7.925  1.1346 -0.6400  0.4372
 4751TIP3   OH235811   4.491   3.046   7.707 -0.3897  0.1085  0.5120
 4751TIP3    H135812   4.492   3.063   7.612  1.6863  1.0055  0.6262
 4751TIP3    H235813   4.552   2.973   7.718  2.0446  2.1343  1.4029
 4752TIP3   OH235814   1.122   5.521   0.774 -0.4088 -0.1511 -0.2318
 4752TIP3    H135815   1.151   5.438   0.812  0.1715  0.2367  0.1999
 4752TIP3    H235816   1.033   5.533   0.806  0.2765  0.4906  1.6170
 4753TIP3   OH235817   2.716   6.713   0.525  0.2867 -0.4848  0.5036
 4753TIP3    H135818   2.719   6.680   0.435 -1.8920  0.0447  0.2032
 4753TIP3    H235819   2.797   6.680   0.564  0.1482 -2.7869 -0.9429
 4754TIP3   OH235820   1.109   3.531   6.107  0.1210 -0.8330  0.0712
 4754TIP3    H135821   1.040   3.469   6.086 -0.1590 -0.6693  0.4896
 4754TIP3    H235822   1.131   3.512   6.198  0.0087 -0.2967  0.2128
 4755TIP3   OH235823   4.621   3.546   6.525  0.1851  0.1779  0.0311
 4755TIP3    H135824   4.571   3.627   6.536  0.9571  0.8162 -0.9782
 4755TIP3    H235825   4.695   3.555   6.585 -0.5280 -0.4709  1.0350
 4756TIP3   OH235826   4.897   0.296   1.363  0.1199  0.1795  0.4195
 4756TIP3    H135827   4.847   0.315   1.442  0.2334  0.5452  0.4050
 4756TIP3    H235828   4.988   0.304   1.391  0.1637  0.0036  0.3250
 4757TIP3   OH235829   0.254   3.756   1.206 -0.1029 -0.6655 -0.3044
 4757TIP3    H135830   0.240   3.683   1.146 -0.6366 -0.7195 -0.1164
 4757TIP3    H235831   0.192   3.823   1.178  0.9111  0.0296 -0.9633
 4758TIP3   OH235832   1.478   6.700   0.196  0.2008 -0.7673  0.0315
 4758TIP3    H135833   1.445   6.611   0.187 -1.3377 -0.1960 -0.2463
 4758TIP3    H235834   1.517   6.720   0.110 -0.3785 -0.8164 -0.2476
 4759TIP3   OH235835   5.647   2.561   7.340  0.2575  0.2071 -0.3459
 4759TIP3    H135836   5.596   2.488   7.376  0.0827 -0.8809 -2.5987
 4759TIP3    H235837   5.738   2.534   7.350  0.2375  0.2436 -0.0654
 4760TIP3   OH235838   0.148   0.468   5.979 -0.0076  0.2723  0.0319
 4760TIP3    H135839   0.107   0.492   5.896  1.8776  1.9324 -0.5101
 4760TIP3    H235840   0.196   0.388   5.960  2.8397  2.1459 -1.4840
 4761TIP3   OH235841   2.077   2.416   0.628  0.3305 -0.3376 -0.1899
 4761TIP3    H135842   2.105   2.495   0.582  0.4876 -0.3593 -0.1297
 4761TIP3    H235843   2.152   2.391   0.682  0.2877 -0.5383 -0.2219
 4762TIP3   OH235844   2.653   1.313   0.902 -0.1755  0.6898 -0.4431
 4762TIP3    H135845   2.644   1.397   0.947 -1.7561 -0.0119  0.6646
 4762TIP3    H235846   2.725   1.325   0.841 -0.4840  2.8986 -0.4227
 4763TIP3   OH235847   4.587   0.686   7.651  0.3085 -0.0995 -0.4658
 4763TIP3    H135848   4.621   0.651   7.733 -0.7353 -0.6815 -0.2519
 4763TIP3    H235849   4.647   0.756   7.627  0.5162  0.2213  0.9004
 4764TIP3   OH235850   0.248   0.526   6.766  0.2003  0.1544 -0.2903
 4764TIP3    H135851   0.327   0.577   6.782  0.6163 -0.8417  1.0640
 4764TIP3    H235852   0.272   0.436   6.791 -0.8577 -0.4983 -1.4538
 4765TIP3   OH235853   6.520   1.616   0.325 -0.1126  0.3527  0.3731
 4765TIP3    H135854   6.478   1.630   0.240  1.8596 -3.5942 -1.5221
 4765TIP3    H235855   6.603   1.664   0.319  0.3811 -0.5480 -0.3515
 4766TIP3   OH235856   0.893   0.374   1.488 -0.0524  0.2459 -0.2605
 4766TIP3    H135857   0.941   0.414   1.560  1.0032  0.0662 -0.8357
 4766TIP3    H235858   0.932   0.287   1.479 -1.4593 -0.4588  0.1619
 4767TIP3   OH235859   2.329   6.589   0.282 -0.1607 -0.2698  0.1064
 4767TIP3    H135860   2.251   6.535   0.288 -0.0319 -0.4913 -0.1875
 4767TIP3    H235861   2.332   6.617   0.190  1.6126 -2.5321 -0.6061
 4768TIP3   OH235862   6.423   1.611   1.441 -0.0231  0.0821 -0.3620
 4768TIP3    H135863   6.359   1.673   1.406  0.1561  0.1006 -0.6547
 4768TIP3    H235864   6.453   1.651   1.522 -0.8808 -0.2376  0.1356
 4769TIP3   OH235865   1.117   3.745   1.594  0.1879 -0.1063  0.8637
 4769TIP3    H135866   1.174   3.819   1.613  0.7211 -0.6964  1.6320
 4769TIP3    H235867   1.074   3.727   1.678  0.0883 -0.6792  0.6910
 4770TIP3   OH235868   0.779   2.592   7.796  0.4100  0.1081 -0.1609
 4770TIP3    H135869   0.867   2.614   7.827  0.2797 -0.0208  0.3189
 4770TIP3    H235870   0.794   2.527   7.727  0.6460 -1.1428  1.0112
 4771TIP3   OH235871   5.576   4.528   0.443  0.1966 -0.1617  0.1899
 4771TIP3    H135872   5.490   4.498   0.412  0.1361 -0.2746  0.4659
 4771TIP3    H235873   5.580   4.500   0.535 -0.3579  1.7179  0.8283
 4772TIP3   OH235874   1.358   2.555   0.108  0.5977  0.1040 -0.7650
 4772TIP3    H135875   1.294   2.484   0.116  1.9658 -1.1073 -0.1480
 4772TIP3    H235876   1.350   2.604   0.190  1.0724 -0.6230 -0.2591
 4773TIP3   OH235877   2.954   5.876   0.706 -0.3078 -0.0357  0.1011
 4773TIP3    H135878   2.903   5.872   0.625 -0.7532 -4.1349  0.3619
 4773TIP3    H235879   2.891   5.904   0.773 -1.3210 -1.5205 -0.1940
 4774TIP3   OH235880   2.482   4.823   0.379 -0.6041  0.4393 -0.6589
 4774TIP3    H135881   2.453   4.904   0.422 -0.7011 -0.3907  0.8941
 4774TIP3    H235882   2.402   4.770   0.373 -0.5941  0.5373 -1.9110
 4775TIP3   OH235883   2.280   0.107   0.203  0.1758  0.3014 -0.2679
 4775TIP3    H135884   2.201   0.099   0.257  0.1690  1.7646 -0.0259
 4775TIP3    H235885   2.345   0.147   0.261  0.1354  2.0240 -1.3535
 4776TIP3   OH235886   1.812   0.341   7.037 -0.0670  0.5506 -0.1332
 4776TIP3    H135887   1.826   0.423   6.990 -0.6884  2.1295  2.2480
 4776TIP3    H235888   1.717   0.329   7.036 -0.1193  0.7639  0.8904
 4777TIP3   OH235889   0.014   1.721   1.350  0.8407 -0.1207  0.2037
 4777TIP3    H135890   0.067   1.791   1.311  2.0930 -0.8200  0.5928
 4777TIP3    H235891   0.073   1.678   1.412  0.2136 -1.7512 -0.2811
 4778TIP3   OH235892   4.169   5.008   0.101 -0.9885 -0.2505 -0.5240
 4778TIP3    H135893   4.173   5.054   0.186 -0.0992 -0.8490 -0.2331
 4778TIP3    H235894   4.080   5.025   0.070 -1.6386 -0.7482  0.9447
 4779TIP3   OH235895   2.016   6.268   7.246 -0.6876  0.2138  0.6231
 4779TIP3    H135896   1.998   6.287   7.338  0.9863 -1.4748  1.3806
 4779TIP3    H235897   1.940   6.218   7.216  0.0719 -1.9420  2.0643
 4780TIP3   OH235898   2.933   4.633   1.128  0.0519  0.2473 -0.1381
 4780TIP3    H135899   2.897   4.601   1.211 -1.1993  2.3888  0.2225
 4780TIP3    H235900   3.025   4.650   1.147 -0.2543  0.8731  0.9199
 4781TIP3   OH235901   1.604   2.745   1.122  0.4009  0.6955  0.1614
 4781TIP3    H135902   1.679   2.686   1.124  1.4342  1.9518 -0.3256
 4781TIP3    H235903   1.586   2.763   1.214  0.3824  0.0271  0.2979
 4782TIP3   OH235904   3.737   1.574   7.347  0.1502  0.4451  0.4849
 4782TIP3    H135905   3.645   1.556   7.365  0.8857 -0.6365  3.6771
 4782TIP3    H235906   3.755   1.654   7.397  0.6916  1.4553 -1.2281
 4783TIP3   OH235907   1.786   3.577   1.509 -0.4778  0.1710 -0.3979
 4783TIP3    H135908   1.708   3.554   1.459 -0.4677  1.5979 -1.1224
 4783TIP3    H235909   1.752   3.618   1.589 -0.4758 -1.1549  0.3122
 4784TIP3   OH235910   1.224   3.460   7.164 -0.3616  0.3367 -0.7859
 4784TIP3    H135911   1.144   3.511   7.161  0.4702  1.6570 -1.3616
 4784TIP3    H235912   1.241   3.447   7.258 -0.8373  0.6881 -0.6484
 4785TIP3   OH235913   5.575   0.405   1.968 -0.6424 -0.3193  0.2489
 4785TIP3    H135914   5.636   0.367   1.905 -0.8728 -1.4672  0.6847
 4785TIP3    H235915   5.495   0.420   1.918 -0.1792  0.7131 -0.2041
 4786TIP3   OH235916   1.199   7.077   6.730  0.1451  0.8977 -0.0073
 4786TIP3    H135917   1.159   7.012   6.787  2.2388  1.9708  2.8965
 4786TIP3    H235918   1.265   7.028   6.680 -0.5154  0.2483 -0.2495
 4787TIP3   OH235919   5.706   5.356   6.700  0.5614 -0.2287  0.6773
 4787TIP3    H135920   5.724   5.382   6.790 -0.4781 -0.7268  1.0385
 4787TIP3    H235921   5.619   5.316   6.703 -0.9972  2.6619 -1.1042
 4788TIP3   OH235922   4.492   0.067   6.786 -0.4158  0.8724  0.2645
 4788TIP3    H135923   4.582   0.036   6.776 -0.1514  0.9386  2.1254
 4788TIP3    H235924   4.438  -0.001   6.745  0.4308  0.4133 -0.1004
 4789TIP3   OH235925   6.472   1.077   0.189  0.4436  0.0777 -0.4202
 4789TIP3    H135926   6.387   1.104   0.156  0.9873  1.0970 -1.0244
 4789TIP3    H235927   6.487   0.991   0.148  0.8566  1.0656 -2.4485
 4790TIP3   OH235928   1.406   2.532   2.406 -0.0157 -0.0515 -0.3468
 4790TIP3    H135929   1.382   2.459   2.463 -0.4557  1.1707  1.0735
 4790TIP3    H235930   1.364   2.608   2.445  1.6274  1.2289 -0.9562
 4791TIP3   OH235931   1.407   4.855   7.393  0.4010  0.3657  0.6850
 4791TIP3    H135932   1.331   4.815   7.437  0.8688  0.0583  1.2255
 4791TIP3    H235933   1.419   4.938   7.439 -0.4822  1.0899 -0.3437
 4792TIP3   OH235934   4.780   5.081   2.014  0.6104  0.5184 -0.1899
 4792TIP3    H135935   4.841   5.151   2.035  1.5359 -0.5684  0.8687
 4792TIP3    H235936   4.822   5.002   2.045 -2.7646 -0.0023  4.0796
 4793TIP3   OH235937   4.628   0.324   1.147 -0.3833  0.0441 -0.4102
 4793TIP3    H135938   4.625   0.376   1.227 -0.5408 -0.8917  0.2091
 4793TIP3    H235939   4.686   0.251   1.168  0.5469  0.4188 -1.5513
 4794TIP3   OH235940   1.627   3.353   2.065  0.3334 -0.0455  0.1336
 4794TIP3    H135941   1.636   3.379   1.973  0.8499  0.3806  0.2943
 4794TIP3    H235942   1.533   3.344   2.079  0.3350 -2.2944 -1.0155
 4795TIP3   OH235943   5.589   6.836   1.629  0.1285  0.0616  0.2042
 4795TIP3    H135944   5.601   6.812   1.538 -1.6690  0.4994 -0.1835
 4795TIP3    H235945   5.577   6.753   1.675 -3.4392 -0.0913 -0.7234
 4796TIP3   OH235946   5.540   4.843   2.031 -0.3517  0.2455  0.5756
 4796TIP3    H135947   5.487   4.922   2.023 -1.3900 -0.1286  2.7973
 4796TIP3    H235948   5.613   4.856   1.971 -2.4420  1.2098 -1.9541
 4797TIP3   OH235949   6.760   5.031   0.989 -0.2434 -0.1092  0.1480
 4797TIP3    H135950   6.805   4.954   1.023 -0.6462 -0.1670  0.5434
 4797TIP3    H235951   6.809   5.053   0.909  0.6556 -0.0090  0.7075
 4798TIP3   OH235952   3.404   4.118   1.293 -0.0206 -0.0587  0.5013
 4798TIP3    H135953   3.378   4.141   1.383 -1.2519 -2.0339  0.7217
 4798TIP3    H235954   3.487   4.071   1.304 -0.2703 -0.4724  0.6364
 4799TIP3   OH235955   6.334   2.185   6.944 -0.0507 -0.0708  0.0994
 4799TIP3    H135956   6.395   2.170   7.016 -3.0408  0.6042  3.0128
 4799TIP3    H235957   6.326   2.100   6.901  2.7368 -0.1974 -0.3890
 4800TIP3   OH235958   1.288   4.026   7.832 -0.5331 -0.0237 -0.4940
 4800TIP3    H135959   1.258   3.935   7.824  0.5731 -0.7277  2.0830
 4800TIP3    H235960   1.383   4.019   7.836 -0.3897  1.3555 -0.9747
 4801TIP3   OH235961   6.732   0.386   0.231 -0.1481  0.0930 -0.0900
 4801TIP3    H135962   6.799   0.454   0.244 -0.2036  0.0377  0.4970
 4801TIP3    H235963   6.715   0.388   0.137  2.3284 -1.4315 -0.6721
 4802TIP3   OH235964   6.696   2.195   0.427  0.2065 -0.0092 -0.5680
 4802TIP3    H135965   6.647   2.209   0.508  1.3335  1.0189 -0.0302
 4802TIP3    H235966   6.641   2.136   0.376 -1.1150  0.3135  0.4168
 4803TIP3   OH235967   5.603   2.117   1.610 -0.0398 -0.2106 -1.2320
 4803TIP3    H135968   5.555   2.194   1.582 -1.3639  0.6636  2.7381
 4803TIP3    H235969   5.686   2.151   1.646 -0.0056 -0.7665 -0.7567
 4804TIP3   OH235970   4.776   5.210   1.766 -0.5729 -0.5476  0.1924
 4804TIP3    H135971   4.770   5.166   1.850  0.0905 -0.1888  0.4369
 4804TIP3    H235972   4.868   5.236   1.759 -0.2098 -2.1236 -1.4430
 4805TIP3   OH235973   3.313   1.598   7.685 -0.4101 -0.4605  0.7588
 4805TIP3    H135974   3.296   1.504   7.678 -2.6504 -0.0010 -0.6951
 4805TIP3    H235975   3.266   1.625   7.764 -1.2990 -0.2759  0.1802
 4806TIP3   OH235976   2.600   3.309   0.375  0.4522  0.0585  0.3732
 4806TIP3    H135977   2.559   3.223   0.387  1.7784 -0.6235  0.2659
 4806TIP3    H235978   2.589   3.353   0.459  1.0257 -0.8032  0.9205
 4807TIP3   OH235979   0.396   4.794   6.815  0.2513 -0.2937 -0.1373
 4807TIP3    H135980   0.305   4.821   6.815 -0.1244 -1.4419 -1.6813
 4807TIP3    H235981   0.407   4.748   6.898 -0.4015  0.3119  0.3007
 4808TIP3   OH235982   3.973   6.251   7.483 -0.1824 -0.0550  0.5896
 4808TIP3    H135983   3.911   6.267   7.554  1.0687  1.9599  1.3024
 4808TIP3    H235984   3.991   6.157   7.488 -1.8849 -0.3870  1.3921
 4809TIP3   OH235985   1.495   1.578   0.641 -0.3057  0.5724  0.5692
 4809TIP3    H135986   1.490   1.520   0.717 -0.0288 -1.4268 -0.8535
 4809TIP3    H235987   1.581   1.619   0.648  0.4834 -0.9868  0.4342
 4810TIP3   OH235988   1.195   4.270   1.609  0.2218 -0.1081  0.1868
 4810TIP3    H135989   1.274   4.253   1.558 -0.4532  0.1030 -0.9544
 4810TIP3    H235990   1.221   4.339   1.670  0.9095 -0.0241 -0.1844
 4811TIP3   OH235991   4.069   3.792   7.541  0.5202 -0.4635  0.2810
 4811TIP3    H135992   4.117   3.710   7.536 -0.2137 -0.8992  0.2453
 4811TIP3    H235993   4.000   3.775   7.606  0.1877  0.0289  0.0626
 4812TIP3   OH235994   4.469   3.879   7.262  0.3801 -0.0225  0.0397
 4812TIP3    H135995   4.388   3.831   7.246 -0.2788  0.9180  0.4599
 4812TIP3    H235996   4.472   3.892   7.357  1.1874 -0.3102  0.0682
 4813TIP3   OH235997   6.713   6.558   7.387 -0.3693 -0.1122  0.4477
 4813TIP3    H135998   6.754   6.642   7.410 -1.4705  0.4289  0.5371
 4813TIP3    H235999   6.633   6.583   7.341 -0.5072 -1.1303  0.1252
 4814TIP3   OH236000   3.668   0.583   7.116 -0.1593  0.3318  0.2486
 4814TIP3    H136001   3.680   0.506   7.060 -0.5209  1.9129 -2.1455
 4814TIP3    H236002   3.575   0.584   7.135 -0.0807 -0.0544  0.6802
 4815TIP3   OH236003   2.362   5.207   1.682  0.0466 -0.0773  0.2473
 4815TIP3    H136004   2.405   5.169   1.759 -0.0034  1.0257  0.8500
 4815TIP3    H236005   2.410   5.288   1.666 -2.0115  1.4429  1.2259
 4816TIP3   OH236006   2.540   2.372   2.164 -0.6093 -0.6221 -0.2031
 4816TIP3    H136007   2.562   2.429   2.091  1.3020 -1.1103 -0.0705
 4816TIP3    H236008   2.600   2.298   2.156 -1.4295 -1.4595  0.9619
 4817TIP3   OH236009   0.195   0.278   1.059 -1.0348 -0.1814 -0.5256
 4817TIP3    H136010   0.220   0.233   0.978  0.2447  1.7325 -1.2833
 4817TIP3    H236011   0.225   0.369   1.046  2.7930 -0.5074  3.5481
 4818TIP3   OH236012   4.620   3.690   1.621  0.3104 -0.0380  0.1143
 4818TIP3    H136013   4.711   3.681   1.591  0.0857 -0.1308 -0.5622
 4818TIP3    H236014   4.587   3.601   1.627 -0.0787  0.0384 -0.7506
 4819TIP3   OH236015   2.335   0.643   1.109 -0.2911  0.2162 -0.2101
 4819TIP3    H136016   2.348   0.623   1.201 -0.8385  0.2596 -0.1205
 4819TIP3    H236017   2.242   0.665   1.102 -0.1714  0.5808 -0.7006
 4820TIP3   OH236018   6.862   6.051   0.527  0.9236  0.0078 -0.5582
 4820TIP3    H136019   6.793   5.995   0.563 -0.0038  0.9409 -0.8187
 4820TIP3    H236020   6.831   6.072   0.439  2.6016 -1.3124 -1.5338
 4821TIP3   OH236021   6.869   1.245   7.698 -0.1933  0.4057 -0.4746
 4821TIP3    H136022   6.830   1.295   7.626  3.0368  3.0030 -0.6561
 4821TIP3    H236023   6.955   1.218   7.665 -0.2157 -1.8994  1.0847
 4822TIP3   OH236024   3.610   0.931   7.963 -0.2077 -0.3321  0.4755
 4822TIP3    H136025   3.569   0.873   7.899  0.0717  0.8243 -0.8244
 4822TIP3    H236026   3.546   1.001   7.977 -0.4582 -0.8090  1.8585
 4823TIP3   OH236027   7.042   6.106   6.857  0.8483 -0.2131 -0.2786
 4823TIP3    H136028   7.065   6.156   6.779  1.4662 -0.5180 -0.2977
 4823TIP3    H236029   7.076   6.019   6.841  1.4029 -0.1598  0.5253
 4824TIP3   OH236030   3.031   2.881   1.036  0.3113 -0.2075  0.1524
 4824TIP3    H136031   3.020   2.944   1.108 -2.0008  3.0565 -2.6953
 4824TIP3    H236032   2.945   2.878   0.995  1.7341 -1.1136 -3.0292
 4825TIP3   OH236033   3.494   5.866   0.336  0.1721  0.0272  0.6596
 4825TIP3    H136034   3.477   5.785   0.384  1.9558 -0.3266  0.7699
 4825TIP3    H236035   3.588   5.863   0.316  0.0434  1.5243 -0.3556
 4826TIP3   OH236036   6.903   1.656   6.246 -0.4958 -0.2427 -0.0178
 4826TIP3    H136037   6.971   1.598   6.213 -1.2209 -1.1563  0.0498
 4826TIP3    H236038   6.947   1.741   6.257  0.7795 -0.9461  0.5811
 4827TIP3   OH236039   6.969   4.190   0.798  0.4028 -0.5045 -0.0604
 4827TIP3    H136040   7.063   4.187   0.816  0.2033 -1.6058  0.9196
 4827TIP3    H236041   6.934   4.253   0.860  0.6792  1.0780 -1.4573
 4828TIP3   OH236042   5.711   1.983   0.005  0.0772  0.2193 -0.3312
 4828TIP3    H136043   5.723   2.030  -0.078 -0.1822  0.0707 -0.4555
 4828TIP3    H236044   5.667   2.045   0.062  0.7525  0.5085 -0.1242
 4829TIP3   OH236045   2.053   0.820   8.029  0.5788  0.3211 -0.1874
 4829TIP3    H136046   2.097   0.747   7.986 -0.5607  0.5489 -1.8504
 4829TIP3    H236047   2.044   0.886   7.960 -1.6124  0.5718  0.2764
 4830TIP3   OH236048   4.024   0.715   7.509 -0.0942  0.0163  0.0832
 4830TIP3    H136049   4.057   0.792   7.461  0.1757 -0.6600 -0.8446
 4830TIP3    H236050   4.102   0.675   7.546 -0.1403 -0.2542 -0.1111
 4831TIP3   OH236051   7.142   6.216   6.612  0.5755  0.5316  0.3196
 4831TIP3    H136052   7.094   6.178   6.538 -1.0368  0.8422  1.1664
 4831TIP3    H236053   7.111   6.306   6.617 -0.4252  0.1430  2.1949
 4832TIP3   OH236054   2.527   2.235   0.774 -0.4105  0.2142  0.3368
 4832TIP3    H136055   2.618   2.247   0.802 -0.1306 -0.5908 -0.2176
 4832TIP3    H236056   2.478   2.226   0.856  0.1670 -0.4574  0.6141
 4833TIP3   OH236057   6.795   3.931   1.567 -0.2327 -0.0602  0.4324
 4833TIP3    H136058   6.795   4.012   1.619  0.3015 -0.0574  0.4343
 4833TIP3    H236059   6.710   3.891   1.585 -0.0967 -0.0055  1.2352
 4834TIP3   OH236060   6.406   3.913   5.218 -0.1251 -0.1155 -0.0631
 4834TIP3    H136061   6.390   3.834   5.270 -1.6587 -1.0501 -1.8211
 4834TIP3    H236062   6.319   3.943   5.192  0.5185  1.2466 -0.7619
 4835TIP3   OH236063   6.319   6.196   0.767  0.4750 -0.0873 -0.5648
 4835TIP3    H136064   6.366   6.255   0.708  0.5014 -0.2743 -0.7318
 4835TIP3    H236065   6.256   6.253   0.812 -0.1096 -0.0811 -1.3696
 4836TIP3   OH236066   4.449   1.812   0.167  0.6233 -0.1530 -0.1354
 4836TIP3    H136067   4.508   1.762   0.110 -1.1199 -0.8703 -1.3974
 4836TIP3    H236068   4.491   1.898   0.176  0.6818  0.2306 -3.0773
 4837TIP3   OH236069   0.196   2.163   7.122 -0.2558  0.2005 -0.1754
 4837TIP3    H136070   0.208   2.099   7.192 -1.2770  0.5862  0.3836
 4837TIP3    H236071   0.143   2.118   7.056  0.8153 -0.2050 -0.7793
 4838TIP3   OH236072   1.809   4.624   0.297  0.2890  0.0197  0.4525
 4838TIP3    H136073   1.798   4.710   0.336 -2.3577  1.2489 -2.6078
 4838TIP3    H236074   1.729   4.576   0.321  0.1620 -0.3422 -0.6219
 4839TIP3   OH236075   1.505   4.978   0.160  0.1011 -0.1381  0.1872
 4839TIP3    H136076   1.434   4.944   0.106  1.0138  1.0454 -1.8776
 4839TIP3    H236077   1.473   5.062   0.192  0.0624 -0.2316  0.3956
 4840TIP3   OH236078   0.496   6.474   7.771  0.2749  0.1226  0.0619
 4840TIP3    H136079   0.551   6.505   7.699 -0.9404 -0.0413 -0.9673
 4840TIP3    H236080   0.544   6.399   7.807  1.5892  1.0909  0.3839
 4841TIP3   OH236081   2.583   3.174   5.971  0.3484  0.1436  0.0215
 4841TIP3    H136082   2.635   3.190   6.050 -0.6599  0.8753  0.5561
 4841TIP3    H236083   2.555   3.261   5.943 -0.9650 -0.2609  0.0157
 4842TIP3   OH236084   1.461   2.296   8.003 -0.3356 -0.3203 -0.3755
 4842TIP3    H136085   1.446   2.358   8.074  2.3890 -1.6120  1.5065
 4842TIP3    H236086   1.451   2.348   7.923 -1.9703  1.5621  0.9497
 4843TIP3   OH236087   3.180   0.403   6.970 -0.0476 -0.6091  0.4772
 4843TIP3    H136088   3.232   0.399   7.050 -0.2704  0.7392  0.7061
 4843TIP3    H236089   3.183   0.495   6.943 -1.8785 -0.5948  0.2058
 4844TIP3   OH236090   2.585   3.070   1.440 -0.2794 -0.0541 -0.4006
 4844TIP3    H136091   2.593   3.047   1.348 -0.1354  0.3500 -0.4920
 4844TIP3    H236092   2.533   2.999   1.479  1.0041 -1.0393 -0.4592
 4845TIP3   OH236093   6.676   1.131   1.411  0.9989  0.1525 -0.1806
 4845TIP3    H136094   6.750   1.135   1.350  0.8738  0.1215 -0.3349
 4845TIP3    H236095   6.634   1.216   1.401  1.2452  0.3213  0.1990
 4846TIP3   OH236096   2.878   2.715   6.011 -0.1327  0.0211 -0.4980
 4846TIP3    H136097   2.903   2.719   5.919 -0.1178  0.2368 -0.4856
 4846TIP3    H236098   2.958   2.736   6.059 -0.0922 -0.2905 -0.4304
 4847TIP3   OH236099   6.280   1.634   6.706  0.2905 -1.1991  0.3285
 4847TIP3    H136100   6.364   1.665   6.673 -0.3509  0.7299  0.4084
 4847TIP3    H236101   6.294   1.623   6.800  0.0011  0.9547  0.6771
 4848TIP3   OH236102   5.439   2.990   0.386  0.0433 -0.7642 -0.2032
 4848TIP3    H136103   5.390   3.005   0.467  0.6671  1.0793 -0.1076
 4848TIP3    H236104   5.378   3.013   0.316  0.0969 -0.5333 -0.1746
 4849TIP3   OH236105   3.558   1.426   5.591  0.1926  0.4701  0.3263
 4849TIP3    H136106   3.618   1.492   5.626  0.8752 -1.4859  3.2018
 4849TIP3    H236107   3.507   1.397   5.667 -1.5923 -0.7822 -1.2585
 4850TIP3   OH236108   2.680   2.920   0.660  0.4532 -0.8565  0.2147
 4850TIP3    H136109   2.717   2.959   0.581  1.0094  0.0181  0.8941
 4850TIP3    H236110   2.662   2.994   0.717 -1.6676 -1.3052  0.2222
 4851TIP3   OH236111   3.278   2.658   1.696 -0.1116 -0.3068  0.0096
 4851TIP3    H136112   3.347   2.593   1.702 -0.2174 -0.2989  3.0352
 4851TIP3    H236113   3.264   2.671   1.602  2.4774 -1.8635 -0.6730
 4852TIP3   OH236114   6.263   2.234   7.641  0.1736 -0.1454  0.5914
 4852TIP3    H136115   6.278   2.322   7.606  0.8522 -0.1088  0.9654
 4852TIP3    H236116   6.222   2.186   7.569 -4.6599  1.7140  1.7433
 4853TIP3   OH236117   1.987   1.540   6.875 -0.4350 -0.6277 -0.4380
 4853TIP3    H136118   1.891   1.545   6.876 -0.5169 -1.5195  1.4713
 4853TIP3    H236119   2.008   1.481   6.803 -1.3638 -0.8740 -0.5223
 4854TIP3   OH236120   1.841   6.004   1.926  0.2935  0.3794 -0.0937
 4854TIP3    H136121   1.851   6.096   1.905  0.3380  0.6855  1.2109
 4854TIP3    H236122   1.907   5.986   1.993  0.2957 -0.5992 -0.3350
 4855TIP3   OH236123   1.011   2.955   0.495  0.1851  0.3083  0.3896
 4855TIP3    H136124   1.024   3.041   0.534 -1.6322  0.0454  1.7356
 4855TIP3    H236125   1.081   2.901   0.531  0.1518  0.7603  1.1560
 4856TIP3   OH236126   6.896   6.285   1.759  0.0558 -0.8343  0.1553
 4856TIP3    H136127   6.833   6.229   1.714  0.3037  0.4189 -1.8505
 4856TIP3    H236128   6.981   6.257   1.726  0.1193  1.4656 -1.9167
 4857TIP3   OH236129   5.601   1.304   1.034 -0.7111  0.3254 -0.0492
 4857TIP3    H136130   5.606   1.277   1.126 -0.4220  0.2442 -0.0867
 4857TIP3    H236131   5.683   1.274   0.996 -1.5043 -1.0979 -0.7242
 4858TIP3   OH236132   5.641   1.409   0.774  0.0903 -0.3944  0.2638
 4858TIP3    H136133   5.589   1.387   0.852 -0.2921  0.3710  0.2403
 4858TIP3    H236134   5.604   1.493   0.744 -1.0612 -1.5697 -1.8576
 4859TIP3   OH236135   4.916   3.723   1.030  0.1160 -0.1136  0.1299
 4859TIP3    H136136   4.872   3.758   1.107 -0.4442 -0.6214  0.0478
 4859TIP3    H236137   4.967   3.649   1.063  1.3254  0.7845  0.3094
 4860TIP3   OH236138   0.742   2.801   0.690  0.5754 -0.0721 -0.6399
 4860TIP3    H136139   0.767   2.823   0.780  1.5377  4.4478 -1.7545
 4860TIP3    H236140   0.825   2.786   0.645  0.2027 -0.5486 -1.1918
 4861TIP3   OH236141   1.317   1.060   7.374  0.2125 -0.3179 -0.6808
 4861TIP3    H136142   1.247   1.078   7.436  1.4357  0.8398  0.4333
 4861TIP3    H236143   1.344   1.146   7.341  1.6199 -0.6483 -0.4827
 4862TIP3   OH236144   2.320   0.949   6.051  0.4191  0.2140  0.2798
 4862TIP3    H136145   2.346   1.027   6.003 -0.5290 -0.5004 -1.4686
 4862TIP3    H236146   2.372   0.879   6.012  0.3005 -0.2531  0.9413
 4863TIP3   OH236147   1.240   6.848   7.131 -0.0445 -0.4124  0.4506
 4863TIP3    H136148   1.214   6.853   7.039 -1.9783 -1.6174  0.8493
 4863TIP3    H236149   1.272   6.758   7.141 -2.7655 -1.3600  1.5402
 4864TIP3   OH236150   2.552   0.730   0.948  0.6159 -0.1287  0.3094
 4864TIP3    H136151   2.466   0.699   0.975  0.2787  0.7321  0.2615
 4864TIP3    H236152   2.599   0.747   1.030  0.0201  1.3240  0.3725
 4865TIP3   OH236153   1.274   0.996   1.708 -0.3213  0.1494  0.2142
 4865TIP3    H136154   1.277   1.057   1.782  0.4726  1.4662 -0.8505
 4865TIP3    H236155   1.364   0.966   1.698 -0.2252  0.7387 -0.8052
 4866TIP3   OH236156   2.270   3.497   1.304 -0.3988 -0.1499 -0.0432
 4866TIP3    H136157   2.253   3.412   1.343 -0.2573  0.2767  0.9635
 4866TIP3    H236158   2.281   3.557   1.378 -0.0686  0.6637 -0.7257
 4867TIP3   OH236159   1.267   0.343   7.394  0.3536 -0.1706  0.2935
 4867TIP3    H136160   1.326   0.271   7.416  0.9784  0.0264 -0.6604
 4867TIP3    H236161   1.223   0.315   7.314  0.0980  0.2217  0.2905
 4868TIP3   OH236162   2.908   0.593   1.390 -0.3714  0.3736 -0.3646
 4868TIP3    H136163   2.903   0.580   1.484  0.5228  0.6307 -0.2732
 4868TIP3    H236164   2.893   0.506   1.353  2.3212 -0.3989  0.1273
 4869TIP3   OH236165   6.043   3.160   1.832 -0.3984 -0.0359 -0.3849
 4869TIP3    H136166   5.987   3.134   1.905  0.4937 -0.7224  0.0645
 4869TIP3    H236167   6.097   3.230   1.867  0.0521 -0.3863 -0.3753
 4870TIP3   OH236168   4.658   2.319   7.769 -0.4150 -0.7682 -0.0807
 4870TIP3    H136169   4.736   2.271   7.797 -0.2974  0.0591  1.0572
 4870TIP3    H236170   4.586   2.257   7.782 -0.2037 -0.8148  0.8993
 4871TIP3   OH236171   4.404   0.687   1.265  0.6733 -0.0991 -0.0439
 4871TIP3    H136172   4.432   0.685   1.173  1.6740  0.9726  0.2141
 4871TIP3    H236173   4.334   0.752   1.268  0.9892  0.2427  0.0303
 4872TIP3   OH236174   3.593   4.960   6.457  0.4801  0.9277  0.5749
 4872TIP3    H136175   3.676   4.961   6.505  0.3346  3.1327  0.8684
 4872TIP3    H236176   3.533   5.008   6.513 -1.6069 -2.2269  1.2765
 4873TIP3   OH236177   2.100   3.474   0.125  0.0094  0.4765 -0.1235
 4873TIP3    H136178   2.187   3.439   0.106 -0.0947  1.1686 -2.1159
 4873TIP3    H236179   2.085   3.454   0.217  1.1383 -2.0972 -0.4227
 4874TIP3   OH236180   1.021   3.544   0.414  0.1297  0.4012  0.0350
 4874TIP3    H136181   0.931   3.518   0.397  0.3674 -0.7500  0.4362
 4874TIP3    H236182   1.069   3.516   0.336  0.6158 -1.7077  0.9997
 4875TIP3   OH236183   2.457   6.968   1.181 -0.9420  0.3295 -0.3459
 4875TIP3    H136184   2.465   7.026   1.105  0.4823 -0.1512 -0.5983
 4875TIP3    H236185   2.454   6.880   1.143  1.9981 -0.0909  0.1534
 4876TIP3   OH236186   4.599   4.765   7.923  0.2102 -0.6885  0.3766
 4876TIP3    H136187   4.578   4.766   7.830 -1.4607 -1.6738  0.6948
 4876TIP3    H236188   4.524   4.808   7.965  1.2702  0.3864  1.2282
 4877TIP3   OH236189   1.534   2.996   7.099 -0.1229 -0.3904 -0.6669
 4877TIP3    H136190   1.470   3.040   7.044  0.3990 -0.0626 -1.0214
 4877TIP3    H236191   1.619   3.015   7.058  0.6137  2.1889  1.7043
 4878TIP3   OH236192   4.991   1.376   0.695 -0.0123  0.5604 -0.5302
 4878TIP3    H136193   4.940   1.348   0.771  1.2060  0.0528  0.1403
 4878TIP3    H236194   5.038   1.454   0.724  1.2489 -0.2096 -0.3698
 4879TIP3   OH236195   4.288   2.489   6.271 -0.1943  0.0599  0.3125
 4879TIP3    H136196   4.251   2.430   6.336 -1.2442 -0.2864 -0.5554
 4879TIP3    H236197   4.377   2.458   6.257 -0.3915 -0.6627  0.6411
 4880TIP3   OH236198   4.210   3.404   6.323  0.7136 -1.1329 -0.5612
 4880TIP3    H136199   4.216   3.495   6.293 -1.3474 -0.2428  1.4163
 4880TIP3    H236200   4.188   3.354   6.244 -0.6418  0.4779 -1.2563
 4881TIP3   OH236201   1.550   1.620   7.531 -0.0137 -0.0481  0.5490
 4881TIP3    H136202   1.543   1.533   7.570 -0.4674 -0.5569 -0.6023
 4881TIP3    H236203   1.461   1.654   7.532 -0.4664 -0.9358 -1.8460
 4882TIP3   OH236204   1.827   4.871   6.880 -0.6580  0.3452  0.2068
 4882TIP3    H136205   1.780   4.788   6.872 -1.1147  0.6628 -0.5220
 4882TIP3    H236206   1.839   4.882   6.974 -0.7489 -0.4574  0.3232
 4883TIP3   OH236207   6.967   3.496   0.496  0.3282 -0.6096  0.3835
 4883TIP3    H136208   6.884   3.458   0.523 -0.2263  0.2384 -0.1073
 4883TIP3    H236209   6.962   3.588   0.521  1.7322 -0.8563  1.7172
 4884TIP3   OH236210   0.757   5.540   1.118  0.2769 -0.1715 -0.3022
 4884TIP3    H136211   0.665   5.553   1.096  1.0088  2.2801 -2.6327
 4884TIP3    H236212   0.777   5.452   1.087 -1.0890 -0.3942 -0.6231
 4885TIP3   OH236213   0.820   0.250   7.472 -0.0536  0.3456 -0.3210
 4885TIP3    H136214   0.817   0.330   7.525  1.5522 -1.2672  2.4196
 4885TIP3    H236215   0.730   0.217   7.474 -0.1229  0.5408  1.1643
 4886TIP3   OH236216   2.272   2.790   1.227  0.0822  0.3424  0.3402
 4886TIP3    H136217   2.321   2.798   1.146  0.3157 -1.2894  0.2944
 4886TIP3    H236218   2.246   2.698   1.232 -0.8944  0.6361  1.5659
 4887TIP3   OH236219   2.150   2.694   0.495  0.2159 -0.1215  0.0845
 4887TIP3    H136220   2.130   2.721   0.405 -1.1293 -1.9753 -0.2187
 4887TIP3    H236221   2.242   2.667   0.492  0.2451  0.0341 -0.6903
 4888TIP3   OH236222   6.454   0.097   7.777 -0.3098  0.1722  0.0004
 4888TIP3    H136223   6.498   0.167   7.727 -0.9978  1.4178  1.0745
 4888TIP3    H236224   6.432   0.031   7.711  2.6838 -0.3046 -0.6732
 4889TIP3   OH236225   3.219   6.039   1.077  0.3758  0.0360 -0.1060
 4889TIP3    H136226   3.312   6.015   1.075  0.1839 -0.7541  0.1171
 4889TIP3    H236227   3.188   6.010   1.162 -0.3671 -0.8554 -0.6659
 4890TIP3   OH236228   0.686   0.674   1.898 -0.3188  0.2432 -0.2427
 4890TIP3    H136229   0.699   0.588   1.939 -0.6300 -0.2695 -1.1824
 4890TIP3    H236230   0.615   0.660   1.836  0.8760  0.6703 -1.7949
 4891TIP3   OH236231   4.560   1.612   1.167 -0.2396  0.0571 -0.1525
 4891TIP3    H136232   4.546   1.631   1.260 -0.5807  1.5093 -0.4656
 4891TIP3    H236233   4.473   1.592   1.133  0.1262 -2.4766  0.1937
 4892TIP3   OH236234   5.217   4.446   6.568 -0.0377  0.4891  0.0493
 4892TIP3    H136235   5.309   4.453   6.545  0.2135 -0.5825  0.6451
 4892TIP3    H236236   5.171   4.486   6.494  0.8736  0.4907 -0.5375
 4893TIP3   OH236237   2.946   5.237   1.137  0.0169 -0.0494  0.2661
 4893TIP3    H136238   2.926   5.174   1.068 -0.6351  2.5787 -2.1344
 4893TIP3    H236239   2.863   5.252   1.181  0.2042 -0.9189  0.9403
 4894TIP3   OH236240   5.658   5.477   0.910  0.2824 -0.3468 -0.4378
 4894TIP3    H136241   5.590   5.412   0.893 -1.4546  1.1206  0.5319
 4894TIP3    H236242   5.641   5.546   0.846  0.5116  0.2627  0.1448
 4895TIP3   OH236243   2.384   0.429   7.632  0.2210  0.0363 -0.0547
 4895TIP3    H136244   2.373   0.335   7.648 -0.7996  0.2283  0.4750
 4895TIP3    H236245   2.461   0.453   7.682 -0.1781 -0.3055  0.7408
 4896TIP3   OH236246   3.213   5.707   6.945 -0.6625 -0.3815  0.6964
 4896TIP3    H136247   3.132   5.716   6.894  0.3638 -1.0190 -1.1524
 4896TIP3    H236248   3.278   5.757   6.896  0.0645  0.2492  2.2341
 4897TIP3   OH236249   6.993   3.452   7.989 -0.0663 -0.1038 -0.4033
 4897TIP3    H136250   6.967   3.448   8.081  1.4140  4.1198  0.4294
 4897TIP3    H236251   7.089   3.443   7.991  0.0642  0.8283 -1.3737
 4898TIP3   OH236252   6.005   6.732   0.329 -0.5377  0.0436  0.0806
 4898TIP3    H136253   6.023   6.804   0.389  2.5660  0.8441 -1.6143
 4898TIP3    H236254   6.088   6.718   0.283 -2.3844 -1.3678 -3.1137
 4899TIP3   OH236255   2.169   1.632   0.939  0.1190 -0.3292 -0.0611
 4899TIP3    H136256   2.237   1.629   0.872 -0.4290  0.5867 -0.6797
 4899TIP3    H236257   2.213   1.604   1.019  1.4173  0.9269 -0.2876
 4900TIP3   OH236258   2.905   6.327   0.571  0.0012  0.0960  0.2042
 4900TIP3    H136259   2.818   6.286   0.576  0.0232 -0.1352 -0.9797
 4900TIP3    H236260   2.903   6.376   0.488  0.7217  0.7593  0.5736
 4901TIP3   OH236261   3.935   5.642   6.735 -0.1211  0.4198 -0.0506
 4901TIP3    H136262   3.930   5.736   6.749  2.2415  0.4089  1.2101
 4901TIP3    H236263   3.901   5.629   6.646 -0.2557  2.4566 -0.3307
 4902TIP3   OH236264   6.129   4.800   0.381 -0.1090  0.5004 -0.6049
 4902TIP3    H136265   6.210   4.850   0.382  0.2883 -0.1178  0.7758
 4902TIP3    H236266   6.151   4.719   0.335 -0.6160  1.3109 -2.3755
 4903TIP3   OH236267   4.327   1.923   1.174 -0.2175 -0.5520 -0.4584
 4903TIP3    H136268   4.256   1.912   1.237 -0.0510  0.7099 -0.0444
 4903TIP3    H236269   4.340   1.835   1.138 -0.1923 -1.3322  1.3823
 4904TIP3   OH236270   1.092   2.178   5.740 -0.1447 -0.3986 -0.0865
 4904TIP3    H136271   0.998   2.167   5.752 -0.0705  0.9801  2.3540
 4904TIP3    H236272   1.102   2.266   5.704  0.2186 -0.5505 -0.3656
 4905TIP3   OH236273   1.231   5.115   6.990  0.0827  0.0242 -0.2544
 4905TIP3    H136274   1.240   5.035   7.040 -1.4655 -1.1512 -1.7168
 4905TIP3    H236275   1.307   5.116   6.932  0.8252  0.3490  0.7137
 4906TIP3   OH236276   0.327   2.521   6.866  0.4183  0.0924  0.0421
 4906TIP3    H136277   0.369   2.581   6.927  0.7434 -0.3419  0.2548
 4906TIP3    H236278   0.244   2.498   6.908  0.1088  0.7039 -0.2293
 4907TIP3   OH236279   6.288   6.963   6.780 -0.1468  0.3257 -0.3354
 4907TIP3    H136280   6.363   7.014   6.751  0.2763  0.2352  0.5819
 4907TIP3    H236281   6.323   6.875   6.796 -0.1677  0.5902  1.3059
 4908TIP3   OH236282   6.362   0.813   7.618  0.1764 -0.2256 -0.7795
 4908TIP3    H136283   6.372   0.767   7.534  0.0277  0.1675 -1.0131
 4908TIP3    H236284   6.379   0.905   7.598  1.3355 -0.2821 -0.1401
 4909TIP3   OH236285   0.860   0.617   7.030 -0.1316  0.1201  0.1903
 4909TIP3    H136286   0.848   0.595   6.938 -0.0013  0.3033  0.1278
 4909TIP3    H236287   0.804   0.694   7.043  2.4842  2.3266 -0.6457
 4910TIP3   OH236288   3.434   2.043   6.497 -0.8166  0.4062 -0.4564
 4910TIP3    H136289   3.523   2.077   6.511 -0.6501 -0.4071  0.5727
 4910TIP3    H236290   3.410   2.003   6.580 -1.1087 -1.7342 -1.4970
 4911TIP3   OH236291   1.319   0.650   7.529 -0.4075  0.3868  0.0271
 4911TIP3    H136292   1.361   0.676   7.447  0.7089 -0.9542  0.1362
 4911TIP3    H236293   1.387   0.659   7.595 -1.2390  1.2592  0.7969
 4912TIP3   OH236294   2.792   1.835   7.702 -0.5086 -0.3624  0.0653
 4912TIP3    H136295   2.881   1.801   7.712 -0.4285 -0.2493 -0.2737
 4912TIP3    H236296   2.803   1.928   7.686 -0.7404 -0.1088  1.2473
 4913TIP3   OH236297   4.001   2.870   0.457 -0.4696 -0.4171 -0.0820
 4913TIP3    H136298   3.995   2.818   0.537 -0.1720 -1.1479 -0.5158
 4913TIP3    H236299   3.929   2.932   0.462 -1.4380 -1.5227  0.0016
 4914TIP3   OH236300   3.150   3.458   0.970 -0.3735 -0.0368 -0.3663
 4914TIP3    H136301   3.170   3.418   1.054  0.2379  0.5755 -0.2101
 4914TIP3    H236302   3.235   3.489   0.937 -0.5830 -0.3773 -1.2607
 4915TIP3   OH236303   1.181   4.588   7.359 -0.0169 -0.4126 -0.2270
 4915TIP3    H136304   1.118   4.660   7.364  0.0344 -0.4610  2.3447
 4915TIP3    H236305   1.127   4.511   7.341 -0.0912  0.1360 -2.8114
 4916TIP3   OH236306   4.257   4.779   0.260 -1.0880  0.5690  0.2584
 4916TIP3    H136307   4.249   4.871   0.236 -1.6280  0.2916 -0.6686
 4916TIP3    H236308   4.167   4.750   0.274 -1.0901 -0.2766 -1.3008
 4917TIP3   OH236309   3.162   2.383   0.936 -0.6483 -0.1709 -0.4344
 4917TIP3    H136310   3.127   2.430   1.012  1.9206 -0.8425  1.2933
 4917TIP3    H236311   3.125   2.295   0.943 -0.1808 -0.3248  0.2729
 4918TIP3   OH236312   1.953   2.975   7.048  0.4928  0.0506 -0.1464
 4918TIP3    H136313   1.997   2.948   6.967 -0.4169 -0.4439 -0.4972
 4918TIP3    H236314   2.018   3.026   7.096  1.2944 -0.3129 -0.8373
 4919TIP3   OH236315   2.944   1.373   1.450  0.2451 -0.2996 -1.0577
 4919TIP3    H136316   2.910   1.372   1.361 -3.1035  1.4884  0.0306
 4919TIP3    H236317   2.938   1.283   1.479 -2.5672 -0.3192 -1.4159
 4920TIP3   OH236318   3.853   6.026   1.560 -0.4994 -0.4681  0.0313
 4920TIP3    H136319   3.888   5.937   1.555  0.5331 -0.2064  1.6065
 4920TIP3    H236320   3.866   6.051   1.652 -1.3633  1.0783 -0.2340
 4921TIP3   OH236321   2.932   6.163   7.646  0.1919  0.2292 -0.6903
 4921TIP3    H136322   2.974   6.090   7.690  0.1653  1.1340  0.9214
 4921TIP3    H236323   2.840   6.157   7.672 -0.0474  0.1601 -1.5223
 4922TIP3   OH236324   6.560   1.917   0.748 -0.0757  0.0572  0.3174
 4922TIP3    H136325   6.508   1.894   0.672  0.9260 -0.0626 -0.3559
 4922TIP3    H236326   6.542   1.847   0.812  0.1638 -0.6371 -0.3524
 4923TIP3   OH236327   4.230   4.432   7.375 -0.4961  0.1113 -0.4973
 4923TIP3    H136328   4.269   4.382   7.303  0.0782  0.2031 -0.2522
 4923TIP3    H236329   4.283   4.512   7.380 -0.2785 -0.0726  0.2856
 4924TIP3   OH236330   6.429   3.116   1.589  0.2427 -0.0633 -0.1073
 4924TIP3    H136331   6.462   3.164   1.665 -0.3993  0.8240 -0.3797
 4924TIP3    H236332   6.502   3.116   1.527  0.5865 -0.3304  0.2907
 4925TIP3   OH236333   3.964   0.559   6.848  0.1606  0.3519 -0.1894
 4925TIP3    H136334   4.028   0.558   6.777  0.1762  0.0149 -0.1754
 4925TIP3    H236335   4.016   0.572   6.928  0.4033 -1.3961 -0.0155
 4926TIP3   OH236336   1.351   5.027   6.536  0.1407  0.0867 -0.1980
 4926TIP3    H136337   1.370   5.119   6.520 -1.6592  0.3322 -1.1724
 4926TIP3    H236338   1.256   5.023   6.547  0.3432 -1.4126  1.6817
 4927TIP3   OH236339   3.432   1.385   5.846  0.4131  0.2890 -0.5498
 4927TIP3    H136340   3.433   1.479   5.864 -0.3029  0.2926 -0.4934
 4927TIP3    H236341   3.518   1.354   5.875 -0.2351  0.4983  1.8424
 4928TIP3   OH236342   3.615   3.388   0.729  0.1785  0.2404  0.6625
 4928TIP3    H136343   3.626   3.446   0.654  0.6321 -0.2785  0.3148
 4928TIP3    H236344   3.521   3.391   0.748  0.0597  0.3928  0.0833
 4929TIP3   OH236345   1.949   1.958   7.698  0.3928  0.8721  0.4297
 4929TIP3    H136346   1.883   1.893   7.672  0.2399  0.4210  1.8478
 4929TIP3    H236347   2.021   1.905   7.732 -0.3606  1.4053  3.0788
 4930TIP3   OH236348   3.863   6.500   6.458 -0.0413  0.2515 -0.0194
 4930TIP3    H136349   3.915   6.434   6.503 -3.5749 -1.7555  1.5266
 4930TIP3    H236350   3.872   6.480   6.365  0.8065 -0.9000  0.3004
 4931TIP3   OH236351   4.248   2.787   7.750 -0.1787  0.2654 -0.2400
 4931TIP3    H136352   4.224   2.695   7.742  0.4195  0.0985 -0.1689
 4931TIP3    H236353   4.191   2.820   7.820 -0.5632  0.0154 -0.4303
 4932TIP3   OH236354   5.765   4.324   1.199 -0.0689  0.4528  0.3036
 4932TIP3    H136355   5.721   4.270   1.133  1.3215  1.1015 -1.2212
 4932TIP3    H236356   5.851   4.284   1.210 -0.5086 -0.0932  2.3547
 4933TIP3   OH236357   1.044   0.138   7.654 -0.5059 -0.2257  0.8429
 4933TIP3    H136358   0.972   0.161   7.595  0.0359  0.0196  0.2670
 4933TIP3    H236359   1.086   0.222   7.674  2.1288 -0.6510 -2.0902
 4934TIP3   OH236360   4.448   5.358   8.021 -0.0129  0.0439  0.2109
 4934TIP3    H136361   4.380   5.319   7.966  1.9037 -1.2023 -1.4301
 4934TIP3    H236362   4.512   5.288   8.034  0.8753  1.0961  1.8767
 4935TIP3   OH236363   4.130   1.720   0.086 -0.1247 -0.3306 -0.1491
 4935TIP3    H136364   4.218   1.756   0.076  0.3643 -1.3886  0.1916
 4935TIP3    H236365   4.094   1.765   0.162  0.2044 -0.0617 -0.1511
 4936TIP3   OH236366   5.662   2.187   0.192 -0.2301  0.3979 -0.4675
 4936TIP3    H136367   5.640   2.136   0.270 -0.5438 -1.5807 -1.7995
 4936TIP3    H236368   5.744   2.232   0.215 -0.5262  0.1941  1.1177
 4937TIP3   OH236369   6.002   2.607   7.596  0.0540  1.2249 -0.0795
 4937TIP3    H136370   5.998   2.655   7.679  0.5529  1.9651 -0.4701
 4937TIP3    H236371   6.096   2.592   7.582 -0.0989 -0.1142  0.1614
 4938TIP3   OH236372   6.112   4.979   0.144  0.1761  0.0844 -0.4457
 4938TIP3    H136373   6.148   4.926   0.215 -0.1752  2.1462  1.3756
 4938TIP3    H236374   6.018   4.964   0.148 -0.0561  1.6425  0.8487
 4939TIP3   OH236375   2.954   0.514   6.479 -0.5733 -0.3965 -0.4087
 4939TIP3    H136376   2.984   0.573   6.549 -0.2663  0.3945 -1.1800
 4939TIP3    H236377   2.864   0.541   6.462 -0.6629 -0.6197 -0.2950
 4940TIP3   OH236378   2.440   4.427   7.702 -0.5292  0.8326 -0.5066
 4940TIP3    H136379   2.469   4.365   7.634  0.7057  1.5795 -0.6898
 4940TIP3    H236380   2.474   4.391   7.783  0.3562  1.3423 -0.6362
 4941TIP3   OH236381   3.639   4.637   7.051 -0.0965  0.3480  0.4737
 4941TIP3    H136382   3.694   4.695   7.104  3.0089 -0.9519 -1.0548
 4941TIP3    H236383   3.649   4.670   6.962 -3.6192  1.2918  0.3108
 4942TIP3   OH236384   2.300   5.652   0.378  0.3416 -0.0335  0.2318
 4942TIP3    H136385   2.357   5.576   0.366 -0.0780 -0.6615  1.8957
 4942TIP3    H236386   2.254   5.661   0.295 -0.7119 -2.5710  0.4433
 4943TIP3   OH236387   6.985   3.359   0.221 -0.6199 -0.2114 -0.0066
 4943TIP3    H136388   7.023   3.329   0.303  1.2664 -0.1251 -0.7914
 4943TIP3    H236389   6.975   3.279   0.169 -0.8110 -0.1441 -0.0733
 4944TIP3   OH236390   1.100   6.633   7.622 -0.0900  0.6358  0.0183
 4944TIP3    H136391   1.156   6.649   7.698  1.7480  2.0015 -1.5041
 4944TIP3    H236392   1.153   6.578   7.564 -0.2714  1.9170 -1.4470
 4945TIP3   OH236393   5.047   0.821   0.839  0.4058 -0.0849  0.1666
 4945TIP3    H136394   5.065   0.740   0.791 -0.3564 -1.0665  1.4927
 4945TIP3    H236395   4.980   0.866   0.787  0.2891 -0.6597 -0.1828
 4946TIP3   OH236396   3.831   5.762   7.973 -0.1943 -0.3131 -0.5399
 4946TIP3    H136397   3.774   5.704   7.922 -1.0167 -0.2685  0.2993
 4946TIP3    H236398   3.853   5.833   7.913 -2.0332  0.3077 -0.5126
 4947TIP3   OH236399   4.231   4.315   0.298  0.2566  0.6803 -0.3266
 4947TIP3    H136400   4.196   4.252   0.361  1.0590  0.5658  0.0174
 4947TIP3    H236401   4.195   4.289   0.214  2.3790 -1.6829 -0.6045
 4948TIP3   OH236402   1.052   1.180   7.145 -0.2374 -0.0817 -0.2362
 4948TIP3    H136403   1.007   1.161   7.228 -0.6108 -1.5824 -0.7502
 4948TIP3    H236404   1.033   1.104   7.090  0.8963  0.4003 -1.3333
 4949TIP3   OH236405   6.201   1.276   0.886  0.1637 -0.4442 -0.2039
 4949TIP3    H136406   6.221   1.224   0.964  0.0824  0.8787  0.7231
 4949TIP3    H236407   6.285   1.310   0.858 -0.0143  0.4646  0.3267
 4950TIP3   OH236408   0.473   3.787   1.323 -0.4338 -0.6114 -0.8611
 4950TIP3    H136409   0.395   3.786   1.267 -1.8911 -0.4002  1.0751
 4950TIP3    H236410   0.474   3.874   1.362  0.3788 -0.8515 -0.3148
 4951TIP3   OH236411   5.628   2.946   0.624  0.3429  0.4291  0.8303
 4951TIP3    H136412   5.550   2.902   0.592 -1.4267  3.0723  1.1783
 4951TIP3    H236413   5.668   2.984   0.545  1.3867 -0.9990  0.6396
 4952TIP3   OH236414   1.703   1.668   0.978 -0.4504  0.0308 -0.0561
 4952TIP3    H136415   1.733   1.581   1.006 -0.1691  0.3786  0.7353
 4952TIP3    H236416   1.781   1.709   0.941 -0.3407  0.3265  0.5040
 4953TIP3   OH236417   4.774   0.539   6.950  0.4331  0.1127 -0.0751
 4953TIP3    H136418   4.694   0.497   6.918  0.0567  0.4461  0.4093
 4953TIP3    H236419   4.768   0.533   7.045 -0.0479  1.9692  0.0545
 4954TIP3   OH236420   1.667   5.470   0.064 -0.3277 -0.2155 -0.0061
 4954TIP3    H136421   1.687   5.387   0.022 -0.3415  0.2446 -0.9473
 4954TIP3    H236422   1.717   5.469   0.146  2.2939  0.1970 -1.4908
 4955TIP3   OH236423   1.605   7.114   0.815 -0.1751 -0.0185 -0.5673
 4955TIP3    H136424   1.635   7.204   0.824 -0.0869 -0.0758 -0.2776
 4955TIP3    H236425   1.587   7.104   0.722 -2.1881  0.9167 -0.3203
 4956TIP3   OH236426   6.909   0.943   7.801  0.5935 -0.3404  0.0578
 4956TIP3    H136427   6.944   1.021   7.843 -1.2444  0.9174 -0.6308
 4956TIP3    H236428   6.965   0.872   7.833  2.0901  1.1699  0.9955
 4957TIP3   OH236429   4.807   0.022   0.619 -0.0351 -0.2727  0.1981
 4957TIP3    H136430   4.835   0.082   0.688  0.8061 -0.5879  0.1416
 4957TIP3    H236431   4.720  -0.007   0.645 -1.0596  1.9998 -0.4332
 4958TIP3   OH236432   1.011   5.585   0.079  0.3060 -0.8028  0.3692
 4958TIP3    H136433   0.935   5.622   0.034  1.4231 -0.0869 -1.0171
 4958TIP3    H236434   1.064   5.661   0.104  1.1098 -1.3318  0.3050
 4959TIP3   OH236435   6.680   2.682   7.990 -0.6694 -0.2559  0.4451
 4959TIP3    H136436   6.629   2.685   7.909 -2.0001 -1.7704  1.1631
 4959TIP3    H236437   6.630   2.624   8.047  1.1646 -0.6882  1.7034
 4960TIP3   OH236438   0.644   6.534   7.220 -0.1076 -0.4110 -0.4008
 4960TIP3    H136439   0.681   6.588   7.151 -1.2934  0.5084 -0.3539
 4960TIP3    H236440   0.550   6.536   7.204 -0.5133  0.5612  1.7304
 4961TIP3   OH236441   3.199   1.599   0.541 -0.8106  0.1135  0.4630
 4961TIP3    H136442   3.140   1.647   0.599 -0.2448 -0.5984  1.6800
 4961TIP3    H236443   3.253   1.547   0.600 -1.3454 -1.9639 -0.7843
 4962TIP3   OH236444   1.894   0.505   0.143  0.3980  0.0830  0.4595
 4962TIP3    H136445   1.974   0.457   0.122  0.1349 -0.5999  0.9678
 4962TIP3    H236446   1.852   0.453   0.212 -0.5403  0.3728  0.1273
 4963TIP3   OH236447   2.281   6.420   0.928  0.1213  0.2930  0.5982
 4963TIP3    H136448   2.344   6.460   0.988  1.2561 -0.1376 -0.2658
 4963TIP3    H236449   2.323   6.339   0.900 -1.3755 -0.6526  0.9578
 4964TIP3   OH236450   2.354   3.622   7.442  0.4362 -0.5780  0.4183
 4964TIP3    H136451   2.263   3.649   7.430  0.7422 -0.1207 -1.0795
 4964TIP3    H236452   2.385   3.602   7.353  0.9609 -3.5621  1.1692
 4965TIP3   OH236453   5.872   6.525   1.237 -0.3625  0.0011  0.2148
 4965TIP3    H136454   5.922   6.471   1.299  0.0272  1.1754  0.9682
 4965TIP3    H236455   5.923   6.524   1.157 -1.9701 -3.3710 -0.9361
 4966TIP3   OH236456   5.711   0.265   1.117  0.0841 -0.6858  0.4128
 4966TIP3    H136457   5.634   0.218   1.152  0.9385 -2.1264  0.4408
 4966TIP3    H236458   5.783   0.202   1.125  0.7258 -0.4079 -2.1875
 4967TIP3   OH236459   4.187   3.556   7.474 -0.3200 -0.4687  0.4002
 4967TIP3    H136460   4.239   3.478   7.490 -0.4482 -0.4596  0.8710
 4967TIP3    H236461   4.104   3.523   7.440 -0.4233 -0.5513  0.7235
 4968TIP3   OH236462   2.001   4.665   1.433  0.3075 -0.9220  0.1766
 4968TIP3    H136463   2.015   4.571   1.437 -3.9549 -1.7234  0.9962
 4968TIP3    H236464   2.007   4.687   1.339 -0.0716 -2.3113 -0.1902
 4969TIP3   OH236465   0.830   4.075   0.363  0.2337 -0.4374  0.2816
 4969TIP3    H136466   0.800   4.002   0.417  0.5535 -0.9568 -0.2285
 4969TIP3    H236467   0.749   4.115   0.329  0.0615 -0.6114  0.4919
 4970TIP3   OH236468   5.081   0.690   1.098  0.4673  0.0441 -0.0213
 4970TIP3    H136469   5.053   0.713   1.009  2.4399  2.8352 -0.0491
 4970TIP3    H236470   5.138   0.614   1.085  2.9505  1.9967 -1.6728
 4971TIP3   OH236471   5.469   6.039   6.891 -0.1471 -0.4446 -0.7537
 4971TIP3    H136472   5.400   5.974   6.907 -0.9502  0.3140 -1.0353
 4971TIP3    H236473   5.459   6.061   6.799 -0.2476  0.4787 -0.5269
 4972TIP3   OH236474   6.728   2.956   7.014 -0.0037 -1.0111 -0.2573
 4972TIP3    H136475   6.707   2.913   7.097 -0.6520  0.8977  0.6447
 4972TIP3    H236476   6.798   2.903   6.976  2.3424 -0.4762  2.8590
 4973TIP3   OH236477   5.218   5.262   5.776  0.2205 -0.6444 -0.0913
 4973TIP3    H136478   5.166   5.342   5.773  0.0982 -0.6667  1.1182
 4973TIP3    H236479   5.155   5.192   5.760  0.4180 -0.4869 -1.6955
 4974TIP3   OH236480   2.484   0.973   0.790  0.5312  0.4655  0.3187
 4974TIP3    H136481   2.548   0.916   0.834  2.0626  1.8640  0.0159
 4974TIP3    H236482   2.518   0.982   0.701  0.1055  1.5238  0.2617
 4975TIP3   OH236483   6.407   5.389   0.255  0.3837 -0.1094  0.0365
 4975TIP3    H136484   6.347   5.445   0.304 -0.8990  0.3041 -1.9067
 4975TIP3    H236485   6.368   5.381   0.168  1.6082 -2.3234 -0.3982
 4976TIP3   OH236486   7.111   4.082   0.018 -0.2749  0.7990 -0.2734
 4976TIP3    H136487   7.077   4.061  -0.069 -1.5959  1.9305 -0.0659
 4976TIP3    H236488   7.167   4.158   0.004  1.8270 -0.7217 -0.5267
 4977TIP3   OH236489   0.607   4.306   1.255 -0.1321 -0.2567  0.3763
 4977TIP3    H136490   0.589   4.400   1.251 -0.1999 -0.3066 -1.4141
 4977TIP3    H236491   0.532   4.265   1.211  0.9383 -0.9645 -0.8521
 4978TIP3   OH236492   6.814   4.654   1.073  0.5104  0.1538  0.1670
 4978TIP3    H136493   6.738   4.663   1.015  0.4603  0.1621  0.2329
 4978TIP3    H236494   6.875   4.721   1.044  1.2545 -0.9810 -1.0470
 4979TIP3   OH236495   5.602   5.827   0.851 -0.3945  0.8516 -0.0304
 4979TIP3    H136496   5.665   5.900   0.850 -0.3664  0.8364  0.5820
 4979TIP3    H236497   5.619   5.781   0.769  2.5090 -0.9290  1.3927
 4980TIP3   OH236498   6.335   1.940   6.828 -0.2072 -0.5346 -0.6896
 4980TIP3    H136499   6.340   1.879   6.902  0.3591  0.6365  0.2766
 4980TIP3    H236500   6.425   1.947   6.797 -0.1458  0.3476 -0.3260
 4981TIP3   OH236501   2.933   5.796   6.270  0.1938  0.2278 -0.2514
 4981TIP3    H136502   2.903   5.746   6.194 -2.5585 -0.4621  1.1331
 4981TIP3    H236503   2.955   5.882   6.235 -0.5551 -0.2048 -1.8915
 4982TIP3   OH236504   2.347   0.568   7.006  0.2710  1.0155  0.2782
 4982TIP3    H136505   2.262   0.580   7.048 -0.3039  0.8903 -0.8122
 4982TIP3    H236506   2.354   0.474   6.993 -0.4192  1.1729 -1.5652
 4983TIP3   OH236507   5.829   0.251   6.135  0.1945  0.3071  0.6539
 4983TIP3    H136508   5.814   0.276   6.226  0.7127  1.8467  0.3326
 4983TIP3    H236509   5.745   0.214   6.107  0.1190 -0.4939  1.8266
 4984TIP3   OH236510   5.640   0.659   6.316  0.3885 -0.2519  0.2292
 4984TIP3    H136511   5.588   0.729   6.276 -0.3257 -0.3284  1.0160
 4984TIP3    H236512   5.603   0.578   6.279  1.5331 -0.2245 -1.0625
 4985TIP3   OH236513   6.542   4.219   7.593 -0.5884  0.1387 -0.4709
 4985TIP3    H136514   6.618   4.277   7.588  2.2325 -3.1916  0.2532
 4985TIP3    H236515   6.504   4.238   7.679  1.1764 -0.0550  0.4025
 4986TIP3   OH236516   6.400   6.411   6.512  0.4263 -0.0147 -0.1834
 4986TIP3    H136517   6.422   6.440   6.601  0.6938 -0.0255 -0.2441
 4986TIP3    H236518   6.483   6.417   6.464 -0.1123  1.9614 -0.9642
 4987TIP3   OH236519   5.706   3.285   0.226 -0.6692 -0.1062  0.6004
 4987TIP3    H136520   5.795   3.320   0.233 -0.9264  1.0409 -1.2384
 4987TIP3    H236521   5.650   3.355   0.259 -1.0399  0.3492 -0.9177
 4988TIP3   OH236522   2.908   3.697   1.152 -0.1784  0.0058  0.3566
 4988TIP3    H136523   2.914   3.702   1.056 -1.6682  0.2690  0.2490
 4988TIP3    H236524   2.998   3.686   1.181  0.3855  0.6248 -1.0438
 4989TIP3   OH236525   0.799   3.417   6.779  0.1424  0.0959 -0.1099
 4989TIP3    H136526   0.776   3.391   6.868 -0.1922 -0.9499 -0.4903
 4989TIP3    H236527   0.763   3.505   6.769 -1.2081 -0.3926  0.2670
 4990TIP3   OH236528   1.958   3.398   0.726 -0.0898 -0.1174 -0.6565
 4990TIP3    H136529   1.942   3.487   0.757 -0.4335 -0.0620 -0.9728
 4990TIP3    H236530   2.051   3.396   0.702  0.3398 -0.3517  0.9414
 4991TIP3   OH236531   3.531   5.753   1.288 -0.2952 -0.3327 -0.1220
 4991TIP3    H136532   3.592   5.814   1.329  0.8201 -0.5529 -1.4005
 4991TIP3    H236533   3.586   5.696   1.234 -1.5730 -0.9292 -0.8440
 4992TIP3   OH236534   2.500   6.467   1.184 -0.6911  0.0846 -0.4810
 4992TIP3    H136535   2.425   6.527   1.184 -1.2096 -0.5529 -0.6848
 4992TIP3    H236536   2.476   6.398   1.244  0.9518  1.3091  1.7462
 4993TIP3   OH236537   2.181   0.257   0.530 -0.4545  0.2850  0.3600
 4993TIP3    H136538   2.175   0.332   0.471 -1.3069  0.4740  0.6722
 4993TIP3    H236539   2.126   0.280   0.604 -0.4990 -0.5328  0.5924
 4994TIP3   OH236540   2.791   4.540   6.756 -0.5991  0.2595 -0.5320
 4994TIP3    H136541   2.788   4.588   6.839 -2.2433  0.4997 -0.7062
 4994TIP3    H236542   2.869   4.485   6.763 -0.6561  0.3549  1.1358
 4995TIP3   OH236543   6.909   0.592   0.771  0.4219  0.1708  0.1220
 4995TIP3    H136544   6.951   0.642   0.702 -0.7717 -0.8500 -1.3976
 4995TIP3    H236545   6.979   0.573   0.834  1.2401  2.3150 -0.0449
 4996TIP3   OH236546   3.686   0.472   6.854 -0.6972 -0.2962 -0.1442
 4996TIP3    H136547   3.627   0.544   6.835 -0.4098 -0.0743 -0.2087
 4996TIP3    H236548   3.773   0.506   6.835 -0.7152 -1.5017 -2.8179
 4997TIP3   OH236549   6.367   0.939   7.894 -0.5313 -0.0368  0.1629
 4997TIP3    H136550   6.361   0.860   7.947 -0.1456 -0.3429 -0.2427
 4997TIP3    H236551   6.446   0.927   7.841 -0.4853  0.6010  0.0689
 4998TIP3   OH236552   0.332   6.200   0.346  0.5479  0.7920 -0.1399
 4998TIP3    H136553   0.372   6.211   0.260  1.3472  1.1893  0.2664
 4998TIP3    H236554   0.311   6.107   0.351  0.4554  0.7762 -0.7786
 4999TIP3   OH236555   5.752   7.046   1.137 -0.3229  0.4046 -0.6516
 4999TIP3    H136556   5.720   6.979   1.076 -2.4505  1.6616 -1.0059
 4999TIP3    H236557   5.691   7.043   1.210  0.8947  0.4489  0.3989
 5000TIP3   OH236558   0.947   0.733   6.413  0.1222  0.3518 -0.1992
 5000TIP3    H136559   0.953   0.657   6.355 -1.9635 -0.8907  1.0980
 5000TIP3    H236560   1.024   0.785   6.392  1.3503 -1.8481 -1.5058
 5001TIP3   OH236561   5.471   0.698   1.485  0.2327  0.5662 -0.4173
 5001TIP3    H136562   5.380   0.728   1.490 -0.5567 -1.6392 -0.4619
 5001TIP3    H236563   5.505   0.711   1.574 -0.0578  1.5187 -0.4317
 5002TIP3   OH236564   3.198   3.198   0.878  0.2204  0.1030 -0.2117
 5002TIP3    H136565   3.223   3.290   0.887 -0.9193  0.4826 -0.7244
 5002TIP3    H236566   3.108   3.200   0.844  0.6702 -1.1810 -1.6445
 5003TIP3   OH236567   5.861   4.009   1.245  0.4115  0.4853  0.0455
 5003TIP3    H136568   5.897   4.020   1.332 -0.3174  0.9774  0.2937
 5003TIP3    H236569   5.847   3.914   1.236 -0.0280  0.4849  0.6823
 5004TIP3   OH236570   3.317   2.687   1.990 -0.2651 -0.1998  0.3029
 5004TIP3    H136571   3.257   2.614   2.004 -1.2584  0.5559  0.1337
 5004TIP3    H236572   3.318   2.733   2.074  0.0070 -0.1621  0.2794
 5005TIP3   OH236573   0.214   5.270   1.372  0.4038 -0.1323 -0.2381
 5005TIP3    H136574   0.263   5.206   1.423  1.1142  2.1449  2.1851
 5005TIP3    H236575   0.139   5.293   1.428 -0.6380  0.1190 -1.6841
 5006TIP3   OH236576   4.417   1.106   1.816 -0.4499 -0.0141 -0.1329
 5006TIP3    H136577   4.453   1.020   1.793  0.3184  0.2082  0.2092
 5006TIP3    H236578   4.379   1.139   1.734 -0.0979 -0.3666 -0.4418
 5007TIP3   OH236579   5.291   6.368   6.561  0.2634  0.7262 -0.2264
 5007TIP3    H136580   5.197   6.364   6.545  0.1287 -0.7500  0.7409
 5007TIP3    H236581   5.299   6.412   6.646  0.4360  0.8004 -0.2815
 5008TIP3   OH236582   3.955   4.324   2.066 -0.2956  0.3975  1.0801
 5008TIP3    H136583   3.990   4.237   2.085 -0.8197  0.5846  3.1182
 5008TIP3    H236584   4.008   4.356   1.992  1.1111 -0.9100  1.4804
 5009TIP3   OH236585   4.011   4.420   1.692  0.0822  0.2573  0.2580
 5009TIP3    H136586   4.069   4.352   1.726 -0.2699 -0.4194 -0.4756
 5009TIP3    H236587   3.949   4.374   1.635  0.1181  1.2418 -0.6212
 5010TIP3   OH236588   1.336   2.737   7.118  0.3617 -0.1791  0.5117
 5010TIP3    H136589   1.312   2.817   7.071  1.2621  0.0836  0.4783
 5010TIP3    H236590   1.426   2.719   7.090  0.2652 -1.0543  0.7277
 5011TIP3   OH236591   4.515   5.446   0.244 -0.0354 -0.4345 -0.6509
 5011TIP3    H136592   4.441   5.428   0.302  0.5927  0.3371  0.4313
 5011TIP3    H236593   4.481   5.431   0.156 -1.2747 -0.7688 -0.1331
 5012TIP3   OH236594   6.526   4.450   1.257 -0.1612  0.1035 -0.1028
 5012TIP3    H136595   6.596   4.389   1.235  0.8481  0.7679  1.1418
 5012TIP3    H236596   6.524   4.451   1.353 -1.0492  1.0377 -0.1097
 5013TIP3   OH236597   3.821   3.195   0.794 -0.0710 -0.4187 -0.1311
 5013TIP3    H136598   3.767   3.265   0.758 -0.0465  1.5978  3.3285
 5013TIP3    H236599   3.760   3.139   0.842  0.4847  0.2817  1.4596
 5014TIP3   OH236600   4.339   0.440   8.034 -0.6354 -0.3262 -0.2669
 5014TIP3    H136601   4.351   0.358   7.986 -0.3090  0.7968 -2.2291
 5014TIP3    H236602   4.417   0.448   8.088 -0.1716 -0.8224 -0.8458
 5015TIP3   OH236603   3.388   1.129   1.823 -0.0100 -0.5240 -0.1012
 5015TIP3    H136604   3.303   1.134   1.778  0.4104  3.1374 -0.7852
 5015TIP3    H236605   3.368   1.151   1.914  0.2549  1.5739 -0.4990
 5016TIP3   OH236606   3.129   1.832   7.435 -0.7819  0.6633 -0.2326
 5016TIP3    H136607   3.036   1.813   7.420 -0.8679 -0.3401  1.3363
 5016TIP3    H236608   3.130   1.878   7.519  0.2046 -0.1566  0.2211
 5017TIP3   OH236609   1.902   3.850   1.261 -0.0079 -0.4751 -0.1658
 5017TIP3    H136610   1.911   3.940   1.294 -1.5501 -0.5638  0.5487
 5017TIP3    H236611   1.968   3.801   1.310  0.4369  0.1532 -0.1154
 5018TIP3   OH236612   1.480   4.102   0.794 -0.0562  0.1085 -0.3767
 5018TIP3    H136613   1.534   4.148   0.730 -0.0963  1.4405  0.5137
 5018TIP3    H236614   1.453   4.169   0.856  0.5252 -1.2252  1.4239
 5019TIP3   OH236615   5.301   3.573   1.516 -0.2974  0.1434  0.7163
 5019TIP3    H136616   5.369   3.563   1.582  0.5305 -0.7749 -0.2327
 5019TIP3    H236617   5.338   3.635   1.453 -0.6320  0.1958  0.5704
 5020TIP3   OH236618   7.073   6.299   1.180 -0.0551  0.4890 -1.2099
 5020TIP3    H136619   7.114   6.368   1.233 -0.7611  0.5626 -0.7438
 5020TIP3    H236620   7.012   6.256   1.240  1.4182 -1.5262 -1.0526
 5021TIP3   OH236621   0.959   4.679   1.492  0.4382 -0.0131 -0.1946
 5021TIP3    H136622   0.990   4.647   1.408 -1.1720  0.4811 -1.0150
 5021TIP3    H236623   1.039   4.696   1.542  1.5630  1.8631 -2.4312
 5022TIP3   OH236624   3.228   6.598   7.989 -0.0101  0.0219 -0.3177
 5022TIP3    H136625   3.299   6.598   8.054 -1.4251 -0.7970  1.3359
 5022TIP3    H236626   3.194   6.509   7.992 -1.0597  0.3827 -1.1139
 5023TIP3   OH236627   0.496   6.459   6.446 -0.0980 -0.2461 -0.5688
 5023TIP3    H136628   0.554   6.490   6.377  1.5890 -0.2810  0.7660
 5023TIP3    H236629   0.555   6.434   6.518 -1.6844 -1.6406  0.3282
 5024TIP3   OH236630   2.901   3.587   0.070 -0.3197 -0.5742 -0.4478
 5024TIP3    H136631   2.814   3.559   0.098  0.0743 -0.1331  1.3660
 5024TIP3    H236632   2.884   3.651   0.000 -1.6219  1.3458  1.4911
 5025TIP3   OH236633   6.673   2.659   1.040 -0.0571 -0.5150  0.0551
 5025TIP3    H136634   6.607   2.725   1.018  1.1087  1.4971  2.1986
 5025TIP3    H236635   6.666   2.594   0.970 -3.3904  0.2595 -0.4970
 5026TIP3   OH236636   2.642   6.909   7.364  0.4679  0.0263 -0.1904
 5026TIP3    H136637   2.548   6.897   7.352  0.0324  2.0804  0.6644
 5026TIP3    H236638   2.658   6.891   7.457  0.8899 -0.1742 -0.2974
 5027TIP3   OH236639   2.637   3.933   0.928 -0.2305  0.0502 -0.4320
 5027TIP3    H136640   2.605   3.992   0.860 -0.3777  0.8656  0.3186
 5027TIP3    H236641   2.714   3.891   0.890  1.2064  2.3459 -0.2661
 5028TIP3   OH236642   5.056   2.772   7.995 -0.1082 -0.1792  0.0556
 5028TIP3    H136643   5.048   2.677   7.984 -2.0621 -0.2829  1.7137
 5028TIP3    H236644   5.014   2.790   8.079 -0.0562  2.2104 -0.3544
 5029TIP3   OH236645   2.971   6.238   7.128 -0.0816  1.0375  0.2270
 5029TIP3    H136646   3.061   6.264   7.110  0.2005 -0.1170 -0.1341
 5029TIP3    H236647   2.917   6.308   7.092  0.6764  1.9431  0.8247
 5030TIP3   OH236648   2.115   4.056   6.678  0.6362 -0.0593 -0.3882
 5030TIP3    H136649   2.186   3.996   6.701  0.6050 -0.7019 -1.8923
 5030TIP3    H236650   2.069   4.071   6.761  0.5878 -2.1935  0.0177
 5031TIP3   OH236651   1.944   1.647   0.348 -0.5063  0.5139  0.0879
 5031TIP3    H136652   1.946   1.615   0.438 -3.3324  1.3689  0.5503
 5031TIP3    H236653   1.993   1.729   0.350 -0.3028  0.3842  0.7782
 5032TIP3   OH236654   5.073   5.892   6.462  0.0783  0.0448  0.0319
 5032TIP3    H136655   5.097   5.835   6.534 -0.6702 -0.9170 -0.4592
 5032TIP3    H236656   5.020   5.837   6.404 -2.4349  1.7387  0.5487
 5033TIP3   OH236657   4.732   6.656   1.466 -0.1840  0.2044  0.2744
 5033TIP3    H136658   4.785   6.649   1.546 -0.2899  2.2371  0.5719
 5033TIP3    H236659   4.645   6.628   1.493  0.2825 -1.4005  0.2369
 5034TIP3   OH236660   5.560   4.047   6.216  0.6845 -0.2350 -0.5335
 5034TIP3    H136661   5.568   3.977   6.152 -0.4240 -1.2196  0.3714
 5034TIP3    H236662   5.468   4.073   6.213  0.4693 -0.7125  1.0409
 5035TIP3   OH236663   0.312   7.122   5.887  0.2455 -0.2244  0.1795
 5035TIP3    H136664   0.374   7.054   5.913  0.0596 -0.3703  0.2408
 5035TIP3    H236665   0.226   7.081   5.895 -0.0547  0.6608  2.3844
 5036TIP3   OH236666   4.720   0.340   1.610  0.0988 -0.5807 -0.0559
 5036TIP3    H136667   4.726   0.263   1.667 -0.9873  0.0981  1.0269
 5036TIP3    H236668   4.631   0.336   1.574 -0.4432  0.8531  1.0576
 5037TIP3   OH236669   3.513   6.256   7.262  0.0126  0.1676 -0.0262
 5037TIP3    H136670   3.483   6.183   7.316 -3.5082  0.5786 -1.1390
 5037TIP3    H236671   3.520   6.329   7.323 -1.5568  0.0560  0.3298
 5038TIP3   OH236672   1.761   1.202   6.095 -0.1008 -0.4413 -0.7361
 5038TIP3    H136673   1.704   1.233   6.164  0.8733 -0.2930  0.0208
 5038TIP3    H236674   1.722   1.120   6.066 -1.6953  0.5528 -1.5050
 5039TIP3   OH236675   5.048   1.947   7.935 -0.3015  0.1341  0.3347
 5039TIP3    H136676   5.075   1.966   8.024  3.0873  0.1268 -0.5692
 5039TIP3    H236677   5.022   2.032   7.899 -1.5770  0.1555  1.2332
 5040TIP3   OH236678   1.374   1.949   0.182  0.1228  0.0150 -0.3090
 5040TIP3    H136679   1.287   1.916   0.161  0.9038 -1.6141 -1.2055
 5040TIP3    H236680   1.429   1.871   0.184  1.9171  1.1620 -1.6288
 5041TIP3   OH236681   4.791   1.320   1.416  0.2807 -0.1248  0.2892
 5041TIP3    H136682   4.737   1.305   1.494 -3.1402  0.1405 -1.7750
 5041TIP3    H236683   4.838   1.401   1.433 -1.0773  0.3938  1.7718
 5042TIP3   OH236684   0.403   4.473   0.389  0.0280 -0.2319  0.2354
 5042TIP3    H136685   0.424   4.536   0.320 -0.6629  0.3596  0.5550
 5042TIP3    H236686   0.327   4.426   0.356 -0.2234 -0.0383  0.5378
 5043TIP3   OH236687   5.229   2.717   0.600 -0.0070  0.3268  0.1381
 5043TIP3    H136688   5.313   2.672   0.610 -0.1450 -0.0612 -0.3840
 5043TIP3    H236689   5.238   2.766   0.517 -0.4753 -0.1274 -0.1840
 5044TIP3   OH236690   6.423   4.603   7.799 -0.2006  0.1777  0.2086
 5044TIP3    H136691   6.371   4.595   7.879 -1.6048 -0.7255 -0.7555
 5044TIP3    H236692   6.359   4.620   7.731  0.7126 -1.3653 -1.0973
 5045TIP3   OH236693   0.512   6.004   0.771 -0.2708  0.4573  0.5519
 5045TIP3    H136694   0.560   5.953   0.705  0.2621  1.7955 -0.1311
 5045TIP3    H236695   0.421   6.002   0.741 -0.4228 -0.8344  1.0367
 5046TIP3   OH236696   4.571   5.727   0.607  0.2646 -0.3285  0.4803
 5046TIP3    H136697   4.588   5.804   0.662 -0.7221 -0.4207  0.9338
 5046TIP3    H236698   4.571   5.761   0.518  0.3791  0.0965  0.6373
 5047TIP3   OH236699   1.786   6.667   0.020 -0.2351 -0.6767 -0.4131
 5047TIP3    H136700   1.868   6.630   0.052  0.4703  0.5408 -0.7173
 5047TIP3    H236701   1.781   6.638  -0.071 -0.3734 -1.1201 -0.2650
 5048TIP3   OH236702   5.876   2.742   6.014  0.2026  0.2158 -0.2867
 5048TIP3    H136703   5.880   2.667   5.955  1.4658 -0.9357  1.1887
 5048TIP3    H236704   5.927   2.715   6.091 -0.0758  2.2460  0.6698
 5049TIP3   OH236705   2.430   1.243   7.048 -0.1059  0.1442 -0.1189
 5049TIP3    H136706   2.421   1.202   6.962  0.9059 -0.7304  0.1766
 5049TIP3    H236707   2.354   1.301   7.054 -1.0797 -0.9957 -0.9256
 5050TIP3   OH236708   0.501   1.097   0.103 -0.4106  0.1780  0.6258
 5050TIP3    H136709   0.509   1.183   0.144 -0.8109 -0.6759  2.6163
 5050TIP3    H236710   0.591   1.064   0.100 -0.3814  0.2296  0.8784
 5051TIP3   OH236711   5.364   2.018   7.840  0.0434 -0.2626 -0.8583
 5051TIP3    H136712   5.350   2.050   7.929  0.4883 -0.8881 -0.5530
 5051TIP3    H236713   5.280   1.978   7.815  0.9057 -3.3585  0.6948
 5052TIP3   OH236714   5.597   3.795   2.152 -0.4629  0.9925  0.6012
 5052TIP3    H136715   5.619   3.729   2.218 -0.5985  0.4113  0.0778
 5052TIP3    H236716   5.673   3.795   2.093 -1.7331 -1.0045 -1.2030
 5053TIP3   OH236717   4.087   4.386   7.027  0.2308  0.1272 -0.6651
 5053TIP3    H136718   4.042   4.311   7.066  1.3324 -0.3831 -0.3098
 5053TIP3    H236719   4.040   4.404   6.946 -0.2576 -0.7445 -0.5861
 5054TIP3   OH236720   6.550   5.881   1.064 -0.4957 -0.5869 -0.2192
 5054TIP3    H136721   6.485   5.912   1.127 -0.3965  1.1684 -0.9126
 5054TIP3    H236722   6.556   5.952   0.999  1.8109 -0.8681 -0.3908
 5055TIP3   OH236723   2.567   3.708   0.130 -0.2637 -0.3747 -0.0546
 5055TIP3    H136724   2.601   3.771   0.193  0.4539 -0.5079 -0.3005
 5055TIP3    H236725   2.532   3.761   0.059 -2.2191 -0.1763  0.9870
 5056TIP3   OH236726   1.629   2.883   7.997  0.0089 -0.7895 -0.2594
 5056TIP3    H136727   1.612   2.797   7.957 -0.4458 -0.0144 -1.8154
 5056TIP3    H236728   1.590   2.946   7.936  2.6346  0.7017 -0.5310
 5057TIP3   OH236729   5.727   3.583   6.811 -0.1138  0.2198  0.2715
 5057TIP3    H136730   5.777   3.560   6.732  0.7864  0.2421  0.8212
 5057TIP3    H236731   5.709   3.676   6.801 -2.0792 -0.2347 -1.0283
 5058TIP3   OH236732   6.533   6.278   0.185  0.2934  0.7585  0.1714
 5058TIP3    H136733   6.457   6.223   0.202  1.1777 -0.2825  0.9228
 5058TIP3    H236734   6.545   6.273   0.091 -0.3846  0.6708  0.0841
 5059TIP3   OH236735   6.451   2.511   6.460 -0.3737  0.2378  0.3364
 5059TIP3    H136736   6.393   2.509   6.536  1.9223 -0.5096  2.1679
 5059TIP3    H236737   6.452   2.604   6.433  1.1502  1.1725  3.2310
 5060TIP3   OH236738   2.343   3.844   0.697  0.0041  0.2821 -0.0194
 5060TIP3    H136739   2.413   3.837   0.631  0.9673 -2.3125  1.1541
 5060TIP3    H236740   2.354   3.767   0.752 -3.2599  0.2570  0.8031
 5061TIP3   OH236741   3.867   2.344   1.427 -0.3248 -0.3143  0.1676
 5061TIP3    H136742   3.877   2.252   1.403 -0.2608 -0.1251 -0.5592
 5061TIP3    H236743   3.773   2.360   1.420 -0.5151 -0.6580  1.5978
 5062TIP3   OH236744   5.335   7.090   6.591 -0.0025 -0.0264 -0.0772
 5062TIP3    H136745   5.246   7.092   6.626 -0.0273 -0.0350 -0.1393
 5062TIP3    H236746   5.368   7.178   6.604  0.6686 -0.5055  1.7118
 5063TIP3   OH236747   2.366   3.893   6.748 -0.2298 -0.2637  0.8161
 5063TIP3    H136748   2.447   3.912   6.794 -0.2024  0.1316  0.6100
 5063TIP3    H236749   2.394   3.868   6.660 -0.3522  0.3651  0.5922
 5064TIP3   OH236750   3.850   1.168   0.449 -0.1589  0.1294  0.0460
 5064TIP3    H136751   3.885   1.115   0.520  0.4779  0.4724 -0.0050
 5064TIP3    H236752   3.927   1.212   0.412 -0.2734 -1.0780 -1.7243
 5065TIP3   OH236753   2.364   6.424   6.953  0.2117  0.6689  0.4487
 5065TIP3    H136754   2.426   6.354   6.933 -1.1202 -0.1921 -0.8722
 5065TIP3    H236755   2.397   6.500   6.906 -0.3463 -0.1026 -1.2421
 5066TIP3   OH236756   1.003   5.068   7.407  0.1309 -0.0877 -0.0310
 5066TIP3    H136757   1.082   5.078   7.353  0.7885 -1.1545  0.6830
 5066TIP3    H236758   0.932   5.057   7.344  0.4967  1.1463 -0.6948
 5067TIP3   OH236759   2.049   3.084   0.052  0.3581  0.3065 -0.4562
 5067TIP3    H136760   1.964   3.115   0.020  0.3440 -0.4807 -1.2011
 5067TIP3    H236761   2.044   3.095   0.147 -0.6616  0.0701 -0.4742
 5068TIP3   OH236762   3.932   6.151   1.125 -0.6397  0.2791  0.1598
 5068TIP3    H136763   3.892   6.238   1.123 -1.7042 -0.1925 -2.0649
 5068TIP3    H236764   4.024   6.167   1.143 -0.9613  1.8053  0.5515
 5069TIP3   OH236765   1.547   5.138   7.449 -0.0269  0.3593  0.4235
 5069TIP3    H136766   1.532   5.152   7.543 -0.5002 -0.4604  0.4858
 5069TIP3    H236767   1.639   5.113   7.443 -0.4941 -1.6743  0.9538
 5070TIP3   OH236768   3.541   4.679   6.476 -0.3544  0.5990  0.3270
 5070TIP3    H136769   3.566   4.665   6.568 -1.0387  0.6588  0.5231
 5070TIP3    H236770   3.546   4.774   6.465  0.2910  0.5530  0.1311
 5071TIP3   OH236771   3.647   0.676   0.838 -0.2428 -0.3915  0.1658
 5071TIP3    H136772   3.674   0.659   0.928  0.1742 -0.7581 -0.0249
 5071TIP3    H236773   3.721   0.721   0.798 -0.7166  0.4411  0.2106
 5072TIP3   OH236774   3.275   1.438   0.761  0.0869  0.3045 -0.6143
 5072TIP3    H136775   3.258   1.403   0.849 -0.1635 -1.2610 -1.2575
 5072TIP3    H236776   3.347   1.384   0.728 -0.5977  0.0901 -1.8077
 5073TIP3   OH236777   6.450   0.303   7.296  1.0598 -0.3325  1.0141
 5073TIP3    H136778   6.522   0.242   7.283  0.9581 -0.1677 -0.5342
 5073TIP3    H236779   6.412   0.279   7.381  0.7503 -2.6986  0.2550
 5074TIP3   OH236780   4.914   2.429   7.467 -0.4079  0.1768  0.5597
 5074TIP3    H136781   4.830   2.445   7.510 -0.3140 -0.1925  0.8822
 5074TIP3    H236782   4.977   2.419   7.539 -0.1115  0.3170  0.3226
 5075TIP3   OH236783   6.331   4.806   6.653 -0.4015  0.2209  0.2962
 5075TIP3    H136784   6.273   4.730   6.645 -0.6681  0.4241  0.2963
 5075TIP3    H236785   6.379   4.808   6.570 -0.1885 -0.1150  0.4093
 5076TIP3   OH236786   0.841   5.058   6.571  0.5371 -0.2588 -0.0183
 5076TIP3    H136787   0.844   5.102   6.486 -0.2698  2.3620  1.2071
 5076TIP3    H236788   0.932   5.043   6.594  0.9092  1.4247 -0.2474
 5077TIP3   OH236789   5.335   3.778   7.650  0.0325  0.4740 -0.0170
 5077TIP3    H136790   5.398   3.709   7.670  1.3787  1.2192 -1.4451
 5077TIP3    H236791   5.311   3.763   7.559 -0.1706  1.4763 -0.1408
 5078TIP3   OH236792   5.212   0.804   1.514 -0.2914  0.1387 -0.1897
 5078TIP3    H136793   5.123   0.798   1.481 -0.5751  0.5848  0.4788
 5078TIP3    H236794   5.216   0.740   1.584  0.8974 -2.2740 -2.2881
 5079TIP3   OH236795   0.784   1.016   0.098  0.1355  0.2930 -0.3905
 5079TIP3    H136796   0.865   1.041   0.055  2.0898 -0.9938  2.2945
 5079TIP3    H236797   0.773   0.923   0.078  1.4759 -0.5312  2.2280
 5080TIP3   OH236798   2.068   5.599   0.617  0.0898  0.1352 -0.2265
 5080TIP3    H136799   2.096   5.577   0.528 -1.2148 -2.8194 -0.0221
 5080TIP3    H236800   2.148   5.598   0.669  0.3860 -3.0511 -0.5511
 5081TIP3   OH236801   5.165   5.077   0.236  0.0203  0.2885 -0.1745
 5081TIP3    H136802   5.142   5.104   0.147  0.4908  0.5651 -0.2124
 5081TIP3    H236803   5.255   5.045   0.229  0.0133  0.1886  0.1792
 5082TIP3   OH236804   1.408   5.944   0.174  0.3863  0.3150 -0.4337
 5082TIP3    H136805   1.489   5.916   0.216  0.1513 -0.0887 -0.2455
 5082TIP3    H236806   1.437   5.991   0.095  0.7891 -1.1405 -1.1988
 5083TIP3   OH236807   5.063   0.194   6.219  0.1543  0.6993  0.1117
 5083TIP3    H136808   5.013   0.134   6.274 -0.5760  1.0930 -0.1209
 5083TIP3    H236809   5.014   0.276   6.222  0.1127  0.7324 -1.1125
 5084TIP3   OH236810   3.546   4.319   1.148  0.5777 -0.3300 -0.1238
 5084TIP3    H136811   3.535   4.399   1.199  2.2255 -1.4062  2.1252
 5084TIP3    H236812   3.502   4.252   1.199  0.5636 -1.1385 -1.1618
 5085TIP3   OH236813   1.914   2.105   6.521 -0.0499  0.4797 -0.4183
 5085TIP3    H136814   1.979   2.054   6.569 -1.0897 -0.9289 -0.4246
 5085TIP3    H236815   1.867   2.153   6.589  0.2634  0.6115 -0.2959
 5086TIP3   OH236816   2.933   1.114   1.511 -0.2845  0.3180  0.2053
 5086TIP3    H136817   2.943   1.079   1.599  1.5770  1.2374  0.4087
 5086TIP3    H236818   2.853   1.072   1.477  1.0057 -2.9769  0.8939
 5087TIP3   OH236819   7.141   4.122   1.266  0.4044 -0.2922 -0.6953
 5087TIP3    H136820   7.076   4.138   1.334  0.6225  2.1223 -0.9464
 5087TIP3    H236821   7.221   4.100   1.314  0.2478  0.1798 -0.2093
 5088TIP3   OH236822   1.285   4.887   7.110  0.0250  0.1326 -0.6974
 5088TIP3    H136823   1.198   4.849   7.104 -0.1306  0.1853  0.7271
 5088TIP3    H236824   1.303   4.890   7.204  1.8839 -0.6213 -0.9885
 5089TIP3   OH236825   5.434   3.835   1.957  0.1884 -0.2663 -0.1642
 5089TIP3    H136826   5.481   3.759   1.922  2.0243  0.9895 -0.5644
 5089TIP3    H236827   5.493   3.871   2.023 -0.1544  1.4211 -0.7336
 5090TIP3   OH236828   6.784   5.533   7.482 -0.0009 -0.3223 -0.1331
 5090TIP3    H136829   6.739   5.521   7.399  1.1929  0.4109 -0.9104
 5090TIP3    H236830   6.784   5.446   7.522  0.5012 -0.9756 -1.4849
 5091TIP3   OH236831   1.704   2.033   7.005  0.1927  0.1247  0.2007
 5091TIP3    H136832   1.752   2.000   7.081  0.9490  2.6617  0.9285
 5091TIP3    H236833   1.692   2.126   7.023 -3.4614  0.0157 -0.7922
 5092TIP3   OH236834   3.252   2.375   7.796 -0.0593  0.0517 -0.5529
 5092TIP3    H136835   3.176   2.377   7.738 -1.2603  2.0256  0.9718
 5092TIP3    H236836   3.323   2.413   7.744 -0.5544 -0.2252 -1.4400
 5093TIP3   OH236837   4.493   4.408   1.602 -0.2325  0.0859  0.2947
 5093TIP3    H136838   4.548   4.330   1.610  1.4677  1.2986  1.0221
 5093TIP3    H236839   4.506   4.455   1.684 -1.3627  1.0692 -0.0626
 5094TIP3   OH236840   4.335   6.974   0.643 -0.9342  0.3358  0.5228
 5094TIP3    H136841   4.392   6.911   0.599  3.5567  1.8384  3.5037
 5094TIP3    H236842   4.319   6.936   0.729  0.7497  2.4837  1.8842
 5095TIP3   OH236843   3.102   5.361   7.149  0.0975 -0.0855 -0.5430
 5095TIP3    H136844   3.074   5.439   7.100 -0.3888 -1.3584 -2.4154
 5095TIP3    H236845   3.195   5.374   7.164 -0.3241  1.6861  0.8446
 5096TIP3   OH236846   2.358   4.377   0.805 -0.1033  0.1535  0.0222
 5096TIP3    H136847   2.453   4.392   0.808 -0.3483  1.7414  2.5143
 5096TIP3    H236848   2.327   4.433   0.734  0.7384  0.0427 -0.4521
 5097TIP3   OH236849   5.071   3.787   8.028  0.2840  0.5524 -0.0087
 5097TIP3    H136850   5.038   3.710   8.074 -1.7151  1.2385 -0.1962
 5097TIP3    H236851   5.162   3.765   8.007 -0.3977 -2.0257 -0.6348
 5098TIP3   OH236852   1.856   4.481   1.643 -0.3563 -0.2957 -0.5876
 5098TIP3    H136853   1.892   4.416   1.703 -1.2806 -0.4735 -0.2110
 5098TIP3    H236854   1.838   4.431   1.563 -0.2302 -0.3104 -0.6073
 5099TIP3   OH236855   7.061   3.496   6.455  0.1253  0.5515 -0.4468
 5099TIP3    H136856   7.123   3.564   6.429 -0.5849  1.4205  0.0613
 5099TIP3    H236857   7.049   3.443   6.376  0.7413  0.9693 -0.8315
 5100TIP3   OH236858   0.656   4.782   0.410  0.4997 -0.3143  0.0357
 5100TIP3    H136859   0.743   4.746   0.393  1.7975  1.5665  2.1661
 5100TIP3    H236860   0.598   4.735   0.349  2.8765 -2.0267 -1.0506
 5101TIP3   OH236861   5.044   2.579   0.901 -0.3725 -0.5963 -0.0190
 5101TIP3    H136862   5.003   2.507   0.853  0.1435 -0.9340  0.0369
 5101TIP3    H236863   5.137   2.556   0.903 -0.2230  0.0132  0.1049
 5102TIP3   OH236864   5.296   6.192   1.654  0.2135  0.0645 -0.4125
 5102TIP3    H136865   5.268   6.227   1.569 -0.6390 -1.5718 -0.8539
 5102TIP3    H236866   5.216   6.192   1.707 -0.3369 -2.7623 -1.0237
 5103TIP3   OH236867   5.207   1.553   0.199  0.2534 -0.4220 -0.6324
 5103TIP3    H136868   5.151   1.630   0.184  0.9704  0.4671  0.9445
 5103TIP3    H236869   5.263   1.549   0.122  0.7845  1.1999 -0.3853
 5104TIP3   OH236870   4.258   3.938   0.911 -0.6648  0.0770 -0.1252
 5104TIP3    H136871   4.255   3.887   0.831  2.2104  0.3602 -0.5103
 5104TIP3    H236872   4.311   3.887   0.972  1.9575  2.2567 -0.3808
 5105TIP3   OH236873   4.485   3.519   0.988  0.4926 -0.1960  0.3811
 5105TIP3    H136874   4.512   3.499   1.077  1.7474 -1.4590 -0.2332
 5105TIP3    H236875   4.429   3.596   0.996  2.1239  0.9050  2.0582
 5106TIP3   OH236876   1.292   2.470   7.538 -0.2159  0.1071  0.7715
 5106TIP3    H136877   1.226   2.407   7.569  0.1492  0.6888  2.9141
 5106TIP3    H236878   1.242   2.536   7.491 -1.3601  0.9832  3.0651
 5107TIP3   OH236879   6.175   0.052   1.056  0.1256 -0.0314  0.0941
 5107TIP3    H136880   6.239   0.122   1.070  2.3842 -1.7740 -0.8305
 5107TIP3    H236881   6.161   0.051   0.961 -3.4572  2.0143  0.4335
 5108TIP3   OH236882   6.970   2.917   1.564 -0.7227 -0.1984 -0.3880
 5108TIP3    H136883   6.991   2.959   1.647 -0.7776 -1.1716  0.1445
 5108TIP3    H236884   7.009   2.972   1.497 -1.2454  0.9650  0.2401
 5109TIP3   OH236885   2.120   3.534   1.063 -0.1059 -0.6688 -0.2906
 5109TIP3    H136886   2.042   3.485   1.091 -0.5747  0.2704  0.1104
 5109TIP3    H236887   2.181   3.526   1.136 -1.2435  1.5950  1.0473
 5110TIP3   OH236888   6.603   4.086   5.285 -0.0042  0.3841 -0.2322
 5110TIP3    H136889   6.569   4.169   5.318 -1.4456 -0.3709  0.2633
 5110TIP3    H236890   6.527   4.044   5.244  0.3311 -1.3104  0.8048
 5111TIP3   OH236891   0.179   3.755   1.765 -0.3206 -0.3298 -0.1599
 5111TIP3    H136892   0.129   3.808   1.828  2.4587  1.6903  0.5242
 5111TIP3    H236893   0.231   3.696   1.819 -0.7646 -1.3128 -0.7835
 5112TIP3   OH236894   3.634   3.300   7.765  1.0815  0.5482 -0.1540
 5112TIP3    H136895   3.683   3.225   7.731  0.7185  0.7515 -1.1566
 5112TIP3    H236896   3.594   3.267   7.846  0.6755 -0.4416 -0.7392
 5113TIP3   OH236897   5.979   3.458   1.343 -0.4084  0.1744  0.2685
 5113TIP3    H136898   5.979   3.420   1.431 -1.1206  0.1417  0.2615
 5113TIP3    H236899   5.999   3.384   1.285  1.5602  0.4804  0.4963
 5114TIP3   OH236900   2.766   0.549   6.860  0.0865 -0.1505 -0.0292
 5114TIP3    H136901   2.700   0.618   6.868 -0.2994 -0.2153 -2.1633
 5114TIP3    H236902   2.806   0.544   6.947 -0.5843  2.0436  0.4654
 5115TIP3   OH236903   5.585   0.813   7.849  0.1461 -0.0185  0.4722
 5115TIP3    H136904   5.524   0.739   7.849 -0.9535  0.8550  1.8357
 5115TIP3    H236905   5.632   0.805   7.932  0.3878  0.5182  0.3888
 5116TIP3   OH236906   0.183   3.368   1.324 -0.0151 -0.1374  0.2721
 5116TIP3    H136907   0.185   3.436   1.391  1.5121  0.0120  0.0976
 5116TIP3    H236908   0.209   3.288   1.369  2.4566  0.2228 -0.3672
 5117TIP3   OH236909   5.698   1.233   1.304 -0.1866  0.7617  0.3202
 5117TIP3    H136910   5.667   1.143   1.313  2.3027 -0.4075 -1.6633
 5117TIP3    H236911   5.673   1.275   1.387 -0.2350 -2.1209  1.8936
 5118TIP3   OH236912   0.216   2.853   7.920  0.1058  0.6195  0.0833
 5118TIP3    H136913   0.309   2.845   7.939  0.4480  0.0941 -1.6132
 5118TIP3    H236914   0.213   2.901   7.837 -1.0414 -0.6943 -0.6763
 5119TIP3   OH236915   6.843   3.876   0.362 -0.2640  0.3515  0.3392
 5119TIP3    H136916   6.781   3.946   0.344  0.3955  0.3997 -2.1036
 5119TIP3    H236917   6.923   3.902   0.315  0.1020 -1.8462 -0.3873
 5120TIP3   OH236918   6.813   2.305   1.202 -0.1870  0.3736  0.1590
 5120TIP3    H136919   6.867   2.377   1.171 -0.9271  1.0270  0.3653
 5120TIP3    H236920   6.874   2.248   1.250  0.3900  0.8775  0.0261
 5121TIP3   OH236921   0.391   2.513   7.683 -0.4499 -0.4266 -0.2208
 5121TIP3    H136922   0.391   2.449   7.611  0.3027 -1.4277  0.6222
 5121TIP3    H236923   0.299   2.523   7.707 -0.5236 -2.1344  0.3925
 5122TIP3   OH236924   3.802   1.808   7.656 -0.0765  0.7335 -0.1891
 5122TIP3    H136925   3.720   1.759   7.651  1.0178 -1.0765 -1.6316
 5122TIP3    H236926   3.835   1.790   7.744 -0.7155  0.6696  0.0489
 5123TIP3   OH236927   7.080   1.507   7.936 -0.0609  0.2385 -0.4022
 5123TIP3    H136928   7.079   1.531   7.843 -0.5076  0.5056 -0.3304
 5123TIP3    H236929   7.023   1.430   7.941 -0.0390  0.2262 -0.3510
 5124TIP3   OH236930   7.006   2.328   7.573 -0.5681 -0.0830 -0.4112
 5124TIP3    H136931   6.959   2.327   7.657 -1.9452  1.1414 -1.1276
 5124TIP3    H236932   7.058   2.408   7.576 -0.6653 -0.0057 -0.7392
 5125TIP3   OH236933   6.982   2.407   0.719  1.2906  0.2476 -0.2257
 5125TIP3    H136934   7.066   2.376   0.751  0.8361 -1.0664 -0.2431
 5125TIP3    H236935   7.004   2.474   0.654  2.2508  2.3993  2.1715
 5126TIP3   OH236936   1.435   5.067   0.819 -0.0314  0.3920 -0.6252
 5126TIP3    H136937   1.431   5.091   0.911  0.8997 -1.9780  0.0881
 5126TIP3    H236938   1.363   5.005   0.807 -1.0030  1.6845 -1.8728
 5127TIP3   OH236939   0.157   4.670   0.229 -0.3239  0.3544  0.4302
 5127TIP3    H136940   0.076   4.712   0.200  0.9898  4.5313  1.9519
 5127TIP3    H236941   0.138   4.641   0.318 -0.5088  0.1534  0.3249
 5128TIP3   OH236942   0.769   2.735   2.073 -0.2710  0.1869 -0.3554
 5128TIP3    H136943   0.759   2.643   2.050  1.0443 -0.5438  1.6485
 5128TIP3    H236944   0.682   2.773   2.061 -1.0038 -1.4848 -0.5920
 5129TIP3   OH236945   2.718   1.536   7.289  0.3486  0.1531  0.4899
 5129TIP3    H136946   2.737   1.580   7.206 -1.0171  1.7239  0.9515
 5129TIP3    H236947   2.682   1.605   7.345  1.2178 -0.8637  2.4074
 5130TIP3   OH236948   0.422   4.744   0.303  0.3545  0.8478  0.1122
 5130TIP3    H136949   0.334   4.731   0.268  0.3655  0.3895  0.2500
 5130TIP3    H236950   0.408   4.792   0.385  0.2064  0.5390  0.2714
 5131TIP3   OH236951   6.155   1.023   6.282 -0.6435  0.2467 -0.0945
 5131TIP3    H136952   6.245   1.056   6.289 -1.1243  1.6369 -0.0969
 5131TIP3    H236953   6.164   0.936   6.243  0.6404  0.7195 -0.9242
 5132TIP3   OH236954   1.200   5.160   7.727 -0.3309 -0.4889 -0.0545
 5132TIP3    H136955   1.235   5.214   7.656  0.6009 -0.8862  0.0826
 5132TIP3    H236956   1.178   5.077   7.685  1.4028 -1.1742  0.3105
 5133TIP3   OH236957   6.006   0.745   0.898 -0.0173 -0.1607  0.3938
 5133TIP3    H136958   6.003   0.840   0.905 -1.6305 -0.2898  2.2274
 5133TIP3    H236959   6.023   0.715   0.987  0.4224 -1.6166 -0.1471
 5134TIP3   OH236960   4.425   6.990   1.157  0.4335  0.1148  0.5563
 5134TIP3    H136961   4.491   6.956   1.217  3.9521  2.1030 -1.8352
 5134TIP3    H236962   4.473   7.050   1.100 -2.8349 -0.6163 -3.4370
 5135TIP3   OH236963   1.081   5.814   1.418  0.0227  0.0820  0.4162
 5135TIP3    H136964   1.039   5.890   1.458 -0.4250 -0.0860  0.2757
 5135TIP3    H236965   1.035   5.802   1.335 -0.4861 -0.8432  0.8139
 5136TIP3   OH236966   2.278   2.852   1.491  0.4100 -0.0530 -0.1385
 5136TIP3    H136967   2.268   2.857   1.396  1.2512  1.7099 -0.1754
 5136TIP3    H236968   2.326   2.771   1.505 -0.1278 -0.5752 -1.1731
 5137TIP3   OH236969   4.134   0.596   7.083 -0.3217  0.1083 -0.3626
 5137TIP3    H136970   4.206   0.622   7.140 -0.5679  1.2932 -0.5636
 5137TIP3    H236971   4.056   0.634   7.124 -0.3572  2.1395 -2.1053
 5138TIP3   OH236972   2.526   4.501   6.720 -0.3444 -0.3438 -0.3102
 5138TIP3    H136973   2.496   4.592   6.716 -0.1813  0.1182  3.9487
 5138TIP3    H236974   2.621   4.506   6.715 -0.3820 -0.4509 -1.2957
 5139TIP3   OH236975   3.916   1.568   0.375  0.0863 -0.2525  0.2771
 5139TIP3    H136976   3.916   1.660   0.349  3.0936 -0.2172  0.0248
 5139TIP3    H236977   3.928   1.570   0.470 -0.0534 -0.4000  0.2990
 5140TIP3   OH236978   5.781   2.176   7.480  0.3132 -0.8100  1.0404
 5140TIP3    H136979   5.769   2.096   7.429 -0.2157 -0.2339  0.2416
 5140TIP3    H236980   5.693   2.214   7.487  0.8051  0.6053 -0.1124
 5141TIP3   OH236981   0.627   6.563   1.572 -0.1269 -0.1413  0.2545
 5141TIP3    H136982   0.541   6.539   1.607 -0.7768  0.9057 -0.5446
 5141TIP3    H236983   0.678   6.589   1.649 -0.9506  0.4351  0.6169
 5142TIP3   OH236984   2.486   2.620   6.218 -0.1253 -0.0880  0.6112
 5142TIP3    H136985   2.448   2.550   6.164 -0.5728 -0.1581  1.0124
 5142TIP3    H236986   2.411   2.657   6.264  0.0513  0.9212  0.1073
 5143TIP3   OH236987   3.723   3.868   1.720 -0.0352  0.5333 -0.0875
 5143TIP3    H136988   3.764   3.797   1.769  1.1406 -0.3446 -2.2452
 5143TIP3    H236989   3.786   3.940   1.725 -0.3111  0.7568  0.3570
 5144TIP3   OH236990   7.011   6.991   0.238  0.3221 -0.0322  0.2169
 5144TIP3    H136991   7.072   7.032   0.300 -0.0986  2.4059 -0.8668
 5144TIP3    H236992   6.933   6.973   0.289  1.0099 -0.8328  1.0306
 5145TIP3   OH236993   4.647   6.918   0.868  0.1669  0.0527  0.5424
 5145TIP3    H136994   4.679   6.914   0.958  2.1763  1.3897 -0.0346
 5145TIP3    H236995   4.568   6.972   0.873  0.0683 -0.1674  1.5508
 5146TIP3   OH236996   3.802   4.065   6.369 -0.1492  0.3124  0.0883
 5146TIP3    H136997   3.861   4.039   6.298 -1.0068 -1.1055 -0.1338
 5146TIP3    H236998   3.842   4.145   6.405  1.2592  0.0494 -0.8105
 5147TIP3   OH236999   6.621   4.275   1.822 -0.5555  0.7690  0.1615
 5147TIP3    H137000   6.713   4.258   1.802 -1.3286 -1.4047 -2.0866
 5147TIP3    H237001   6.616   4.370   1.832  1.7261  1.0669 -0.8404
 5148TIP3   OH237002   5.462   0.161   6.673 -0.1224  0.4470 -1.0306
 5148TIP3    H137003   5.419   0.240   6.641  3.0124  2.5885 -0.4211
 5148TIP3    H237004   5.427   0.148   6.761 -1.2210  0.6312 -1.4222
 5149TIP3   OH237005   5.146   0.560   0.806  0.7433  0.4829 -0.5780
 5149TIP3    H137006   5.209   0.614   0.853  0.3238 -0.3831  1.0460
 5149TIP3    H237007   5.194   0.479   0.787  0.6351  0.4822 -0.8584
 5150TIP3   OH237008   7.033   1.064   6.554  0.2873  0.2224 -0.4887
 5150TIP3    H137009   7.011   1.081   6.646  0.5263  2.5038 -0.8093
 5150TIP3    H237010   7.100   0.996   6.558  1.5418  1.4681  1.1573
 5151TIP3   OH237011   6.863   2.471   1.572  0.1236 -0.1233 -0.2677
 5151TIP3    H137012   6.780   2.514   1.549  0.3613  0.4984  0.0280
 5151TIP3    H237013   6.901   2.526   1.640 -0.0489 -1.3448  0.8679
 5152TIP3   OH237014   4.016   3.381   1.438 -0.0161 -0.2631 -0.4638
 5152TIP3    H137015   3.961   3.347   1.368  1.1106  1.7001 -2.4362
 5152TIP3    H237016   3.965   3.454   1.475 -0.1504 -0.6168  0.0663
 5153TIP3   OH237017   0.565   4.798   6.135  0.0502  0.3377 -0.1831
 5153TIP3    H137018   0.576   4.702   6.132  1.1694  0.4647 -2.2174
 5153TIP3    H237019   0.604   4.828   6.053 -1.4334  2.4471 -0.1763
 5154TIP3   OH237020   3.447   0.252   1.393  1.0384 -0.3556 -0.4032
 5154TIP3    H137021   3.394   0.304   1.454  0.0774  0.6435 -2.0386
 5154TIP3    H237022   3.416   0.162   1.406 -0.2822  0.0578 -0.5155
 5155TIP3   OH237023   4.096   0.055   7.946 -1.1469  0.0796  0.1882
 5155TIP3    H137024   4.161   0.035   7.879 -0.0704  1.4542  0.7743
 5155TIP3    H237025   4.042   0.123   7.907 -0.5736  0.8189  0.6732
 5156TIP3   OH237026   7.149   6.273   5.886 -0.2185  0.0684 -0.1741
 5156TIP3    H137027   7.190   6.358   5.876 -0.6762  0.1581 -1.5847
 5156TIP3    H237028   7.148   6.236   5.797 -1.0208 -0.9280  0.2213
 5157TIP3   OH237029   4.313   3.758   1.139  0.3294  0.1523 -0.0215
 5157TIP3    H137030   4.406   3.757   1.163  0.0232 -1.5160  1.3292
 5157TIP3    H237031   4.268   3.782   1.220 -0.6183 -3.3158  0.6642
 5158TIP3   OH237032   6.651   3.095   0.674  0.3294 -0.0044 -0.2698
 5158TIP3    H137033   6.714   3.089   0.746  1.3772 -2.0913 -1.3008
 5158TIP3    H237034   6.583   3.032   0.697 -0.1033  0.4089 -0.4056
 5159TIP3   OH237035   4.626   3.152   0.438  0.8435 -0.3452 -0.1818
 5159TIP3    H137036   4.598   3.135   0.528 -0.2577 -6.1391 -1.1833
 5159TIP3    H237037   4.544   3.170   0.391  0.9359 -0.8500 -0.5440
 5160TIP3   OH237038   4.255   2.175   1.852  0.3660  0.1311  0.1706
 5160TIP3    H137039   4.178   2.147   1.901 -0.7919 -0.4391 -1.8540
 5160TIP3    H237040   4.235   2.265   1.827  0.1258 -0.1650 -0.7386
 5161TIP3   OH237041   4.577   2.296   0.422  0.1188 -0.3841  0.1904
 5161TIP3    H137042   4.625   2.267   0.345 -0.7075  0.1165 -0.5345
 5161TIP3    H237043   4.567   2.391   0.411  1.3679 -0.0285  1.7089
 5162TIP3   OH237044   1.858   6.394   1.265 -0.7860 -0.2924  0.1220
 5162TIP3    H137045   1.879   6.363   1.354 -0.5126  2.5930  1.1472
 5162TIP3    H237046   1.935   6.369   1.214  0.1270  0.0902  1.2548
 5163TIP3   OH237047   3.522   6.537   7.360  0.1484 -0.1670 -0.3272
 5163TIP3    H137048   3.549   6.576   7.276  1.6621  0.5853  0.4694
 5163TIP3    H237049   3.496   6.612   7.413 -0.7305 -0.6353 -0.0900
 5164TIP3   OH237050   5.879   0.543   7.065  0.1773 -0.5395 -0.2598
 5164TIP3    H137051   5.835   0.459   7.077  1.6970 -1.2651  0.6479
 5164TIP3    H237052   5.887   0.578   7.153  0.6100 -0.0154 -0.5046
 5165TIP3   OH237053   4.405   1.691   7.203 -0.2083 -0.1106  0.4969
 5165TIP3    H137054   4.445   1.618   7.251  0.5802 -0.3071 -0.4321
 5165TIP3    H237055   4.351   1.649   7.136 -0.1992  0.1637  0.3184
 5166TIP3   OH237056   6.247   2.381   1.743 -0.7667  0.7789  0.0046
 5166TIP3    H137057   6.268   2.461   1.791  1.5340 -0.4655  1.2183
 5166TIP3    H237058   6.156   2.394   1.714 -0.7744  3.4061  0.9318
 5167TIP3   OH237059   2.265   4.389   2.321  0.4107 -0.0891  0.1473
 5167TIP3    H137060   2.355   4.416   2.303  0.1385 -0.2419 -1.6202
 5167TIP3    H237061   2.225   4.381   2.235 -1.0183 -1.0135  0.8633
 5168TIP3   OH237062   4.835   1.235   7.152 -0.7288  0.6420  0.2549
 5168TIP3    H137063   4.834   1.147   7.189  1.2609  1.3645  2.2086
 5168TIP3    H237064   4.776   1.285   7.209 -0.0876  1.0708  0.5451
 5169TIP3   OH237065   4.145   2.097   7.565 -0.6604  0.0282  0.2995
 5169TIP3    H137066   4.198   2.052   7.499  0.6389  1.7013  0.1440
 5169TIP3    H237067   4.117   2.178   7.523  0.3094  1.1979  1.8042
 5170TIP3   OH237068   5.306   2.181   6.708 -0.2328  0.0946  0.3012
 5170TIP3    H137069   5.331   2.102   6.755 -2.4578 -1.7488 -1.4167
 5170TIP3    H237070   5.359   2.180   6.629 -0.2078  0.3970  0.3119
 5171TIP3   OH237071   1.950   4.567   0.863 -0.5444 -0.1049  0.6886
 5171TIP3    H137072   1.891   4.638   0.837  0.2562  0.1683 -0.4905
 5171TIP3    H237073   1.937   4.500   0.796 -0.6223 -0.6926  1.2839
 5172TIP3   OH237074   5.424   1.749   7.040 -0.2627 -0.3911  1.1452
 5172TIP3    H137075   5.407   1.705   6.957 -0.4012 -0.1488  1.0449
 5172TIP3    H237076   5.485   1.691   7.086 -0.2377 -0.5569  0.9036
 5173TIP3   OH237077   2.636   5.982   6.194 -0.1621  0.1461 -0.0895
 5173TIP3    H137078   2.587   6.027   6.263 -2.9704 -0.0872 -1.7525
 5173TIP3    H237079   2.616   5.889   6.207  0.6699 -0.0582 -0.2262
 5174TIP3   OH237080   6.087   2.675   1.836 -0.7742 -0.1013  0.3357
 5174TIP3    H137081   6.178   2.648   1.851 -1.1311 -1.1978  0.5528
 5174TIP3    H237082   6.043   2.597   1.804 -1.5158  0.5772 -0.3490
 5175TIP3   OH237083   3.596   3.984   6.117 -0.1034 -0.4260  0.4667
 5175TIP3    H137084   3.689   4.005   6.105 -0.4514  1.6341  0.9233
 5175TIP3    H237085   3.557   4.067   6.146 -3.1376  0.5361 -4.9951
 5176TIP3   OH237086   3.985   2.436   1.159 -0.2500  0.0416 -0.0154
 5176TIP3    H137087   3.933   2.515   1.140  0.3089  0.1557 -1.1230
 5176TIP3    H237088   3.922   2.365   1.155 -0.1252  0.0035 -2.8200
 5177TIP3   OH237089   6.763   5.202   1.806  0.7365 -0.1964  0.3376
 5177TIP3    H137090   6.685   5.210   1.861 -0.1064 -0.9246 -0.7021
 5177TIP3    H237091   6.796   5.114   1.823  0.3807 -0.4835 -0.4113
 5178TIP3   OH237092   4.953   1.122   0.932 -0.2577 -0.2332 -0.4821
 5178TIP3    H137093   5.000   1.162   1.005  0.5704  0.3362 -1.3095
 5178TIP3    H237094   4.933   1.034   0.963  0.4384 -0.1395  0.2884
 5179TIP3   OH237095   6.670   1.190   0.923  0.1348 -0.2070 -0.2294
 5179TIP3    H137096   6.692   1.268   0.872 -0.9095  0.1765 -0.1202
 5179TIP3    H237097   6.647   1.124   0.858  1.0832 -0.4643 -0.3251
 5180TIP3   OH237098   2.827   4.906   0.805  0.1001 -0.4588  0.1903
 5180TIP3    H137099   2.845   4.997   0.827 -2.9755  0.2271  0.4088
 5180TIP3    H237100   2.822   4.861   0.889 -0.7124 -0.2683  0.2563
 5181TIP3   OH237101   3.360   2.200   0.506 -0.2779 -0.1855  0.3269
 5181TIP3    H137102   3.421   2.220   0.577  0.9353  1.2257 -1.0302
 5181TIP3    H237103   3.335   2.286   0.471 -1.3775 -0.8225 -0.5323
 5182TIP3   OH237104   0.169   6.415   0.314  0.3582  0.0584 -0.1419
 5182TIP3    H137105   0.220   6.339   0.342 -0.9546 -0.7504  0.1882
 5182TIP3    H237106   0.232   6.473   0.271  1.6753 -0.5305  0.9175
 5183TIP3   OH237107   0.549   5.981   1.919 -0.5528 -0.1302 -0.3128
 5183TIP3    H137108   0.634   5.945   1.893  0.7319  1.0167  1.9680
 5183TIP3    H237109   0.551   6.072   1.888  0.6289  0.9806  2.6966
 5184TIP3   OH237110   4.701   0.761   7.933  0.1865 -0.0874 -0.4093
 5184TIP3    H137111   4.623   0.758   7.990 -0.7396 -0.6191 -1.6524
 5184TIP3    H237112   4.764   0.814   7.981 -0.7839 -0.0151  0.8401
 5185TIP3   OH237113   5.388   0.067   6.932 -0.2879  0.0060 -0.3309
 5185TIP3    H137114   5.319   0.001   6.922 -1.0173  0.2859  2.1869
 5185TIP3    H237115   5.447   0.030   6.998 -1.2126  2.1290  1.8626
 5186TIP3   OH237116   6.102   3.015   7.559 -0.4125 -0.6799  0.1633
 5186TIP3    H137117   6.183   2.986   7.601 -0.4676  1.0198  1.5634
 5186TIP3    H237118   6.130   3.069   7.486 -0.2662 -0.2094  0.5616
 5187TIP3   OH237119   6.141   2.518   6.790 -0.2186 -0.2817  0.3012
 5187TIP3    H137120   6.119   2.590   6.849  0.9474  0.0788  0.3288
 5187TIP3    H237121   6.209   2.554   6.733  0.6117 -1.4605  0.5202
 5188TIP3   OH237122   0.004   4.270   6.283  0.1712 -0.1023 -0.1089
 5188TIP3    H137123  -0.008   4.364   6.270  0.1207  0.0377  0.8285
 5188TIP3    H237124  -0.051   4.229   6.217 -0.2207  0.5325 -0.1882
 5189TIP3   OH237125   7.156   4.711   7.411 -0.0663 -0.4217 -0.2040
 5189TIP3    H137126   7.104   4.792   7.420 -0.9574 -1.0368  0.3446
 5189TIP3    H237127   7.187   4.713   7.321  0.0547  0.6164 -0.1503
 5190TIP3   OH237128   0.691   3.412   1.257 -0.2933 -0.1850  0.4395
 5190TIP3    H137129   0.765   3.468   1.279 -0.1868 -0.6306  1.2523
 5190TIP3    H237130   0.719   3.366   1.177  0.3041 -0.3311  0.7234
 5191TIP3   OH237131   1.959   5.756   1.799 -0.0420  0.1501 -0.1330
 5191TIP3    H137132   2.035   5.735   1.853 -0.4537  0.7987  0.7242
 5191TIP3    H237133   1.939   5.847   1.820 -2.7854 -0.7873  1.8508
 5192TIP3   OH237134   6.687   0.119   0.323  0.7880 -0.1941  0.1199
 5192TIP3    H137135   6.678   0.058   0.250  0.1203 -0.3606  0.3314
 5192TIP3    H237136   6.748   0.186   0.292 -0.9649  0.8244 -1.3430
 5193TIP3   OH237137   2.267   6.383   7.531  0.3772 -0.6252  0.5565
 5193TIP3    H137138   2.226   6.320   7.590  0.5558 -1.2562  0.0255
 5193TIP3    H237139   2.197   6.443   7.506  0.2728 -0.4330  1.2975
 5194TIP3   OH237140   5.522   4.428   7.421  0.5722  0.0313  0.0567
 5194TIP3    H137141   5.428   4.426   7.408  0.3958  0.1555  1.2018
 5194TIP3    H237142   5.549   4.514   7.388  0.6391 -0.8117 -2.2708
 5195TIP3   OH237143   5.742   1.303   2.081 -0.4635  0.2323  0.6440
 5195TIP3    H137144   5.772   1.369   2.018 -1.8614 -0.8925 -1.3102
 5195TIP3    H237145   5.652   1.330   2.102 -0.9821 -0.9168 -0.0325
 5196TIP3   OH237146   2.111   1.389   0.264 -0.3512  0.1777 -0.1016
 5196TIP3    H137147   2.143   1.358   0.349 -1.1201 -0.4685 -0.0318
 5196TIP3    H237148   2.021   1.417   0.281 -0.5498 -0.0636 -0.7253
 5197TIP3   OH237149   6.083   0.724   1.613  0.0600  0.5436  0.0747
 5197TIP3    H137150   6.165   0.764   1.641  0.4999  1.7517 -2.6514
 5197TIP3    H237151   6.109   0.655   1.551 -0.6816 -4.1534  4.3301
 5198TIP3   OH237152   4.592   6.854   1.349 -0.2821  0.2761 -0.7088
 5198TIP3    H137153   4.626   6.781   1.400 -0.9335  1.2020  1.1164
 5198TIP3    H237154   4.669   6.887   1.301  0.5335 -0.0914  0.3091
 5199TIP3   OH237155   6.943   2.792   0.601  0.2349 -0.0951 -0.3561
 5199TIP3    H137156   6.925   2.774   0.693  0.0032 -0.9602 -0.5673
 5199TIP3    H237157   7.020   2.740   0.580 -0.6394 -1.1592 -1.0525
 5200TIP3   OH237158   5.116   0.069   6.706 -0.4019 -0.0464  0.0886
 5200TIP3    H137159   5.080   0.039   6.790 -0.5614  1.4718  0.5959
 5200TIP3    H237160   5.040   0.096   6.656 -0.2467 -0.2803 -0.2754
 5201TIP3   OH237161   0.874   3.899   0.879  0.5222 -0.2582 -0.3619
 5201TIP3    H137162   0.847   3.980   0.923  1.3004  0.4857 -1.1876
 5201TIP3    H237163   0.834   3.829   0.930  0.8891  0.5905  1.1501
 5202TIP3   OH237164   0.420   4.844   1.221  0.0437 -0.4635 -0.3515
 5202TIP3    H137165   0.401   4.912   1.286  1.7329  0.5992 -0.8832
 5202TIP3    H237166   0.344   4.845   1.163 -0.4548  0.1913  0.2844
 5203TIP3   OH237167   5.344   1.636   7.987 -0.0241  0.3260  0.3362
 5203TIP3    H137168   5.416   1.699   7.980  1.2548 -1.2138 -1.5368
 5203TIP3    H237169   5.388   1.551   7.996 -1.6399 -0.5491  0.2940
 5204TIP3   OH237170   5.585   6.528   6.867 -0.1817  0.3431  0.3151
 5204TIP3    H137171   5.542   6.509   6.950  0.7258 -1.7663  0.3596
 5204TIP3    H237172   5.671   6.486   6.874  0.9654  2.3854 -0.7006
 5205TIP3   OH237173   5.255   5.683   0.320  0.4864 -0.2084 -0.0997
 5205TIP3    H137174   5.199   5.752   0.355  0.7865 -0.1651  0.2917
 5205TIP3    H237175   5.306   5.652   0.395 -0.1547 -1.3488 -0.1189
 5206TIP3   OH237176   0.743   3.724   6.820  0.0526 -0.2280 -0.3682
 5206TIP3    H137177   0.679   3.736   6.890  1.1710  1.3498  0.4456
 5206TIP3    H237178   0.828   3.728   6.864  0.7783 -3.0454 -1.3052
 5207TIP3   OH237179   5.063   0.488   7.978 -0.5949 -0.4575 -0.2565
 5207TIP3    H137180   5.035   0.574   7.948 -1.8959 -0.7568  0.0349
 5207TIP3    H237181   5.107   0.505   8.062 -1.8003 -0.1630  0.3374
 5208TIP3   OH237182   0.433   2.202   5.883  0.1939  0.8127 -0.4606
 5208TIP3    H137183   0.356   2.165   5.926  0.3732 -1.4382 -1.9542
 5208TIP3    H237184   0.400   2.282   5.841 -0.3566  2.1352  2.2465
 5209TIP3   OH237185   2.865   4.586   7.801 -0.5712 -0.0046 -0.4216
 5209TIP3    H137186   2.910   4.573   7.884  1.6293 -0.4068 -1.6022
 5209TIP3    H237187   2.898   4.670   7.769 -0.8728 -0.1814 -1.2191
 5210TIP3   OH237188   3.097   6.110   0.284  0.5166 -0.0706  0.0019
 5210TIP3    H137189   3.099   6.122   0.379 -1.4394  3.4724 -0.2486
 5210TIP3    H237190   3.181   6.069   0.264  1.2078 -0.4867  3.1936
 5211TIP3   OH237191   1.657   5.556   1.562 -0.0375  0.1313  0.1714
 5211TIP3    H137192   1.748   5.570   1.536 -0.1644 -1.5358 -1.3738
 5211TIP3    H237193   1.661   5.528   1.653  0.9678  0.3793  0.2068
 5212TIP3   OH237194   0.291   1.061   1.492 -0.3744 -1.0590  0.3258
 5212TIP3    H137195   0.341   1.024   1.565  0.8130  1.0564  0.6820
 5212TIP3    H237196   0.305   1.156   1.499 -0.1330 -0.7642 -2.7137
 5213TIP3   OH237197   4.217   6.317   0.586 -1.0792  0.3971  0.4236
 5213TIP3    H137198   4.136   6.291   0.542 -1.2307  0.1636  0.8400
 5213TIP3    H237199   4.271   6.238   0.585  0.0478  1.1331 -1.8401
 5214TIP3   OH237200   5.610   1.551   0.415 -1.3217 -0.0638 -0.3411
 5214TIP3    H137201   5.663   1.558   0.336  1.0326  0.7045  1.1913
 5214TIP3    H237202   5.607   1.458   0.434 -0.0205 -0.0953 -0.1913
 5215TIP3   OH237203   2.737   0.581   0.818 -0.3235  0.2816  0.1316
 5215TIP3    H137204   2.750   0.499   0.866 -0.3349 -0.4512 -1.0840
 5215TIP3    H237205   2.665   0.624   0.865 -1.2916 -1.0748 -0.0417
 5216TIP3   OH237206   5.610   7.053   1.361  0.3159  0.3608 -0.3205
 5216TIP3    H137207   5.615   7.120   1.429 -1.2593 -0.1016  0.2846
 5216TIP3    H237208   5.518   7.027   1.360  1.1388 -3.0056  0.6647
 5217TIP3   OH237209   0.055   2.938   6.265 -1.0965 -0.3349  0.2759
 5217TIP3    H137210   0.087   3.029   6.259 -2.3604  0.0357 -1.6403
 5217TIP3    H237211   0.121   2.893   6.318 -0.4985  1.7151  1.3693
 5218TIP3   OH237212   0.800   1.871   1.051 -0.5950  0.0095  0.6740
 5218TIP3    H137213   0.893   1.879   1.072 -0.7814  0.8881  1.2588
 5218TIP3    H237214   0.792   1.786   1.009  0.4329 -0.1827  0.8297
 5219TIP3   OH237215   4.993   4.014   7.141 -0.0939 -0.9011 -0.1134
 5219TIP3    H137216   5.046   4.007   7.221  0.4932 -2.2197 -0.5934
 5219TIP3    H237217   4.974   4.107   7.133  0.8646 -0.5978  0.9051
 5220TIP3   OH237218   6.241   4.031   2.014  0.0639  0.1592 -0.3245
 5220TIP3    H137219   6.178   4.094   1.978  1.3130  0.3115 -2.4047
 5220TIP3    H237220   6.188   3.959   2.047 -1.2249  0.5459 -1.4995
 5221TIP3   OH237221   0.413   4.062   1.384  0.2033 -0.2776 -0.0108
 5221TIP3    H137222   0.469   4.114   1.442 -0.4709  0.8970 -0.3669
 5221TIP3    H237223   0.402   4.117   1.306 -1.1263 -0.6233 -0.0978
 5222TIP3   OH237224   6.150   1.698   1.642 -0.5033 -0.2455 -0.6674
 5222TIP3    H137225   6.212   1.701   1.714 -0.2527  1.0007 -0.9105
 5222TIP3    H237226   6.069   1.664   1.682  0.4000 -2.2708 -0.4441
 5223TIP3   OH237227   4.874   0.282   8.031 -0.2295 -0.7776 -0.5031
 5223TIP3    H137228   4.940   0.329   7.981  0.6101 -0.6856  0.6337
 5223TIP3    H237229   4.848   0.342   8.101  0.1514 -1.6196  0.3944
 5224TIP3   OH237230   0.334   6.927   7.871 -0.0244 -0.4236 -0.0238
 5224TIP3    H137231   0.387   6.852   7.844 -2.2472 -2.3715  0.5935
 5224TIP3    H237232   0.323   6.916   7.965  0.5756  1.4133  0.2977
 5225TIP3   OH237233   1.779   3.115   6.803  0.4801  0.2905  0.9583
 5225TIP3    H137234   1.767   3.142   6.711  0.1174 -1.2224  0.5398
 5225TIP3    H237235   1.792   3.197   6.850 -1.3406  1.2918 -0.1383
 5226TIP3   OH237236   6.034   2.391   0.832  0.6746  0.1414  0.5367
 5226TIP3    H137237   6.059   2.477   0.797  0.7884 -0.4407 -0.8552
 5226TIP3    H237238   6.116   2.356   0.869  0.8920  0.1454  0.0615
 5227TIP3   OH237239   0.568   2.602   8.016 -0.1501  0.2153 -0.5968
 5227TIP3    H137240   0.642   2.582   7.959 -0.7455  0.4773 -1.4728
 5227TIP3    H237241   0.545   2.692   7.994  0.1165  0.6009  0.6348
 5228TIP3   OH237242   1.985   0.872   7.280  0.4902  0.2690 -0.4832
 5228TIP3    H137243   1.961   0.780   7.277  1.1647  0.0692 -0.0030
 5228TIP3    H237244   1.946   0.904   7.361  1.5525  0.0163  0.1455
 5229TIP3   OH237245   1.291   2.723   7.380 -0.4475  0.3051 -0.2878
 5229TIP3    H137246   1.295   2.738   7.286 -1.3886  0.5532 -0.2934
 5229TIP3    H237247   1.317   2.808   7.418 -1.9087  0.7952 -0.3316
 5230TIP3   OH237248   4.877   3.482   0.589  0.4949  0.0498 -0.1819
 5230TIP3    H137249   4.792   3.477   0.544  0.1097  1.5747  0.3410
 5230TIP3    H237250   4.855   3.492   0.681  1.2186  1.2007 -0.1168
 5231TIP3   OH237251   5.569   0.010   1.859 -0.7427 -0.6333 -0.7369
 5231TIP3    H137252   5.490   0.023   1.807 -1.0015 -0.6219 -0.3502
 5231TIP3    H237253   5.627   0.082   1.834 -0.7173 -0.8332 -1.2697
 5232TIP3   OH237254   6.669   5.736   1.274 -0.3614 -0.2383 -0.4991
 5232TIP3    H137255   6.651   5.794   1.200  0.1735  0.5292 -0.0381
 5232TIP3    H237256   6.585   5.694   1.292 -0.6973  0.2005 -1.0015
 5233TIP3   OH237257   1.886   5.470   6.373 -0.0912  0.3368 -0.2605
 5233TIP3    H137258   1.926   5.551   6.342 -2.5118  1.6036 -0.2914
 5233TIP3    H237259   1.882   5.414   6.296  0.0614  0.8499 -0.6476
 5234TIP3   OH237260   2.827   1.819   1.228 -0.2345 -0.0820  0.0852
 5234TIP3    H137261   2.819   1.731   1.266  0.4704 -0.0208  0.3832
 5234TIP3    H237262   2.818   1.878   1.303 -0.1262  0.0847 -0.0331
 5235TIP3   OH237263   4.439   3.257   6.602  1.1986  0.1845 -0.2643
 5235TIP3    H137264   4.350   3.241   6.570  1.0842 -0.7313  0.4457
 5235TIP3    H237265   4.430   3.328   6.666  1.2252  1.1126 -1.2696
 5236TIP3   OH237266   1.445   3.873   7.664 -0.3079  0.4643 -0.0003
 5236TIP3    H137267   1.506   3.930   7.616  1.1109  0.5185  1.7528
 5236TIP3    H237268   1.497   3.795   7.685 -1.0696  0.1862  0.8996
 5237TIP3   OH237269   2.081   3.650   6.161 -0.6156 -0.5292  0.0111
 5237TIP3    H137270   2.080   3.734   6.115  1.3130  0.3151  1.3750
 5237TIP3    H237271   2.023   3.662   6.236 -0.6192 -0.5371  0.0096
 5238TIP3   OH237272   4.624   4.474   1.337  0.1558 -0.1708 -0.5124
 5238TIP3    H137273   4.567   4.432   1.272 -1.6472  1.7504 -0.2402
 5238TIP3    H237274   4.584   4.455   1.421 -1.9558  3.6435 -0.4701
 5239TIP3   OH237275   4.441   6.338   1.256  0.2880 -0.0565 -0.1241
 5239TIP3    H137276   4.360   6.374   1.291  0.7610  0.3038  0.6263
 5239TIP3    H237277   4.458   6.390   1.177  1.0991  1.5915  1.0824
 5240TIP3   OH237278   4.638   4.732   1.740 -0.3490 -0.1603  0.5443
 5240TIP3    H137279   4.590   4.673   1.799  0.2686 -1.1118  0.1160
 5240TIP3    H237280   4.677   4.674   1.675 -0.8391  0.8519 -0.6911
 5241TIP3   OH237281   2.294   4.652   7.641 -0.3007  0.2147  0.0264
 5241TIP3    H137282   2.330   4.573   7.681 -1.6810 -0.1543  0.5810
 5241TIP3    H237283   2.318   4.645   7.549  0.6909 -0.2091  0.3044
 5242TIP3   OH237284   6.527   1.991   7.983  0.1890  0.2297  0.2307
 5242TIP3    H137285   6.586   1.976   7.909 -0.1614 -0.5425  0.0947
 5242TIP3    H237286   6.440   1.993   7.944  0.0114 -0.0769  0.6029
 5243TIP3   OH237287   4.064   1.073   6.116 -0.1384 -0.3677 -0.4831
 5243TIP3    H137288   3.978   1.060   6.075 -0.6630  1.9684 -0.2520
 5243TIP3    H237289   4.044   1.101   6.205  0.9658 -2.5122  0.5179
 5244TIP3   OH237290   6.695   0.368   1.467  0.2466 -0.7495 -0.1425
 5244TIP3    H137291   6.624   0.371   1.532  1.0753  0.3470  0.7439
 5244TIP3    H237292   6.664   0.425   1.396  0.3694 -0.0101  0.3882
 5245TIP3   OH237293   4.980   2.454   2.232  0.2187 -0.2719  0.0527
 5245TIP3    H137294   4.966   2.545   2.205  1.8833  0.2560  0.7930
 5245TIP3    H237295   4.897   2.428   2.273 -0.0109  1.2209  0.6163
 5246TIP3   OH237296   6.644   0.077   7.227 -0.0383  0.3508  0.0009
 5246TIP3    H137297   6.710   0.013   7.254  1.1503  0.2028 -2.9475
 5246TIP3    H237298   6.594   0.032   7.159 -1.8618  1.2138  0.7192
 5247TIP3   OH237299   7.158   5.519   6.538 -0.1667  0.2577  0.5635
 5247TIP3    H137300   7.153   5.604   6.493  0.2829  0.1333  0.2775
 5247TIP3    H237301   7.250   5.495   6.534 -0.5291 -1.0420 -0.8313
 5248TIP3   OH237302   3.523   0.589   1.433 -0.6890  0.1407  0.3048
 5248TIP3    H137303   3.434   0.623   1.440  0.0872  2.4807 -0.4093
 5248TIP3    H237304   3.517   0.519   1.367 -1.9842  0.2556  0.2813
 5249TIP3   OH237305   5.451   6.483   6.377 -0.1221 -0.0938  0.0853
 5249TIP3    H137306   5.444   6.408   6.318 -1.1693  1.1843 -1.4708
 5249TIP3    H237307   5.403   6.456   6.455  0.1732 -1.3240 -0.1289
 5250TIP3   OH237308   4.392   3.034   1.630  0.8210 -0.0508  0.0940
 5250TIP3    H137309   4.367   3.121   1.662  0.0927  0.0608 -0.7383
 5250TIP3    H237310   4.374   2.975   1.704  1.4724  0.5171  0.7174
 5251TIP3   OH237311   4.299   3.383   2.073  0.0264  0.4871 -0.4560
 5251TIP3    H137312   4.390   3.404   2.052  0.4199 -0.3860  0.3111
 5251TIP3    H237313   4.288   3.292   2.045  0.0083 -0.0798  1.2577
 5252TIP3   OH237314   6.422   3.256   6.963 -0.9468  0.6391 -0.3075
 5252TIP3    H137315   6.449   3.256   6.871  0.0890 -0.3288 -0.0260
 5252TIP3    H237316   6.501   3.281   7.011 -1.3269  0.5803  0.3626
 5253TIP3   OH237317   0.115   2.560   6.398 -0.3166 -0.3324  0.5335
 5253TIP3    H137318   0.038   2.510   6.426 -1.4353  1.8933  1.7816
 5253TIP3    H237319   0.113   2.555   6.302 -2.1956 -0.1801  0.5099
 5254TIP3   OH237320   0.671   0.122   1.473  0.4143 -0.2483 -0.6607
 5254TIP3    H137321   0.756   0.162   1.457 -0.1183  0.4007 -2.0475
 5254TIP3    H237322   0.639   0.163   1.553  0.7940  0.5696 -0.9187
 5255TIP3   OH237323   3.675   4.641   0.775 -0.7988 -0.6097  0.2525
 5255TIP3    H137324   3.627   4.606   0.851  0.8229 -1.9545  0.7176
 5255TIP3    H237325   3.732   4.709   0.812 -0.5586 -0.7393  0.1193
 5256TIP3   OH237326   6.950   6.727   0.172 -0.0607 -0.0765  0.0712
 5256TIP3    H137327   6.984   6.816   0.184  1.0504 -0.3579 -0.8345
 5256TIP3    H237328   7.014   6.671   0.215 -2.5633 -0.3029  3.8943
 5257TIP3   OH237329   6.984   3.169   6.762 -0.2645  0.6216  0.4606
 5257TIP3    H137330   7.037   3.248   6.760 -1.1406  1.2278  0.7128
 5257TIP3    H237331   7.010   3.121   6.682  1.8216  0.0874  1.3823
 5258TIP3   OH237332   3.297   2.617   6.645  0.2064 -0.1895  0.4064
 5258TIP3    H137333   3.229   2.553   6.665  1.2644 -0.7748  2.4231
 5258TIP3    H237334   3.335   2.587   6.562  0.4048 -1.9421  1.0950
 5259TIP3   OH237335   6.129   6.883   1.391 -0.0274 -0.5743  0.1972
 5259TIP3    H137336   6.153   6.916   1.305 -1.1535 -0.7776 -0.2190
 5259TIP3    H237337   6.042   6.845   1.379 -1.2646  1.4521  1.8868
 5260TIP3   OH237338   0.001   4.305   0.995 -0.0108  0.0135 -0.2103
 5260TIP3    H137339  -0.073   4.366   0.992  0.5828  0.7770  0.3999
 5260TIP3    H237340  -0.021   4.245   1.066 -1.8428 -2.1775 -2.4334
 5261TIP3   OH237341   4.738   3.628   7.834 -0.1085 -0.5165 -0.9626
 5261TIP3    H137342   4.776   3.634   7.921 -2.9080 -1.0852  0.4043
 5261TIP3    H237343   4.644   3.614   7.849 -0.8570  0.3132 -4.0685
 5262TIP3   OH237344   2.634   0.493   1.670  0.3525  0.3075  0.6297
 5262TIP3    H137345   2.728   0.514   1.677  0.4402  0.0592  0.2232
 5262TIP3    H237346   2.611   0.458   1.756  0.7133  0.0488  0.6249
 5263TIP3   OH237347   0.036   4.723   0.479  0.4908  0.0355 -0.0536
 5263TIP3    H137348   0.013   4.814   0.458  1.3477  0.1243 -0.6650
 5263TIP3    H237349  -0.048   4.679   0.490 -0.0184  0.3517 -2.2332
 5264TIP3   OH237350   0.735   1.936   0.612 -0.0277  0.4048  0.3226
 5264TIP3    H137351   0.656   1.882   0.621  0.2099 -0.2180 -1.0874
 5264TIP3    H237352   0.724   2.005   0.677 -1.2019 -0.3054  0.9201
 5265TIP3   OH237353   0.341   1.670   1.723 -0.6820 -0.2565 -0.1270
 5265TIP3    H137354   0.318   1.610   1.652 -0.9274 -0.3691  0.0491
 5265TIP3    H237355   0.274   1.738   1.720 -2.0616 -1.4667  1.4566
 5266TIP3   OH237356   3.751   5.969   1.009 -0.4463 -0.7930  0.4496
 5266TIP3    H137357   3.778   6.056   1.039 -1.6224 -0.1951 -0.1789
 5266TIP3    H237358   3.815   5.946   0.942  0.6318 -0.9987  1.4979
 5267TIP3   OH237359   4.012   5.933   7.821  0.3408  0.6410 -0.1448
 5267TIP3    H137360   4.097   5.951   7.861  0.5383  0.8455 -0.6463
 5267TIP3    H237361   4.033   5.887   7.740 -0.0533  0.2332 -0.0157
 5268TIP3   OH237362   5.888   4.751   0.199 -0.7061 -0.6001  0.5007
 5268TIP3    H137363   5.798   4.753   0.233  0.0230  1.9389  2.5821
 5268TIP3    H237364   5.926   4.673   0.239 -2.0535 -1.9641 -0.7597
 5269TIP3   OH237365   1.869   7.143   0.546  0.2869 -0.2678 -0.0089
 5269TIP3    H137366   1.858   7.226   0.593  1.2787  0.2809 -0.7232
 5269TIP3    H237367   1.914   7.086   0.608  3.0867  0.9748 -0.7732
 5270TIP3   OH237368   6.072   6.124   2.028 -0.2052 -0.0581  0.2146
 5270TIP3    H137369   6.166   6.140   2.024 -0.4605  1.3828 -0.7170
 5270TIP3    H237370   6.062   6.032   2.001  0.8004  0.3682 -1.8340
 5271TIP3   OH237371   2.518   4.159   6.078  0.8876  0.3554  0.0440
 5271TIP3    H137372   2.428   4.135   6.056  0.4862 -0.3939  2.2079
 5271TIP3    H237373   2.513   4.252   6.100  0.3970  0.0961  1.1127
 5272TIP3   OH237374   2.626   0.392   0.514 -0.0198  0.1270 -0.4590
 5272TIP3    H137375   2.709   0.440   0.509 -0.2972  0.7662  0.6656
 5272TIP3    H237376   2.587   0.420   0.597 -0.8915 -0.9331 -0.4800
 5273TIP3   OH237377   7.044   2.600   1.759  0.2866 -0.3094  0.0561
 5273TIP3    H137378   7.116   2.621   1.700  0.5146 -0.4402  0.2864
 5273TIP3    H237379   7.061   2.510   1.786  0.9075  0.1724  1.3451
 5274TIP3   OH237380   1.604   2.585   7.142 -0.0839 -0.0260  0.5791
 5274TIP3    H137381   1.594   2.531   7.220 -0.3920  0.5460  0.9400
 5274TIP3    H237382   1.667   2.653   7.167  1.1342 -0.8316 -0.2068
 5275TIP3   OH237383   1.478   3.741   0.667 -0.3250  0.3684  0.2793
 5275TIP3    H137384   1.499   3.764   0.577 -0.6504  1.2559  0.4185
 5275TIP3    H237385   1.538   3.795   0.720 -1.6953  1.6128  0.6333
 5276TIP3   OH237386   3.029   2.553   2.097 -0.0301  0.1900  0.1654
 5276TIP3    H137387   3.053   2.505   2.176 -1.5911 -1.9203 -0.5414
 5276TIP3    H237388   2.950   2.601   2.121 -0.0444  0.1886  0.1208
 5277TIP3   OH237389   3.809   1.022   0.106 -0.1906 -0.3104 -0.2322
 5277TIP3    H137390   3.764   0.986   0.030 -1.2078 -2.3065  1.2028
 5277TIP3    H237391   3.738   1.041   0.168  0.7151 -0.3420  0.8369
 5278TIP3   OH237392   4.708   3.933   0.047  0.1117  0.2665  0.0704
 5278TIP3    H137393   4.630   3.924  -0.007  0.4392 -0.5305 -0.2739
 5278TIP3    H237394   4.690   4.011   0.101 -0.7380  0.3352 -0.2904
 5279TIP3   OH237395   0.421   0.622   0.162  0.8698  0.0237  0.8017
 5279TIP3    H137396   0.348   0.639   0.103  0.1949  0.4480  1.7329
 5279TIP3    H237397   0.428   0.701   0.215  0.5627 -0.8630  2.2123
 5280TIP3   OH237398   5.872   2.764   1.520  0.5577 -0.1475 -0.2619
 5280TIP3    H137399   5.900   2.756   1.612  1.1281  0.8546 -0.3328
 5280TIP3    H237400   5.860   2.858   1.507 -1.2229 -0.3950 -0.7392
 5281TIP3   OH237401   3.753   2.779   0.991 -0.4579  0.3009 -0.8773
 5281TIP3    H137402   3.769   2.771   1.085 -0.3376  0.9673 -0.8354
 5281TIP3    H237403   3.662   2.752   0.981 -0.5782  0.5521 -0.5155
 5282TIP3   OH237404   5.999   2.754   7.844 -0.3235  0.1713  0.2193
 5282TIP3    H137405   5.988   2.716   7.931 -2.3256 -0.8715 -0.4298
 5282TIP3    H237406   5.911   2.756   7.807  0.3982  1.1005 -1.5980
 5283TIP3   OH237407   0.364   3.701   7.319  0.3732  0.0176 -0.1706
 5283TIP3    H137408   0.455   3.673   7.305  0.7571  0.1128  1.8942
 5283TIP3    H237409   0.323   3.627   7.362  0.1775  0.9031  1.2195
 5284TIP3   OH237410   3.777   1.654   6.781 -0.5174  0.0608  0.0221
 5284TIP3    H137411   3.738   1.576   6.740 -1.3319  0.8862 -0.8204
 5284TIP3    H237412   3.820   1.700   6.709  0.1407  0.2890  0.5545
 5285TIP3   OH237413   6.843   2.853   7.258  0.5370  0.0350 -0.3275
 5285TIP3    H137414   6.875   2.921   7.317  0.3442  0.0035 -0.1825
 5285TIP3    H237415   6.751   2.841   7.284  1.3262 -2.4994  1.8294
 5286TIP3   OH237416   0.723   6.636   6.979  0.4218  0.5656 -0.1762
 5286TIP3    H137417   0.685   6.653   6.892  0.1890  0.7595 -0.0368
 5286TIP3    H237418   0.780   6.560   6.965  2.4319  2.1542 -1.0890
 5287TIP3   OH237419   1.507   3.875   6.734 -0.2234 -0.7265 -0.4593
 5287TIP3    H137420   1.493   3.898   6.826 -0.5645 -1.3957 -0.3380
 5287TIP3    H237421   1.598   3.899   6.717  0.7056 -3.0391  0.8207
 5288TIP3   OH237422   0.734   6.565   7.470 -0.0004 -0.1055  0.1136
 5288TIP3    H137423   0.723   6.641   7.527  0.3435  0.8032 -0.9957
 5288TIP3    H237424   0.655   6.565   7.415 -0.1318 -0.7129  0.3058
 5289TIP3   OH237425   0.498   6.684   7.561  0.6838  0.5722 -0.2835
 5289TIP3    H137426   0.431   6.635   7.513 -0.2055  2.2925 -0.8878
 5289TIP3    H237427   0.496   6.771   7.523  0.6434  1.7450  2.2265
 5290TIP3   OH237428   1.103   2.423   6.036 -0.0195 -0.4042  0.1405
 5290TIP3    H137429   1.045   2.416   6.111  1.2317  0.2765  1.2159
 5290TIP3    H237430   1.151   2.339   6.035  1.4807  0.3846  1.4522
 5291TIP3   OH237431   3.109   3.149   1.542  0.6293 -0.0222  0.5161
 5291TIP3    H137432   3.122   3.150   1.637 -0.7799  0.2971  0.7371
 5291TIP3    H237433   3.068   3.234   1.523  1.6867  0.2755 -0.5124
 5292TIP3   OH237434   1.479   2.416   7.752  0.2801  0.2471 -0.5542
 5292TIP3    H137435   1.507   2.327   7.734 -0.5397 -0.1422  0.0365
 5292TIP3    H237436   1.410   2.433   7.687  0.7052  0.6047 -0.9247
 5293TIP3   OH237437   1.897   6.089   0.315  0.1617  0.4362 -0.0079
 5293TIP3    H137438   1.900   6.149   0.389 -0.4093  1.3967 -0.7375
 5293TIP3    H237439   1.804   6.082   0.294  0.2120 -0.8058  0.1386
 5294TIP3   OH237440   0.300   0.873   0.371  0.0750  0.1349  0.1986
 5294TIP3    H137441   0.254   0.825   0.302  1.4325 -0.6451 -0.1970
 5294TIP3    H237442   0.240   0.871   0.446 -1.0726  0.2886 -0.6998
 5295TIP3   OH237443   3.358   2.723   0.081 -0.0220  0.1219  0.6642
 5295TIP3    H137444   3.314   2.736  -0.003  1.7166  0.3752 -0.2688
 5295TIP3    H237445   3.378   2.629   0.083 -1.3910 -0.1751  1.5248
 5296TIP3   OH237446   0.127   0.945   0.556 -0.1168 -0.0277  0.0293
 5296TIP3    H137447   0.136   1.020   0.497  2.6726  0.7194  1.2527
 5296TIP3    H237448   0.119   0.984   0.643 -0.3214 -1.1418  0.5293
 5297TIP3   OH237449   0.848   5.640   7.870 -0.2374 -0.0557  0.3003
 5297TIP3    H137450   0.863   5.557   7.824 -1.8294 -0.6909  0.8776
 5297TIP3    H237451   0.931   5.687   7.861 -0.5098  0.0577 -3.6192
 5298TIP3   OH237452   5.736   1.345   7.305  0.1618  0.1933  0.6143
 5298TIP3    H137453   5.668   1.388   7.251 -1.5959 -0.0742  2.4978
 5298TIP3    H237454   5.714   1.252   7.300  0.2094  0.1355  1.4762
 5299TIP3   OH237455   5.202   2.499   1.786  0.0077  0.3664 -0.1164
 5299TIP3    H137456   5.218   2.567   1.851 -0.1263  0.7676 -0.4928
 5299TIP3    H237457   5.263   2.429   1.809 -0.2902  0.3475  0.6506
 5300TIP3   OH237458   0.941   5.374   7.826  0.0967  0.6639  0.7744
 5300TIP3    H137459   0.936   5.313   7.753 -1.2009  1.2913  0.3185
 5300TIP3    H237460   0.915   5.323   7.902  1.0341  0.1203  0.7474
 5301TIP3   OH237461   0.350   2.582   0.345 -0.5569 -0.6066 -0.2192
 5301TIP3    H137462   0.417   2.570   0.411  1.2062 -1.1957 -2.0295
 5301TIP3    H237463   0.360   2.507   0.285 -1.7503  0.1353 -1.4266
 5302TIP3   OH237464   0.530   0.453   0.338  0.1016 -0.3397 -0.6690
 5302TIP3    H137465   0.456   0.478   0.282 -0.1801 -2.4289 -1.3386
 5302TIP3    H237466   0.490   0.407   0.412  0.6948 -1.8879 -1.2622
 5303TIP3   OH237467   4.182   1.930   6.995 -0.1710  0.1078  0.3411
 5303TIP3    H137468   4.140   1.863   6.940 -0.2422 -1.2801  1.9908
 5303TIP3    H237469   4.109   1.975   7.037 -0.1190  1.2359 -0.7263
 5304TIP3   OH237470   4.263   6.614   1.547 -0.2862  0.0568 -0.1974
 5304TIP3    H137471   4.178   6.626   1.591  0.6663  1.4642  1.3810
 5304TIP3    H237472   4.277   6.696   1.501  0.8826  0.4694  0.8244
 5305TIP3   OH237473   3.889   3.282   1.203  0.3275  0.3824  0.2803
 5305TIP3    H137474   3.889   3.187   1.191 -0.2746  0.2539  1.2033
 5305TIP3    H237475   3.919   3.316   1.119 -0.9907 -0.5692 -0.6328
 5306TIP3   OH237476   2.320   4.082   7.359  0.5729  0.1420 -0.2029
 5306TIP3    H137477   2.342   4.008   7.417 -0.2484 -1.3935 -1.7694
 5306TIP3    H237478   2.234   4.060   7.324 -0.2502  2.4773  0.2057
 5307TIP3   OH237479   5.051   4.611   6.941 -0.1379  0.2549 -0.4817
 5307TIP3    H137480   5.009   4.621   6.855 -1.3229 -1.2968 -0.1353
 5307TIP3    H237481   4.992   4.553   6.989  0.7108  0.7824  1.2556
 5308TIP3   OH237482   2.539   6.102   2.315 -0.0273  0.2039 -0.1733
 5308TIP3    H137483   2.582   6.033   2.264 -0.5450  0.0739 -0.4371
 5308TIP3    H237484   2.583   6.183   2.288 -0.7635  0.2323 -1.3702
 5309TIP3   OH237485   0.438   0.676   1.350  0.3443 -0.2231  0.6507
 5309TIP3    H137486   0.521   0.629   1.334  0.4115 -0.2801  1.1506
 5309TIP3    H237487   0.460   0.768   1.335  0.8118 -0.1023  1.9227
 5310TIP3   OH237488   6.657   5.409   0.802 -0.7448 -0.3200 -0.1502
 5310TIP3    H137489   6.669   5.389   0.895  1.5143  1.3757  0.0036
 5310TIP3    H237490   6.649   5.504   0.798  0.1059 -0.2740 -1.7562
 5311TIP3   OH237491   2.223   0.044   0.752  0.0594  0.5250  0.2014
 5311TIP3    H137492   2.189   0.121   0.797  0.5274  0.8043  0.0785
 5311TIP3    H237493   2.171   0.038   0.672 -0.4221  0.3287  0.5234
 5312TIP3   OH237494   6.542   3.835   0.787  0.6378 -0.3790  0.1364
 5312TIP3    H137495   6.613   3.771   0.775 -0.3695 -1.5401  0.2265
 5312TIP3    H237496   6.566   3.908   0.730  0.8126 -1.6854 -1.5584
 5313TIP3   OH237497   2.805   0.266   5.775 -0.3884  0.1024 -0.2594
 5313TIP3    H137498   2.823   0.355   5.746 -2.3076  0.7903  0.4919
 5313TIP3    H237499   2.868   0.212   5.728  0.8756  1.8501 -0.6717
 5314TIP3   OH237500   3.537   4.037   6.852 -0.4362  0.1667  0.3192
 5314TIP3    H137501   3.570   3.947   6.856  0.9582  0.5957 -0.6811
 5314TIP3    H237502   3.504   4.046   6.762 -0.1768  0.7845  0.2799
 5315TIP3   OH237503   2.162   2.676   7.475  0.4949  0.4607 -0.2842
 5315TIP3    H137504   2.090   2.654   7.416 -0.1085  0.6640  0.3549
 5315TIP3    H237505   2.139   2.632   7.557  1.6299 -0.3404 -0.3744
 5316TIP3   OH237506   6.007   3.424   7.128  0.3194 -0.0623  0.0227
 5316TIP3    H137507   6.066   3.499   7.118  1.0403 -0.4212  1.3528
 5316TIP3    H237508   6.027   3.367   7.053  0.0288  0.8824 -0.7894
 5317TIP3   OH237509   0.238   2.581   0.696 -0.4145  0.2956 -0.1606
 5317TIP3    H137510   0.263   2.591   0.787 -0.1413  1.4390 -0.3537
 5317TIP3    H237511   0.320   2.584   0.647 -0.5246 -0.6591 -0.4297
 5318TIP3   OH237512   0.863   4.400   0.440 -0.0446  0.2015  0.3185
 5318TIP3    H137513   0.863   4.451   0.359 -1.9051 -0.5652 -0.2142
 5318TIP3    H237514   0.876   4.310   0.412 -1.7031 -0.1961  0.7364
 5319TIP3   OH237515   5.517   0.338   5.964 -0.1241 -0.2296  0.6212
 5319TIP3    H137516   5.591   0.398   5.953 -1.6375  2.0504  1.9879
 5319TIP3    H237517   5.557   0.253   5.979  2.1837  0.7194  0.2802
 5320TIP3   OH237518   6.913   2.328   6.165 -0.3185 -0.3798 -0.0673
 5320TIP3    H137519   6.832   2.321   6.215 -0.4458  2.2231  0.2236
 5320TIP3    H237520   6.910   2.255   6.104 -2.5323 -0.7751  0.4417
 5321TIP3   OH237521   2.389   6.439   0.495  0.2668  0.3319 -0.1000
 5321TIP3    H137522   2.385   6.504   0.424 -1.0683 -0.7501 -1.0723
 5321TIP3    H237523   2.396   6.355   0.450  0.4227 -0.3125  1.1014
 5322TIP3   OH237524   2.719   6.360   1.551  0.5576  0.2572 -0.6920
 5322TIP3    H137525   2.743   6.323   1.466  1.2252  1.4856 -1.0484
 5322TIP3    H237526   2.743   6.452   1.546 -0.4990  0.6263  0.4115
 5323TIP3   OH237527   2.826   1.598   6.714  0.4224 -0.0208 -0.3078
 5323TIP3    H137528   2.836   1.503   6.712  1.3815  0.0530  0.2782
 5323TIP3    H237529   2.872   1.625   6.793  0.1024  0.9305 -0.4369
 5324TIP3   OH237530   3.792   5.705   7.564  0.1830  1.0153 -0.0029
 5324TIP3    H137531   3.785   5.621   7.609 -1.2756  0.5361 -1.0529
 5324TIP3    H237532   3.885   5.726   7.566  0.8401 -1.4933 -1.2512
 5325TIP3   OH237533   1.483   3.415   7.041 -0.6321  0.0721  0.3054
 5325TIP3    H137534   1.389   3.433   7.047 -1.0930 -2.3128  1.0688
 5325TIP3    H237535   1.510   3.395   7.130  0.7750  1.2707  0.1949
 5326TIP3   OH237536   4.148   5.541   7.766  0.4435 -0.3222  0.1003
 5326TIP3    H137537   4.144   5.457   7.721 -2.1539  1.3578 -3.2282
 5326TIP3    H237538   4.077   5.537   7.830  0.7334 -0.8797  0.3902
 5327TIP3   OH237539   6.203   0.547   1.446  0.0338  0.2833 -0.7646
 5327TIP3    H137540   6.148   0.472   1.469  0.4421  0.2331  0.0801
 5327TIP3    H237541   6.266   0.512   1.384  1.4174 -0.5649  1.0392
 5328TIP3   OH237542   1.469   1.166   6.525  0.0008 -0.2358  0.2578
 5328TIP3    H137543   1.532   1.156   6.596 -1.1411 -3.1700  0.9805
 5328TIP3    H237544   1.389   1.124   6.557 -1.7491  1.5986 -1.3800
 5329TIP3   OH237545   3.427   5.949   0.653  0.3667 -0.1608  0.6215
 5329TIP3    H137546   3.369   5.944   0.729  1.0302  0.1807  1.1634
 5329TIP3    H237547   3.438   5.859   0.624 -0.3732 -0.2338  0.5592
 5330TIP3   OH237548   2.921   4.182   0.970 -0.7131  0.2106 -0.1822
 5330TIP3    H137549   2.958   4.105   0.926  2.0523  1.6729 -0.5947
 5330TIP3    H237550   2.901   4.151   1.058 -1.2222 -1.3742 -0.8124
 5331TIP3   OH237551   4.264   1.033   0.306  0.2411  0.4364 -0.1026
 5331TIP3    H137552   4.215   1.115   0.312  1.1557  1.0308 -0.5944
 5331TIP3    H237553   4.214   0.979   0.245 -0.3151  0.6532  0.1546
 5332TIP3   OH237554   4.809   2.182   1.329 -0.1715 -0.0171 -0.0991
 5332TIP3    H137555   4.720   2.186   1.293  0.9019 -1.1471 -3.1414
 5332TIP3    H237556   4.843   2.270   1.319 -0.0855 -0.1857 -1.4108
 5333TIP3   OH237557   2.438   0.371   6.367  0.5434  0.0631 -0.1037
 5333TIP3    H137558   2.407   0.329   6.287 -0.2776  0.3120  0.0743
 5333TIP3    H237559   2.451   0.463   6.344  0.8146  0.0324 -0.0830
 5334TIP3   OH237560   0.028   5.407   0.390  0.1322 -0.0786  0.6493
 5334TIP3    H137561   0.026   5.326   0.340 -2.2587 -1.1163  2.2809
 5334TIP3    H237562   0.053   5.381   0.478  0.6820  1.1795  0.8911
 5335TIP3   OH237563   5.320   3.574   0.857 -0.6700  0.4137 -0.1380
 5335TIP3    H137564   5.391   3.536   0.909  0.1176  1.5400 -0.3485
 5335TIP3    H237565   5.277   3.635   0.917 -0.8226  0.4784 -0.3128
 5336TIP3   OH237566   2.198   4.399   2.051  0.8009  0.0947 -0.0474
 5336TIP3    H137567   2.126   4.369   1.996  0.0162  1.2686  0.3215
 5336TIP3    H237568   2.277   4.376   2.002  0.1160  2.2567 -2.2907
 5337TIP3   OH237569   4.763   0.748   1.241  0.3704 -0.8795 -0.9318
 5337TIP3    H137570   4.760   0.657   1.211 -1.7964 -1.5320  0.9540
 5337TIP3    H237571   4.705   0.795   1.182  0.8780 -0.8646 -1.4291
 5338TIP3   OH237572   2.093   0.277   1.078  0.8250 -0.6334  0.0183
 5338TIP3    H137573   2.043   0.358   1.083  1.3101 -0.1708 -1.9394
 5338TIP3    H237574   2.050   0.219   1.141 -1.7204 -0.0179 -1.0270
 5339TIP3   OH237575   3.315   6.166   1.402 -0.6723 -0.2263  0.2721
 5339TIP3    H137576   3.404   6.159   1.436  0.4559  2.9661 -1.6432
 5339TIP3    H237577   3.305   6.089   1.345  1.7350  0.4659 -1.2068
 5340TIP3   OH237578   6.421   1.741   0.557  0.5798  0.1973 -0.3934
 5340TIP3    H137579   6.333   1.704   0.550  0.7219 -0.3535  0.5646
 5340TIP3    H237580   6.457   1.733   0.469  0.8552 -2.6259 -0.1136
 5341TIP3   OH237581   2.233   0.919   1.268 -0.9058 -0.0736 -0.7913
 5341TIP3    H137582   2.296   0.876   1.325  1.3729  1.6549 -1.8595
 5341TIP3    H237583   2.223   0.859   1.194  0.4925  0.1574 -1.1961
 5342TIP3   OH237584   0.249   6.654   1.026 -0.2798  0.3082  0.2139
 5342TIP3    H137585   0.276   6.704   0.949 -0.4220  0.0180 -0.0251
 5342TIP3    H237586   0.237   6.565   0.994  1.0864 -0.1427  0.8651
 5343TIP3   OH237587   3.261   5.893   1.303 -0.5878 -0.0769 -0.2367
 5343TIP3    H137588   3.342   5.846   1.326 -0.2021  1.7085  2.5137
 5343TIP3    H237589   3.191   5.833   1.327 -0.1559 -1.0386 -1.2301
 5344TIP3   OH237590   0.078   0.975   7.718  0.2362  0.3566  0.0628
 5344TIP3    H137591   0.117   0.891   7.692 -1.2101 -0.1188 -0.6773
 5344TIP3    H237592   0.132   1.004   7.791  0.4240 -1.5364  0.7496
 5345TIP3   OH237593   4.574   0.969   6.671  0.0736  0.4621 -0.2296
 5345TIP3    H137594   4.489   1.012   6.684 -0.0824 -0.0440  0.5206
 5345TIP3    H237595   4.633   1.015   6.730  0.5655  1.4395 -1.4396
 5346TIP3   OH237596   1.137   5.005   1.301 -0.1258 -0.3880 -0.6252
 5346TIP3    H137597   1.127   4.988   1.395 -1.7298 -0.2380 -0.7403
 5346TIP3    H237598   1.138   5.100   1.294  3.2898 -0.3076 -0.5035
 5347TIP3   OH237599   7.120   5.058   1.653 -0.2803  0.5389 -0.3603
 5347TIP3    H137600   7.084   5.121   1.717 -1.5688 -0.6033  0.0942
 5347TIP3    H237601   7.079   5.082   1.570 -1.7604 -0.4301  0.0554
 5348TIP3   OH237602   6.964   0.273   1.400  0.0306 -0.0217  0.3772
 5348TIP3    H137603   6.869   0.286   1.409  0.1981  0.8723  0.9435
 5348TIP3    H237604   6.976   0.179   1.414 -0.6546  0.0326  1.4424
 5349TIP3   OH237605   0.303   3.186   0.408 -0.5593 -0.8485 -0.6569
 5349TIP3    H137606   0.368   3.151   0.348 -1.5395 -0.3225 -2.0936
 5349TIP3    H237607   0.267   3.262   0.362 -1.0769 -0.1902  0.7805
 5350TIP3   OH237608   7.148   4.527   6.847 -0.4195  0.2119 -0.1433
 5350TIP3    H137609   7.228   4.484   6.818  0.9132  2.5212 -0.1747
 5350TIP3    H237610   7.173   4.619   6.858 -1.5100  0.1758  5.4229
 5351TIP3   OH237611   3.196   1.860   6.926 -0.2886  0.2831 -0.6038
 5351TIP3    H137612   3.236   1.870   7.012 -0.6715 -2.2027 -0.0463
 5351TIP3    H237613   3.143   1.780   6.934 -0.4809  0.0986 -3.0964
 5352TIP3   OH237614   3.444   2.258   6.048  0.5265 -0.2104  0.0238
 5352TIP3    H137615   3.529   2.293   6.019  0.1698 -0.5034 -1.4682
 5352TIP3    H237616   3.466   2.177   6.093  1.2195  0.9692  1.9286
 5353TIP3   OH237617   5.055   5.336   7.023  0.5202 -0.4069  0.6773
 5353TIP3    H137618   5.002   5.261   6.996  1.5022 -0.6320 -0.7620
 5353TIP3    H237619   4.995   5.411   7.018  0.2974 -0.6557 -0.9105
 5354TIP3   OH237620   1.246   3.989   6.733 -0.7208  0.3396  0.2353
 5354TIP3    H137621   1.254   3.996   6.828 -0.7818 -0.7656  0.3448
 5354TIP3    H237622   1.327   3.945   6.706 -2.0765 -2.3886  0.2188
 5355TIP3   OH237623   5.862   5.360   0.388  0.2881 -0.5783 -0.1382
 5355TIP3    H137624   5.811   5.284   0.361  1.8187 -0.5994 -3.4782
 5355TIP3    H237625   5.925   5.325   0.450 -0.5506 -1.5355  0.2023
 5356TIP3   OH237626   3.355   1.529   7.078  0.1966  0.0113  0.0347
 5356TIP3    H137627   3.351   1.549   7.171  1.2471 -1.5675  0.4466
 5356TIP3    H237628   3.446   1.544   7.053 -0.1769  0.9071 -0.8741
 5357TIP3   OH237629   4.806   2.143   7.918 -0.9330  0.8373  0.2853
 5357TIP3    H137630   4.776   2.151   8.008  0.4738  0.1032  0.8578
 5357TIP3    H237631   4.779   2.055   7.891  2.0030 -0.5617  1.4152
 5358TIP3   OH237632   3.009   2.489   0.216 -0.0506  0.1152  0.3818
 5358TIP3    H137633   3.008   2.485   0.120 -1.4216 -0.0200  0.3713
 5358TIP3    H237634   3.081   2.548   0.238  1.5781 -1.3977 -0.6386
 5359TIP3   OH237635   0.394   2.278   7.477 -0.1199 -0.2489  0.4670
 5359TIP3    H137636   0.349   2.193   7.479  0.8139 -0.7626  0.1753
 5359TIP3    H237637   0.486   2.257   7.492  0.3773  0.5141 -1.2814
 5360TIP3   OH237638   6.682   3.438   0.566 -0.5992  0.2115 -0.3610
 5360TIP3    H137639   6.602   3.398   0.533 -1.8472  2.4115 -0.1524
 5360TIP3    H237640   6.680   3.423   0.661  1.0365 -2.6785 -0.6418
 5361TIP3   OH237641   2.429   4.666   6.975  0.9397  0.1382 -0.0194
 5361TIP3    H137642   2.429   4.729   6.903 -0.2007 -1.1461 -1.1999
 5361TIP3    H237643   2.352   4.611   6.960  0.7275 -0.2490  2.1361
 5362TIP3   OH237644   6.690   3.643   7.678 -0.4271 -0.1249  0.2874
 5362TIP3    H137645   6.630   3.618   7.608 -1.0173 -1.6348  1.2835
 5362TIP3    H237646   6.711   3.561   7.723  0.6682  0.6749  1.3147
 5363TIP3   OH237647   0.002   4.122   6.702  0.4031 -0.5495  0.0038
 5363TIP3    H137648  -0.079   4.074   6.685 -2.0701  2.7270  1.3015
 5363TIP3    H237649   0.059   4.100   6.629 -1.7248 -2.8237 -1.1309
 5364TIP3   OH237650   2.380   4.423   1.109 -0.0486 -0.0917  0.7524
 5364TIP3    H137651   2.356   4.445   1.019  2.8634  0.7642  0.0618
 5364TIP3    H237652   2.446   4.354   1.099  2.4836  2.0168  1.9584
 5365TIP3   OH237653   3.901   1.124   1.507 -0.3829 -0.4559 -0.1610
 5365TIP3    H137654   3.888   1.137   1.601 -0.8883  1.5211 -0.4446
 5365TIP3    H237655   3.824   1.076   1.478  0.2460 -1.9487  0.5690
 5366TIP3   OH237656   3.762   2.909   1.386 -0.1964 -0.3931 -0.1882
 5366TIP3    H137657   3.734   2.973   1.452  1.1318  1.5764 -1.4510
 5366TIP3    H237658   3.681   2.868   1.358 -1.1758  1.0979  0.3076
 5367TIP3   OH237659   1.302   2.965   7.505 -0.1296 -0.4978 -1.0126
 5367TIP3    H137660   1.230   3.029   7.509  0.3507 -0.0088  1.1183
 5367TIP3    H237661   1.376   3.015   7.470  0.1457  0.0936  0.3124
 5368TIP3   OH237662   1.825   3.239   7.822 -0.5932 -0.5119  0.2529
 5368TIP3    H137663   1.910   3.254   7.864 -1.2116  1.6218  0.8746
 5368TIP3    H237664   1.771   3.198   7.889 -0.8353  0.5995  0.7494
 5369TIP3   OH237665   1.075   6.340   7.029 -0.7113 -0.1457 -0.5660
 5369TIP3    H137666   1.033   6.277   7.087  0.9579  1.2950  2.4904
 5369TIP3    H237667   1.002   6.385   6.985 -2.0600 -1.4886  0.2214
 5370TIP3   OH237668   3.685   4.050   7.234 -0.3651 -0.0791 -0.2004
 5370TIP3    H137669   3.747   4.123   7.237 -0.3242 -0.1297  0.5300
 5370TIP3    H237670   3.729   3.983   7.181 -0.5493  0.5537 -1.1550
 5371TIP3   OH237671   2.013   2.840   1.052  0.2850 -0.5097 -0.8517
 5371TIP3    H137672   1.971   2.763   1.089 -0.9630 -0.1966 -1.5554
 5371TIP3    H237673   2.090   2.854   1.106 -1.8119  0.3603  2.1487
 5372TIP3   OH237674   2.833   3.128   1.458 -0.0845  0.7614  0.0899
 5372TIP3    H137675   2.828   3.223   1.472  1.1931  1.0078 -0.9695
 5372TIP3    H237676   2.742   3.100   1.447 -0.9333  1.1847  4.2978
 5373TIP3   OH237677   1.777   4.254   7.106  0.1349 -0.5038 -0.0302
 5373TIP3    H137678   1.792   4.347   7.122  1.8294 -0.7677  0.0946
 5373TIP3    H237679   1.705   4.252   7.043  0.6689  0.9329 -0.7332
 5374TIP3   OH237680   2.124   3.767   0.950  0.2749 -0.0304 -0.0081
 5374TIP3    H137681   2.204   3.809   0.980 -0.2684 -0.0340  1.5530
 5374TIP3    H237682   2.127   3.680   0.989  0.4765 -0.7897 -1.6444
 5375TIP3   OH237683   5.578   6.793   0.990 -0.1087  0.5549  0.3452
 5375TIP3    H137684   5.580   6.784   0.895  1.2042 -0.4901  0.4406
 5375TIP3    H237685   5.543   6.881   1.005  1.5757  1.5612 -1.1825
 5376TIP3   OH237686   2.763   3.790   1.804  0.1291  0.4086  0.0607
 5376TIP3    H137687   2.855   3.806   1.824  0.4434 -1.4234  0.2723
 5376TIP3    H237688   2.738   3.860   1.744  1.7593  0.7161 -0.2968
 5377TIP3   OH237689   1.538   2.676   7.540 -0.2393 -0.1901 -0.4828
 5377TIP3    H137690   1.490   2.602   7.577  1.4245 -1.3554 -0.5339
 5377TIP3    H237691   1.488   2.701   7.462 -1.1055 -0.9188 -0.1745
 5378TIP3   OH237692   4.101   2.901   7.545 -0.1033  0.5210  0.0156
 5378TIP3    H137693   4.021   2.914   7.596  0.2060  1.3077  0.3050
 5378TIP3    H237694   4.163   2.863   7.607 -0.7759 -1.8581 -0.6430
 5379TIP3   OH237695   0.390   3.202   7.403 -0.0439 -0.7715  0.0906
 5379TIP3    H137696   0.476   3.219   7.365  0.4010  0.3724  1.5209
 5379TIP3    H237697   0.367   3.114   7.371  0.2975  0.0456 -2.6999
 5380TIP3   OH237698   3.801   4.943   7.557 -0.3732  0.1058  0.1431
 5380TIP3    H137699   3.791   4.866   7.502  1.3188 -0.2017  0.2078
 5380TIP3    H237700   3.873   4.921   7.617 -0.3888  1.4281  0.6917
 5381TIP3   OH237701   0.242   4.831   7.944 -0.6078 -0.3460 -0.4044
 5381TIP3    H137702   0.277   4.779   8.016 -1.3101  0.1331  0.2980
 5381TIP3    H237703   0.147   4.833   7.959 -0.9312 -1.3805 -2.1122
 5382TIP3   OH237704   5.579   1.498   7.096  0.6866  0.1404 -0.2959
 5382TIP3    H137705   5.587   1.465   7.006 -0.3599  3.1716 -1.6549
 5382TIP3    H237706   5.490   1.474   7.122  1.3610 -1.7263  0.4549
 5383TIP3   OH237707   5.480   6.873   6.771  0.0950  0.7529 -0.1639
 5383TIP3    H137708   5.554   6.933   6.767  0.0412  0.7615 -1.2644
 5383TIP3    H237709   5.415   6.918   6.825  0.8695  0.7479  0.7962
 5384TIP3   OH237710   6.834   6.150   0.773  0.4804 -0.4161 -0.2911
 5384TIP3    H137711   6.886   6.115   0.700  3.0208 -1.5687  1.8759
 5384TIP3    H237712   6.838   6.245   0.762 -1.4916 -0.5239 -3.0120
 5385TIP3   OH237713   3.384   5.836   6.769 -0.2339  0.3214 -0.0066
 5385TIP3    H137714   3.452   5.886   6.815  0.8464 -0.7024 -0.4548
 5385TIP3    H237715   3.431   5.786   6.703 -1.3211 -1.1002  0.2455
 5386TIP3   OH237716   1.007   6.545   0.296 -0.1866  0.4620  0.2327
 5386TIP3    H137717   1.059   6.601   0.353 -0.7701  0.3132  0.9253
 5386TIP3    H237718   0.999   6.595   0.214  4.2692 -1.0609 -1.4405
 5387TIP3   OH237719   6.784   6.238   0.302  0.2081 -0.1726  0.6223
 5387TIP3    H137720   6.842   6.266   0.231 -0.0476 -1.3925 -0.0965
 5387TIP3    H237721   6.696   6.257   0.270  0.0235 -1.7795  0.0809
 5388TIP3   OH237722   4.068   3.497   6.043 -0.5457 -0.3307  0.0521
 5388TIP3    H137723   4.102   3.407   6.044  0.9047  0.1343 -1.7083
 5388TIP3    H237724   4.097   3.532   5.959 -2.9369  1.1103 -0.2599
 5389TIP3   OH237725   4.396   6.431   6.058  0.1332  0.4344 -0.0668
 5389TIP3    H137726   4.445   6.349   6.058 -1.3555 -0.4896  0.2482
 5389TIP3    H237727   4.304   6.404   6.066 -0.3447  2.1534  0.6336
 5390TIP3   OH237728   4.370   5.921   6.886 -0.4794 -0.1287 -0.1772
 5390TIP3    H137729   4.330   5.992   6.937  1.2594  0.5494  0.3194
 5390TIP3    H237730   4.413   5.966   6.813 -1.9518 -0.9931 -1.6574
 5391TIP3   OH237731   4.412   1.744   7.587  0.5553  0.0685 -0.0046
 5391TIP3    H137732   4.318   1.759   7.585  0.3321 -1.0654  0.7223
 5391TIP3    H237733   4.430   1.717   7.677  1.5359  0.0381 -0.1985
 5392TIP3   OH237734   0.551   1.760   0.652  0.1044 -0.0001 -0.4911
 5392TIP3    H137735   0.535   1.699   0.725  2.2469  0.5117  0.4650
 5392TIP3    H237736   0.463   1.788   0.626 -0.7729  1.1059  3.0317
 5393TIP3   OH237737   5.006   1.814   1.125  0.1717 -0.6759 -0.0033
 5393TIP3    H137738   5.004   1.858   1.209  0.4943  2.7605 -1.6468
 5393TIP3    H237739   4.916   1.819   1.093  0.7214  1.5581 -1.4247
 5394TIP3   OH237740   3.171   6.885   6.286  0.2349 -0.2564 -0.3394
 5394TIP3    H137741   3.240   6.907   6.348 -1.1251 -0.2033  1.2087
 5394TIP3    H237742   3.197   6.929   6.205  0.5535  2.2446  1.0225
 5395TIP3   OH237743   6.184   4.362   6.325  0.4211 -0.3677 -0.3026
 5395TIP3    H137744   6.203   4.337   6.415  3.1225 -0.9037 -0.9384
 5395TIP3    H237745   6.118   4.299   6.296 -2.3246  1.2899  1.9413
 5396TIP3   OH237746   0.502   2.488   5.632 -0.1505 -0.2235 -0.6891
 5396TIP3    H137747   0.565   2.548   5.591 -0.5020  0.6289 -0.0083
 5396TIP3    H237748   0.554   2.440   5.696  0.1335 -0.6708 -1.2387
 5397TIP3   OH237749   4.437   0.956   7.745  0.2120  0.0141  0.7706
 5397TIP3    H137750   4.495   0.895   7.700  0.9289  2.8765 -2.5884
 5397TIP3    H237751   4.491   1.034   7.760 -1.8664  1.5809  0.5123
 5398TIP3   OH237752   6.776   6.511   1.886 -0.0281  0.2966 -0.4785
 5398TIP3    H137753   6.763   6.497   1.980  1.8787  0.3941 -0.1565
 5398TIP3    H237754   6.805   6.427   1.853 -0.2618  0.3812 -0.9032
 5399TIP3   OH237755   0.623   3.064   0.684  0.1871  0.3092 -0.3442
 5399TIP3    H137756   0.670   3.139   0.647  1.6049  0.8576  2.2640
 5399TIP3    H237757   0.665   2.988   0.645  1.4227  0.8585 -0.1441
 5400TIP3   OH237758   1.292   4.274   1.954 -0.4466 -0.3703 -0.1748
 5400TIP3    H137759   1.269   4.333   1.882  0.6886 -0.5935 -0.7307
 5400TIP3    H237760   1.229   4.202   1.947 -0.5581 -0.2184 -0.7282
 5401TIP3   OH237761   4.043   4.528   0.568  0.1126 -0.1120  0.0569
 5401TIP3    H137762   4.068   4.446   0.527 -0.3487 -0.1523 -0.1467
 5401TIP3    H237763   3.990   4.573   0.502  0.1550  0.2382  0.2589
 5402TIP3   OH237764   0.421   6.415   0.179 -0.3495 -0.0409  0.0173
 5402TIP3    H137765   0.396   6.423   0.087 -1.1926  2.6057  0.3870
 5402TIP3    H237766   0.471   6.494   0.197  1.3424 -1.3712  1.4227
 5403TIP3   OH237767   0.938   7.084   1.624  0.6356  0.5113 -0.1135
 5403TIP3    H137768   0.858   7.042   1.591 -0.4545  2.2455  0.2011
 5403TIP3    H237769   0.928   7.083   1.719  1.8493 -0.8018  0.0389
 5404TIP3   OH237770   3.535   5.089   6.755  0.5384  1.0150  0.2653
 5404TIP3    H137771   3.585   5.094   6.837  0.0589  1.4620  0.5353
 5404TIP3    H237772   3.487   5.172   6.751 -0.6361  0.3580  0.3111
 5405TIP3   OH237773   3.529   4.027   0.954 -0.1151  0.6150 -0.3560
 5405TIP3    H137774   3.588   4.098   0.930 -0.0423  0.9300  0.7237
 5405TIP3    H237775   3.556   4.002   1.042 -1.3647  0.5343  0.0212
 5406TIP3   OH237776   2.037   4.688   6.679 -0.2165 -0.0835 -0.2770
 5406TIP3    H137777   2.106   4.734   6.631  1.4308  1.8693  3.5510
 5406TIP3    H237778   1.968   4.754   6.691 -0.3904 -0.3872  0.4149
 5407TIP3   OH237779   0.508   0.852   0.634  0.7029  0.6020  0.1879
 5407TIP3    H137780   0.594   0.838   0.673 -0.1961 -1.1640  1.6849
 5407TIP3    H237781   0.517   0.822   0.544  0.9671 -2.4368  1.1350
 5408TIP3   OH237782   2.734   3.714   6.999  0.5014  0.4439  0.4421
 5408TIP3    H137783   2.825   3.684   7.004  0.2846 -0.0704  1.6043
 5408TIP3    H237784   2.687   3.641   6.960  0.4073  0.2729  0.8706
 5409TIP3   OH237785   2.024   1.547   0.586 -0.0724  0.8827 -0.2215
 5409TIP3    H137786   1.987   1.495   0.657  1.3173  1.0387  0.6604
 5409TIP3    H237787   2.070   1.483   0.531 -0.5883  0.8498 -0.6236
 5410TIP3   OH237788   2.230   4.069   7.025 -0.2000 -0.1175 -0.0336
 5410TIP3    H137789   2.224   4.089   7.119 -0.8161 -1.4156  0.2325
 5410TIP3    H237790   2.193   4.145   6.981 -0.9233  0.0489  0.8361
 5411TIP3   OH237791   3.397   2.460   6.842  0.3486  0.0028 -0.1538
 5411TIP3    H137792   3.321   2.402   6.839  0.6094 -0.3046 -1.9433
 5411TIP3    H237793   3.386   2.518   6.767  1.7229  0.1474 -0.2735
 5412TIP3   OH237794   6.648   1.085   7.787 -0.6259 -0.1718  0.0746
 5412TIP3    H137795   6.626   1.022   7.718  0.0863 -1.1632  0.7281
 5412TIP3    H237796   6.739   1.108   7.771 -0.9436  0.8874 -0.2893
 5413TIP3   OH237797   5.616   5.537   1.228 -0.0418  0.2279  0.1651
 5413TIP3    H137798   5.610   5.557   1.134  0.6288  1.4388  0.3595
 5413TIP3    H237799   5.710   5.537   1.246 -0.1846  0.4090  0.9220
 5414TIP3   OH237800   2.506   4.417   6.145 -0.4962  0.4406 -0.4706
 5414TIP3    H137801   2.502   4.512   6.131  2.5640  0.5566 -1.2735
 5414TIP3    H237802   2.503   4.407   6.240  2.0432  1.6642 -0.1797
 5415TIP3   OH237803   1.773   2.272   1.047 -0.0273  0.3239 -0.0933
 5415TIP3    H137804   1.816   2.349   1.009  0.7765 -0.9627 -1.9251
 5415TIP3    H237805   1.829   2.247   1.121  0.2990  0.8653 -0.1535
 5416TIP3   OH237806   3.806   2.899   6.632 -0.2964 -0.0799 -0.0608
 5416TIP3    H137807   3.853   2.833   6.582 -1.3553 -0.5971 -0.4173
 5416TIP3    H237808   3.809   2.977   6.577 -1.0285 -0.5057 -0.7293
 5417TIP3   OH237809   4.185   5.538   6.609  0.0023 -0.0985  0.3231
 5417TIP3    H137810   4.124   5.582   6.668  1.0958 -0.0397  1.4425
 5417TIP3    H237811   4.129   5.490   6.549 -1.1979  1.7121 -0.0927
 5418TIP3   OH237812   3.676   2.881   0.730  0.3056 -0.2136 -0.0813
 5418TIP3    H137813   3.626   2.953   0.692 -1.0404 -0.1630  1.6785
 5418TIP3    H237814   3.665   2.891   0.824  0.7239 -2.2806  0.2323
 5419TIP3   OH237815   3.184   0.099   0.034 -0.1205 -0.2107 -0.2885
 5419TIP3    H137816   3.159   0.052  -0.046 -0.5688 -0.5812  0.0635
 5419TIP3    H237817   3.150   0.045   0.105  0.0550  0.2449  0.1485
 5420TIP3   OH237818   2.604   5.578   6.490  0.5359  0.0304  0.3589
 5420TIP3    H137819   2.694   5.608   6.504  0.9172 -0.8072 -0.1950
 5420TIP3    H237820   2.575   5.624   6.412  1.6026 -1.9709 -1.3040
 5421TIP3   OH237821   4.430   2.225   6.173  0.5115  0.3570  0.9626
 5421TIP3    H137822   4.458   2.206   6.263  0.7343  0.7699  0.9867
 5421TIP3    H237823   4.477   2.306   6.150 -0.7763  1.1741  1.0642
 5422TIP3   OH237824   5.907   3.088   6.797  0.1440  0.3728 -0.1558
 5422TIP3    H137825   5.895   3.161   6.736 -0.3551 -0.7988 -1.5064
 5422TIP3    H237826   5.818   3.066   6.825  0.4087  1.3864  1.6558
 5423TIP3   OH237827   5.626   1.490   6.190 -0.4749 -0.1831 -0.4248
 5423TIP3    H137828   5.669   1.407   6.210 -0.5951  0.3562  2.5845
 5423TIP3    H237829   5.533   1.473   6.204 -0.5506  0.3193 -0.2881
 5424TIP3   OH237830   5.625   3.718   0.408 -0.0294 -0.1807 -0.2695
 5424TIP3    H137831   5.663   3.634   0.434  0.1716  0.5362  1.9307
 5424TIP3    H237832   5.544   3.695   0.363 -0.2712 -1.5525  0.8146
 5425TIP3   OH237833   4.527   0.713   0.091  0.3461  0.3271 -0.0682
 5425TIP3    H137834   4.550   0.686   0.180  0.7052 -0.5632 -0.4133
 5425TIP3    H237835   4.441   0.754   0.100  0.3814  0.2567  0.6893
 5426TIP3   OH237836   2.482   2.230   6.071 -0.1749 -0.2458 -0.2650
 5426TIP3    H137837   2.565   2.215   6.115 -0.8344 -1.1487  0.7018
 5426TIP3    H237838   2.501   2.298   6.006  1.1093  0.1771  0.5332
 5427TIP3   OH237839   6.894   5.340   0.058 -0.0509  0.0003 -0.5700
 5427TIP3    H137840   6.811   5.309   0.094 -0.9114  0.8052 -1.7949
 5427TIP3    H237841   6.872   5.423   0.015  1.5482  0.6465 -0.2090
 5428TIP3   OH237842   6.763   0.216   0.834 -0.7164 -0.0778  0.3939
 5428TIP3    H137843   6.786   0.255   0.918  1.4721 -0.8712  0.2341
 5428TIP3    H237844   6.726   0.130   0.857 -2.8161  0.8391  0.6175
 5429TIP3   OH237845   0.986   6.780   1.403  0.1025 -0.7219 -0.1023
 5429TIP3    H137846   0.955   6.744   1.486  0.4034 -0.7608 -0.0051
 5429TIP3    H237847   0.930   6.741   1.337 -0.4879 -0.2801  0.1287
 5430TIP3   OH237848   2.567   6.349   6.264  0.1391 -0.0863 -0.1338
 5430TIP3    H137849   2.506   6.353   6.191  0.2137 -2.2760 -0.4009
 5430TIP3    H237850   2.548   6.265   6.307  1.8241 -0.0602  0.7754
 5431TIP3   OH237851   4.959   1.009   6.455  0.6717 -0.1965 -0.2437
 5431TIP3    H137852   4.944   1.090   6.405  0.2373 -0.0788  0.0717
 5431TIP3    H237853   4.883   0.955   6.435  1.0413 -0.5950 -0.5819
 5432TIP3   OH237854   3.401   5.502   6.942  0.2237  0.6225 -0.6969
 5432TIP3    H137855   3.404   5.492   7.037 -1.5916 -1.1193 -0.7590
 5432TIP3    H237856   3.332   5.567   6.927  1.7470  2.3005 -0.8304
 5433TIP3   OH237857   2.217   6.108   7.338  0.2507 -0.1047  0.1049
 5433TIP3    H137858   2.154   6.167   7.297  0.9354 -0.4958 -1.5860
 5433TIP3    H237859   2.282   6.166   7.378  0.3905  0.3006 -0.6904
 5434TIP3   OH237860   6.982   3.709   7.621 -0.0747  0.6006 -0.2421
 5434TIP3    H137861   7.016   3.686   7.707 -0.8437  0.2390 -0.0213
 5434TIP3    H237862   6.984   3.626   7.572 -1.6795  0.2856  0.1511
 5435TIP3   OH237863   4.435   1.156   6.885  0.1816 -0.3940 -0.1570
 5435TIP3    H137864   4.377   1.080   6.885  0.1701 -0.4350  1.9750
 5435TIP3    H237865   4.377   1.231   6.896  0.4478 -0.3766  1.2282
 5436TIP3   OH237866   2.533   0.585   6.171 -0.2987  0.0542  0.2030
 5436TIP3    H137867   2.571   0.670   6.191 -1.0477  0.1663  1.1791
 5436TIP3    H237868   2.465   0.604   6.107  0.7003 -0.0530 -0.9437
 5437TIP3   OH237869   3.649   6.101   0.062 -0.3547 -0.3253  0.1170
 5437TIP3    H137870   3.729   6.127   0.016 -0.6936 -0.3456 -0.4915
 5437TIP3    H237871   3.651   6.151   0.143  0.9873 -1.3659  0.7737
 5438TIP3   OH237872   5.516   0.475   1.056 -0.4383 -0.2858  0.5118
 5438TIP3    H137873   5.563   0.412   1.110 -0.7076 -0.1970  0.8496
 5438TIP3    H237874   5.425   0.469   1.084 -0.2961  1.0831  1.3721
 5439TIP3   OH237875   2.618   2.036   6.597  0.3853 -0.1307 -1.2096
 5439TIP3    H137876   2.552   2.034   6.527  0.5809 -0.8030 -1.3782
 5439TIP3    H237877   2.591   1.966   6.657  0.4230  0.2060 -0.7947
 5440TIP3   OH237878   5.180   6.656   1.665  0.1131 -0.0011  0.4636
 5440TIP3    H137879   5.157   6.668   1.757  1.2917  2.1091  0.5520
 5440TIP3    H237880   5.124   6.717   1.617 -0.0471 -0.6260 -0.1740
 5441TIP3   OH237881   4.222   0.658   6.245 -0.4314 -0.0701 -0.6130
 5441TIP3    H137882   4.256   0.741   6.279 -0.3676 -1.2406  2.4859
 5441TIP3    H237883   4.127   0.671   6.241 -0.5352 -0.1506  0.9582
 5442TIP3   OH237884   2.388   6.878   1.750 -0.1283 -0.1578  0.0138
 5442TIP3    H137885   2.445   6.885   1.827 -1.1017  0.5917  0.6889
 5442TIP3    H237886   2.443   6.907   1.677  0.5375 -0.0300  0.5525
 5443TIP3   OH237887   3.097   4.805   0.243 -0.3293  0.2464  0.0946
 5443TIP3    H137888   3.151   4.809   0.322 -0.0965 -0.6114 -0.0128
 5443TIP3    H237889   3.007   4.819   0.274 -0.0721  1.5926  0.2827
 5444TIP3   OH237890   5.499   4.045   0.117  0.2427  0.6547  0.3647
 5444TIP3    H137891   5.464   3.975   0.061  0.6359  1.6949 -1.2654
 5444TIP3    H237892   5.571   4.004   0.163  0.0172 -0.2084 -0.0155
 5445TIP3   OH237893   6.255   5.147   0.762  0.5866 -0.2132  0.4279
 5445TIP3    H137894   6.253   5.162   0.856  0.1027  1.3778  0.2001
 5445TIP3    H237895   6.307   5.219   0.727 -0.9221  0.4095 -0.6851
 5446TIP3   OH237896   7.054   5.528   7.778 -0.5383  0.4471  0.2677
 5446TIP3    H137897   7.037   5.467   7.706 -1.3470  0.8245  0.1166
 5446TIP3    H237898   6.978   5.518   7.836  0.7991 -0.9585  1.8943
 5447TIP3   OH237899   0.938   3.282   7.472 -0.6466  0.3323 -0.1401
 5447TIP3    H137900   0.904   3.368   7.496 -1.2393  0.5959 -1.8419
 5447TIP3    H237901   0.956   3.288   7.378 -0.0478 -1.1888 -0.1519
 5448TIP3   OH237902   4.004   0.838   6.794  0.3790  0.7267  0.5198
 5448TIP3    H137903   3.995   0.743   6.805 -0.9365  0.6318 -0.9627
 5448TIP3    H237904   3.927   0.875   6.836  0.7646  1.1360  0.8819
 5449TIP3   OH237905   1.506   2.487   6.784 -0.6631 -0.1017  0.1296
 5449TIP3    H137906   1.526   2.405   6.739  2.0096  1.9206 -2.7358
 5449TIP3    H237907   1.439   2.528   6.729 -0.3834  0.6017  0.3100
 5450TIP3   OH237908   1.406   5.487   2.105 -0.0350  0.2340  0.4534
 5450TIP3    H137909   1.451   5.402   2.107  1.5168  1.0350  1.9894
 5450TIP3    H237910   1.469   5.546   2.062 -0.9936  0.6890 -0.3706
 5451TIP3   OH237911   0.284   3.085   7.099 -0.0677  0.3837  0.1812
 5451TIP3    H137912   0.269   3.012   7.159 -1.9207  0.5485 -0.0298
 5451TIP3    H237913   0.233   3.157   7.135  0.1631  0.9910 -0.6794
 5452TIP3   OH237914   0.928   1.843   6.796 -0.3974  0.6384 -0.0832
 5452TIP3    H137915   0.903   1.751   6.803  0.6224  0.2736 -0.9028
 5452TIP3    H237916   1.019   1.846   6.824 -0.7204  1.5953  0.9550
 5453TIP3   OH237917   6.676   6.379   0.868  0.1095  0.8167  0.1484
 5453TIP3    H137918   6.605   6.387   0.804 -1.0549 -2.4823  0.8352
 5453TIP3    H237919   6.630   6.372   0.953  0.9459 -3.4373  0.4291
 5454TIP3   OH237920   1.606   7.154   0.224 -0.0628  0.3213 -0.8508
 5454TIP3    H137921   1.541   7.153   0.155  2.6869 -0.4759 -3.6890
 5454TIP3    H237922   1.690   7.158   0.178  1.9489  1.4436  2.5258
 5455TIP3   OH237923   1.655   5.891   1.528 -0.2421 -0.0306 -0.2157
 5455TIP3    H137924   1.717   5.941   1.475 -0.4861 -0.4309 -0.9031
 5455TIP3    H237925   1.697   5.805   1.537 -1.5267 -0.9678 -2.3763
 5456TIP3   OH237926   0.647   1.380   0.705  1.1677  0.2498 -0.5885
 5456TIP3    H137927   0.565   1.331   0.695  0.9235  0.3980  0.5966
 5456TIP3    H237928   0.697   1.358   0.626 -0.2727  0.6719 -1.6601
 5457TIP3   OH237929   4.089   5.820   6.300 -0.1455 -0.6111 -0.0270
 5457TIP3    H137930   4.085   5.910   6.334  0.0096 -0.6352  0.0535
 5457TIP3    H237931   4.061   5.765   6.373 -0.6168 -0.5995 -0.1957
 5458TIP3   OH237932   1.237   0.619   6.703 -0.4557 -0.6148  0.1292
 5458TIP3    H137933   1.167   0.674   6.737 -2.4828 -2.5052 -0.7245
 5458TIP3    H237934   1.295   0.679   6.658 -2.2271  0.9095 -0.2373
 5459TIP3   OH237935   2.744   2.170   6.103 -0.1943  0.9687 -0.2249
 5459TIP3    H137936   2.747   2.091   6.048 -1.3650  0.0183  1.0247
 5459TIP3    H237937   2.789   2.236   6.051  0.4996 -0.4166 -1.4727
 5460TIP3   OH237938   0.282   4.498   6.761  0.3320 -0.1496 -0.0910
 5460TIP3    H137939   0.281   4.409   6.796  0.5432 -0.5574 -1.0795
 5460TIP3    H237940   0.346   4.544   6.815  1.0453 -0.9048 -0.2579
 5461TIP3   OH237941   0.784   6.618   5.921  0.0836 -0.3012  0.6941
 5461TIP3    H137942   0.819   6.581   5.840 -0.5720 -1.4153  0.9012
 5461TIP3    H237943   0.772   6.711   5.902  1.4727 -0.2283  0.0551
 5462TIP3   OH237944   6.238   2.694   0.345 -0.0801 -0.2154  0.4074
 5462TIP3    H137945   6.325   2.718   0.378 -0.8010  0.9012  1.5753
 5462TIP3    H237946   6.216   2.764   0.283 -0.1111 -0.5636  0.0209
 5463TIP3   OH237947   6.585   1.199   6.949 -0.2016  0.0965 -0.5206
 5463TIP3    H137948   6.559   1.111   6.922 -1.2672 -0.1940  1.3634
 5463TIP3    H237949   6.644   1.185   7.023 -1.5735  0.9737  0.7797
 5464TIP3   OH237950   2.586   5.519   1.017 -0.6404  0.7709 -0.1212
 5464TIP3    H137951   2.516   5.584   1.028  1.3982  3.0825  0.2517
 5464TIP3    H237952   2.618   5.504   1.106 -0.1294  0.3785 -0.3663
 5465TIP3   OH237953   1.413   7.117   8.027  0.0650 -0.0561 -0.6350
 5465TIP3    H137954   1.402   7.130   7.933 -0.5467 -0.3804 -0.6144
 5465TIP3    H237955   1.346   7.053   8.050  2.0838 -2.2644 -0.4912
 5466TIP3   OH237956   1.779   2.454   1.364 -0.3241 -0.0249  0.2634
 5466TIP3    H137957   1.794   2.475   1.456 -2.5051 -0.3424  0.7466
 5466TIP3    H237958   1.768   2.359   1.363  1.0373 -0.2006 -0.5722
 5467TIP3   OH237959   5.170   3.039   0.195  0.2822 -0.3252 -0.0751
 5467TIP3    H137960   5.096   3.097   0.210  0.9381  0.9031 -1.3802
 5467TIP3    H237961   5.224   3.085   0.132  0.3805 -2.7495 -1.8943
 5468TIP3   OH237962   1.041   3.162   6.939  0.3245 -0.2240 -1.2431
 5468TIP3    H137963   0.954   3.143   6.905 -0.3644 -1.1157  0.8481
 5468TIP3    H237964   1.050   3.257   6.930 -1.3879  0.0623 -0.4477
 5469TIP3   OH237965   6.596   1.840   7.155 -0.1923 -0.2578  0.2940
 5469TIP3    H137966   6.663   1.878   7.098  1.0584 -1.7212  0.7036
 5469TIP3    H237967   6.561   1.914   7.204  0.1383  0.7354 -0.9108
 5470TIP3   OH237968   6.569   5.141   6.300 -0.4355 -0.0938  0.7115
 5470TIP3    H137969   6.531   5.060   6.268  0.1031 -0.5431  1.1901
 5470TIP3    H237970   6.646   5.156   6.245 -0.9125  0.4604  0.1795
 5471TIP3   OH237971   2.212   6.781   0.651  0.3208 -0.3189  0.4310
 5471TIP3    H137972   2.307   6.773   0.643  0.2285 -0.6958 -0.3704
 5471TIP3    H237973   2.188   6.712   0.713  0.4971 -0.6127  0.1714
 5472TIP3   OH237974   2.112   0.980   0.384  0.3546  0.0358 -0.2739
 5472TIP3    H137975   2.073   0.898   0.354 -2.7678  1.2108  0.1234
 5472TIP3    H237976   2.120   1.033   0.305 -0.9501  0.5148 -0.1236
 5473TIP3   OH237977   4.427   2.062   7.499 -0.2448 -0.4094  0.3550
 5473TIP3    H137978   4.458   2.150   7.479 -0.3797 -0.0987  1.4511
 5473TIP3    H237979   4.469   2.007   7.434 -0.8604  0.5774 -0.9217
 5474TIP3   OH237980   2.706   3.691   6.484  0.1379  0.1704 -0.4101
 5474TIP3    H137981   2.701   3.626   6.413 -1.3504  1.9112 -2.0125
 5474TIP3    H237982   2.776   3.750   6.459  0.6129 -0.0455  0.3710
 5475TIP3   OH237983   0.880   6.301   0.738 -0.3253  0.0480  0.3290
 5475TIP3    H137984   0.827   6.338   0.668 -0.1246  0.8418  0.5900
 5475TIP3    H237985   0.819   6.292   0.812 -0.2448  0.4111  0.4444
 5476TIP3   OH237986   5.413   3.519   2.169 -0.8131 -0.2076 -0.0646
 5476TIP3    H137987   5.467   3.570   2.108 -1.7094  0.2246 -0.5190
 5476TIP3    H237988   5.357   3.584   2.212 -1.3746 -0.7072 -0.0290
 5477TIP3   OH237989   1.211   2.445   0.510 -0.5144 -0.3675  0.2945
 5477TIP3    H137990   1.124   2.484   0.505  0.1604  1.4418  1.7573
 5477TIP3    H237991   1.196   2.355   0.538 -1.9775 -0.5237 -0.8815
 5478TIP3   OH237992   4.292   5.729   0.234 -0.0716 -0.5460  0.0408
 5478TIP3    H137993   4.210   5.682   0.219 -1.4461  1.9094 -0.6811
 5478TIP3    H237994   4.340   5.721   0.151 -0.6181 -0.1016 -0.3247
 5479TIP3   OH237995   0.447   1.196   0.687 -0.1707 -0.2681 -0.6474
 5479TIP3    H137996   0.486   1.146   0.615  1.1150 -2.0127  1.1507
 5479TIP3    H237997   0.408   1.129   0.744 -1.3154  1.0793  0.2118
 5480TIP3   OH237998   1.682   5.257   2.281 -0.1233 -0.1057 -0.5791
 5480TIP3    H137999   1.644   5.321   2.342 -0.5202  0.7314 -1.6781
 5480TIP3    H238000   1.767   5.236   2.320 -1.0372 -0.8564  1.1112
 5481TIP3   OH238001   4.136   7.078   1.400  0.0429  0.9099 -0.1982
 5481TIP3    H138002   4.143   7.151   1.462  1.6485 -0.1761  0.9764
 5481TIP3    H238003   4.043   7.073   1.378 -0.7806  0.6889  2.9706
 5482TIP3   OH238004   0.803   0.145   0.127 -0.4043 -0.0914  0.4715
 5482TIP3    H138005   0.781   0.053   0.139  1.8037 -0.8259 -0.6492
 5482TIP3    H238006   0.872   0.145   0.061  0.1080  2.3244  0.9077
 5483TIP3   OH238007   0.903   5.697   0.668  0.2274  0.5916  0.1057
 5483TIP3    H138008   0.913   5.754   0.745  0.4644  1.3430 -0.4613
 5483TIP3    H238009   0.962   5.735   0.603 -1.4480  1.2125 -1.1442
 5484TIP3   OH238010   3.646   5.378   6.673  0.0919  0.0798 -0.2543
 5484TIP3    H138011   3.693   5.327   6.739 -2.3756 -1.6877  0.2971
 5484TIP3    H238012   3.653   5.469   6.703  0.1638 -0.5291  1.7083
 5485TIP3   OH238013   5.604   1.974   1.038  0.2515 -0.1149 -0.0557
 5485TIP3    H138014   5.663   1.900   1.054  0.6470 -0.0066 -0.9320
 5485TIP3    H238015   5.519   1.935   1.020  0.4372 -0.3537 -0.4166
 5486TIP3   OH238016   1.025   2.772   6.750 -0.3027  0.2711  0.7941
 5486TIP3    H138017   0.932   2.764   6.771  0.1755 -1.1561  2.7590
 5486TIP3    H238018   1.061   2.825   6.821  0.5794 -0.3542  0.8381
 5487TIP3   OH238019   6.554   0.374   0.433  0.3731  0.2732 -0.1832
 5487TIP3    H138020   6.622   0.344   0.494  0.5736  2.3757  0.7074
 5487TIP3    H238021   6.591   0.359   0.346  0.6629 -1.4639  0.1896
 5488TIP3   OH238022   4.365   6.025   0.075  0.1762  0.5056 -0.1741
 5488TIP3    H138023   4.342   5.968   0.002 -1.4496 -1.6130  1.8550
 5488TIP3    H238024   4.375   6.111   0.036  0.2088 -0.6656 -2.9920
 5489TIP3   OH238025   5.881   3.782   0.002 -0.8404  0.1253  0.3336
 5489TIP3    H138026   5.809   3.720  -0.012 -0.5638 -0.4230  1.2442
 5489TIP3    H238027   5.838   3.858   0.042 -1.0617  0.2080 -0.0539
 5490TIP3   OH238028   5.482   4.530   7.044 -0.0120 -0.8125 -1.2809
 5490TIP3    H138029   5.426   4.600   7.011  0.0076 -0.3400 -0.3446
 5490TIP3    H238030   5.438   4.501   7.124  0.7012 -0.9345 -0.9315
 5491TIP3   OH238031   1.442   5.301   0.567  0.5165  0.6112  0.0961
 5491TIP3    H138032   1.434   5.390   0.600 -2.0978 -0.6010  3.4623
 5491TIP3    H238033   1.373   5.293   0.501  0.3145  0.9072  0.2699
 5492TIP3   OH238034   0.484   0.705   0.964 -0.5186 -0.2256  0.0730
 5492TIP3    H138035   0.563   0.734   1.009 -1.2986  0.4918  1.0386
 5492TIP3    H238036   0.509   0.623   0.921  0.3561 -0.7657  1.5370
 5493TIP3   OH238037   1.765   2.847   6.884 -0.3029 -0.3335 -0.2930
 5493TIP3    H138038   1.782   2.940   6.869  0.5659 -0.5905 -0.9693
 5493TIP3    H238039   1.814   2.826   6.963 -1.1042 -0.0599  0.2949
 5494TIP3   OH238040   1.747   2.609   6.727  0.8789  0.5163 -0.0613
 5494TIP3    H138041   1.765   2.666   6.802 -2.2607  0.5733  0.8264
 5494TIP3    H238042   1.657   2.579   6.742  0.8596 -1.1121 -2.8025
 5495TIP3   OH238043   3.390   2.557   5.870  0.1808 -0.2580  0.0878
 5495TIP3    H138044   3.460   2.524   5.926  0.1260 -1.1557 -0.3540
 5495TIP3    H238045   3.310   2.531   5.916  0.1365 -0.2760 -0.0013
 5496TIP3   OH238046   0.185   1.385   7.160  0.0132  0.6644  0.0479
 5496TIP3    H138047   0.254   1.412   7.222  0.5756 -1.9327  0.6659
 5496TIP3    H238048   0.138   1.466   7.141  1.2329  1.9788  2.1167
 5497TIP3   OH238049   4.052   4.591   6.809  0.4919  0.3805  0.2401
 5497TIP3    H138050   4.103   4.631   6.879 -0.8165 -0.2031  1.6121
 5497TIP3    H238051   4.027   4.664   6.752  3.3855  0.5798 -0.9070
 5498TIP3   OH238052   3.339   3.591   0.417  0.0542  0.0691 -0.0632
 5498TIP3    H138053   3.265   3.575   0.358 -0.9172 -0.9759  1.3724
 5498TIP3    H238054   3.411   3.614   0.359 -0.4236 -2.4907 -1.8317
 5499TIP3   OH238055   4.511   5.894   0.354  0.5690 -0.3115  0.2509
 5499TIP3    H138056   4.427   5.876   0.312 -0.2162  0.7745  1.2869
 5499TIP3    H238057   4.548   5.967   0.305 -0.9878  1.8914  2.1466
 5500TIP3   OH238058   1.644   5.884   0.483  0.1095 -0.2369  0.0081
 5500TIP3    H138059   1.689   5.836   0.414  1.8602  1.0405  0.1727
 5500TIP3    H238060   1.624   5.970   0.444 -2.0012 -0.6482  0.0438
 5501TIP3   OH238061   5.647   2.524   0.266  0.3428 -0.4871 -0.1246
 5501TIP3    H138062   5.570   2.472   0.245 -0.5763  0.4776  0.7583
 5501TIP3    H238063   5.680   2.554   0.181 -1.8846  1.3604 -0.4413
 5502TIP3   OH238064   3.580   3.034   7.090  0.7260  0.2058 -0.1790
 5502TIP3    H138065   3.491   3.004   7.070 -0.5675  0.4008  4.2348
 5502TIP3    H238066   3.616   2.967   7.147  2.2435  1.5461  0.5365
 5503TIP3   OH238067   6.665   1.658   6.385  0.8566 -0.3385 -0.2374
 5503TIP3    H138068   6.607   1.624   6.317  2.0191  0.7582 -1.8249
 5503TIP3    H238069   6.751   1.623   6.362  1.2267 -0.1620  0.8380
 5504TIP3   OH238070   2.020   1.023   0.909  0.1327 -0.4289 -0.5306
 5504TIP3    H138071   2.071   1.104   0.917 -0.4689  0.0111 -1.0977
 5504TIP3    H238072   2.085   0.956   0.885  0.4628  0.0974 -1.1287
 5505TIP3   OH238073   0.463   1.282   6.802  0.6769 -0.3273 -0.6523
 5505TIP3    H138074   0.504   1.233   6.873 -0.2777 -0.9448 -0.5122
 5505TIP3    H238075   0.450   1.370   6.838 -0.6734 -0.8924  0.2903
 5506TIP3   OH238076   1.214   3.990   1.712  0.3497 -0.0272 -0.1286
 5506TIP3    H138077   1.181   4.055   1.650  0.9703  0.7089  0.2865
 5506TIP3    H238078   1.169   4.010   1.794 -0.8775 -1.3459 -0.4602
 5507TIP3   OH238079   2.147   1.778   6.906 -0.1490 -0.1762 -0.4826
 5507TIP3    H138080   2.078   1.713   6.888 -1.8423  1.0274  1.2688
 5507TIP3    H238081   2.191   1.746   6.984  0.4589 -0.2834 -0.8605
 5508TIP3   OH238082   2.207   0.032   7.904 -0.5885 -0.1799 -0.1022
 5508TIP3    H138083   2.132   0.091   7.894 -2.3157 -2.4324 -1.2642
 5508TIP3    H238084   2.186  -0.021   7.981  0.4354 -0.0751  0.2754
 5509TIP3   OH238085   5.772   5.585   7.311 -0.2016  0.0177 -0.6616
 5509TIP3    H138086   5.774   5.507   7.367  0.6231 -0.8435 -1.8349
 5509TIP3    H238087   5.699   5.637   7.344  0.7933 -0.0175  1.7893
 5510TIP3   OH238088   2.832   6.602   1.507 -0.3323  0.0481  0.7666
 5510TIP3    H138089   2.803   6.692   1.523 -1.1458 -0.0974  0.1529
 5510TIP3    H238090   2.927   6.609   1.497 -0.2267  0.6585  1.9203
 5511TIP3   OH238091   1.687   2.814   1.704  0.0431  0.1340  0.3581
 5511TIP3    H138092   1.698   2.720   1.696 -1.9187 -0.1090  0.0374
 5511TIP3    H238093   1.615   2.825   1.766 -1.2525  1.3102 -1.2496
 5512TIP3   OH238094   2.164   4.767   0.613  0.4224 -0.3604  0.3788
 5512TIP3    H138095   2.179   4.675   0.633  1.9555  0.1377  1.7811
 5512TIP3    H238096   2.183   4.775   0.519  2.1081 -1.1607  0.6085
 5513TIP3   OH238097   5.314   0.338   6.380 -0.2757 -0.0689  0.2763
 5513TIP3    H138098   5.282   0.428   6.369  0.1334 -0.1546 -2.0640
 5513TIP3    H238099   5.235   0.284   6.381 -0.4453  0.1596 -0.3434
 5514TIP3   OH238100   1.184   3.811   7.658  0.0306  1.2732 -0.5245
 5514TIP3    H138101   1.276   3.829   7.676 -0.1349  1.1780  0.4874
 5514TIP3    H238102   1.184   3.724   7.616  0.1892 -0.3159  2.5062
 5515TIP3   OH238103   6.720   4.451   6.560 -0.6009 -0.0608  0.0250
 5515TIP3    H138104   6.642   4.402   6.585 -0.5309  0.2023  0.7809
 5515TIP3    H238105   6.792   4.390   6.573 -0.5268  0.1960  0.8398
 5516TIP3   OH238106   1.355   2.059   7.861  0.1272  0.3277  0.7101
 5516TIP3    H138107   1.379   2.022   7.946 -2.0138  2.2105  2.2649
 5516TIP3    H238108   1.437   2.095   7.827  1.0353 -0.4649  1.9896
 5517TIP3   OH238109   2.739   0.329   0.966  0.4097 -0.2425  0.3407
 5517TIP3    H138110   2.706   0.278   1.040  1.1523 -2.5512 -0.8289
 5517TIP3    H238111   2.680   0.307   0.894  1.2562 -0.1019 -0.4067
 5518TIP3   OH238112   1.896   5.814   6.626 -0.0857 -0.2688 -0.3159
 5518TIP3    H138113   1.902   5.907   6.602  1.6577 -0.8408 -2.3323
 5518TIP3    H238114   1.875   5.816   6.720 -0.6164  2.1340 -0.4021
 5519TIP3   OH238115   1.726   4.105   0.584 -0.2131  0.0134  0.0397
 5519TIP3    H138116   1.696   4.087   0.495  1.4227  1.0321 -0.7659
 5519TIP3    H238117   1.762   4.022   0.616  0.4620 -0.0187 -0.7874
 5520TIP3   OH238118   4.575   5.934   7.275  0.1866  0.4151 -0.0462
 5520TIP3    H138119   4.656   5.917   7.322 -0.2442 -0.2605  0.4756
 5520TIP3    H238120   4.601   5.941   7.184  0.8673  0.5125  0.1492
 5521TIP3   OH238121   6.924   6.013   2.399  0.2104  0.5136  0.5184
 5521TIP3    H138122   6.920   5.966   2.482 -0.6597 -2.0235 -0.8440
 5521TIP3    H238123   6.839   5.997   2.358  0.5345  1.8704 -0.7821
 5522TIP3   OH238124   3.898   6.145   7.984 -0.4531 -0.1036  0.2586
 5522TIP3    H138125   3.930   6.079   7.923 -2.7413  0.6226 -1.8888
 5522TIP3    H238126   3.939   6.226   7.955  1.2380 -0.2599  2.0111
 5523TIP3   OH238127   4.996   4.590   0.180 -0.0986 -0.2629 -0.0075
 5523TIP3    H138128   4.928   4.534   0.142  0.2079 -0.6846  0.0738
 5523TIP3    H238129   4.969   4.679   0.155 -0.0884 -0.5081 -0.9093
 5524TIP3   OH238130   1.025   2.902   0.796 -0.3858 -0.1648  0.0486
 5524TIP3    H138131   0.939   2.912   0.836 -0.6471 -1.4689 -0.1665
 5524TIP3    H238132   1.010   2.916   0.703 -0.6613 -1.8965 -0.1885
 5525TIP3   OH238133   1.229   2.031   6.469  0.3348  0.3926 -0.1283
 5525TIP3    H138134   1.190   2.038   6.382  0.3304 -2.4167 -0.4592
 5525TIP3    H238135   1.288   1.955   6.462  0.5336  0.2668  2.2460
 5526TIP3   OH238136   5.102   6.740   0.623 -0.6610  0.3411  0.2639
 5526TIP3    H138137   5.130   6.653   0.595 -0.6362  0.1125  1.0046
 5526TIP3    H238138   5.184   6.787   0.641 -0.6887  0.3713  0.3125
 5527TIP3   OH238139   6.253   1.154   8.022 -0.1435  0.0469 -0.1706
 5527TIP3    H138140   6.301   1.089   7.971 -1.1502 -0.7517 -0.1126
 5527TIP3    H238141   6.232   1.223   7.960 -2.4545 -1.4832 -1.2083
 5528TIP3   OH238142   0.549   3.937   0.734  0.5120  0.3150 -0.5250
 5528TIP3    H138143   0.608   3.917   0.661  2.0570  0.2909  0.6680
 5528TIP3    H238144   0.519   4.026   0.716 -1.5319 -0.6957 -2.6893
 5529TIP3   OH238145   4.738   2.938   7.697 -0.3704 -0.6086  0.0098
 5529TIP3    H138146   4.795   2.971   7.627 -0.1802 -1.1880 -0.1198
 5529TIP3    H238147   4.767   2.847   7.709 -0.3097 -0.4738  0.9378
 5530TIP3   OH238148   1.552   5.450   0.847  0.3998 -0.0026  0.4208
 5530TIP3    H138149   1.585   5.376   0.795 -1.4121 -0.8233  0.3765
 5530TIP3    H238150   1.531   5.517   0.782 -0.1364 -0.3385  0.2396
 5531TIP3   OH238151   5.766   2.515   6.825 -0.1248  0.1897 -0.2696
 5531TIP3    H138152   5.775   2.429   6.785 -1.1292 -0.1450  0.1729
 5531TIP3    H238153   5.722   2.498   6.909 -2.5006  1.3142 -1.1938
 5532TIP3   OH238154   3.892   2.607   6.548  0.8148 -0.4579  0.0969
 5532TIP3    H138155   3.922   2.614   6.639  0.0152 -1.4673  0.4746
 5532TIP3    H238156   3.840   2.526   6.548 -0.2289  0.2025 -0.9701
 5533TIP3   OH238157   5.759   6.302   7.893 -0.0149 -0.0998  0.6714
 5533TIP3    H138158   5.775   6.224   7.839 -2.3814 -0.4267  0.3303
 5533TIP3    H238159   5.763   6.375   7.831  4.4487  0.4833  1.3298
 5534TIP3   OH238160   1.089   0.874   1.543  0.1123 -0.1998  0.1071
 5534TIP3    H138161   1.150   0.900   1.612  1.1314  0.6449 -1.0581
 5534TIP3    H238162   1.135   0.805   1.495  0.7433  1.2844 -1.5340
 5535TIP3   OH238163   1.132   3.977   7.447  0.2047 -0.3654  0.8046
 5535TIP3    H138164   1.217   4.022   7.449 -0.7728  2.0039 -2.4157
 5535TIP3    H238165   1.131   3.925   7.527  3.8163  1.0746  2.0144
 5536TIP3   OH238166   3.125   3.979   0.877 -0.1123  0.1551 -0.9934
 5536TIP3    H138167   3.179   4.031   0.818  1.2912  0.2585  0.3051
 5536TIP3    H238168   3.102   3.901   0.826  1.2624  0.1256 -1.6128
 5537TIP3   OH238169   0.908   0.074   6.787  1.0001 -0.1905  0.0835
 5537TIP3    H138170   0.855   0.031   6.854  1.5827  1.6318  1.7780
 5537TIP3    H238171   0.849   0.081   6.712 -1.4084  2.0992  2.0097
 5538TIP3   OH238172   6.996   1.675   6.525 -0.2915 -0.0430 -0.3025
 5538TIP3    H138173   7.048   1.645   6.451 -2.4405  0.4054 -2.1062
 5538TIP3    H238174   7.054   1.734   6.573  1.3152 -0.7262 -1.3173
 5539TIP3   OH238175   4.681   6.024   6.997  0.0240 -0.8345 -0.2554
 5539TIP3    H138176   4.664   6.118   6.987  2.4236 -0.4600 -1.4999
 5539TIP3    H238177   4.642   5.984   6.919 -1.1631 -0.9513  0.3654
 5540TIP3   OH238178   3.651   6.703   0.371 -0.4688 -1.1319 -0.5692
 5540TIP3    H138179   3.676   6.769   0.436  0.2744 -1.0758 -0.8959
 5540TIP3    H238180   3.706   6.627   0.391  0.3581 -0.8401 -1.6027
 5541TIP3   OH238181   6.696   5.980   7.239 -0.1328  0.0136  0.4580
 5541TIP3    H138182   6.640   6.006   7.165 -1.0009  0.4324  1.2423
 5541TIP3    H238183   6.706   6.060   7.291  0.2740 -0.3335  0.9246
 5542TIP3   OH238184   4.709   4.359   6.882 -0.1153  0.7768  0.2084
 5542TIP3    H138185   4.661   4.405   6.951 -0.5898  1.2467 -0.4220
 5542TIP3    H238186   4.647   4.294   6.850  0.2109  0.3563  0.4250
 5543TIP3   OH238187   4.231   3.255   1.087  0.8568  0.0560 -0.3251
 5543TIP3    H138188   4.318   3.214   1.083 -0.1224 -2.1710 -0.6041
 5543TIP3    H238189   4.226   3.291   1.175  1.3701 -1.5572  0.4122
 5544TIP3   OH238190   3.698   5.972   1.341  0.3561 -0.4212  0.4660
 5544TIP3    H138191   3.728   6.008   1.425  0.9219  3.2509 -1.1494
 5544TIP3    H238192   3.778   5.957   1.291 -0.0683  0.7872 -0.6299
 5545TIP3   OH238193   4.287   6.595   0.619  0.3013  0.3828  0.2714
 5545TIP3    H138194   4.272   6.632   0.532 -0.2015  1.4626  0.7924
 5545TIP3    H238195   4.264   6.503   0.610  2.0331  0.0459 -1.1898
 5546TIP3   OH238196   6.510   4.666   6.847 -0.1132  0.1380  0.3335
 5546TIP3    H138197   6.464   4.729   6.791  0.5998  0.4508  0.0942
 5546TIP3    H238198   6.461   4.585   6.837 -1.1436  0.6724  0.7555
 5547TIP3   OH238199   2.013   6.963   6.785 -0.2029  0.0089  0.0113
 5547TIP3    H138200   1.944   6.989   6.724 -0.7621 -0.8260  0.2670
 5547TIP3    H238201   2.087   7.019   6.763 -0.5177 -0.0292 -1.1995
 5548TIP3   OH238202   6.374   6.984   0.225  0.4622 -0.2489 -0.4561
 5548TIP3    H138203   6.436   7.011   0.293  1.1325 -1.2592 -0.6457
 5548TIP3    H238204   6.290   7.020   0.253  0.6772 -0.8447  1.0159
 5549TIP3   OH238205   0.121   3.829   7.361  0.1271 -0.2162  0.0890
 5549TIP3    H138206   0.124   3.815   7.456  0.4838  0.9127  0.2558
 5549TIP3    H238207   0.185   3.767   7.326  0.1755 -0.4625  0.5996
 5550TIP3   OH238208   5.914   2.564   6.229 -0.0858  1.4349  1.0302
 5550TIP3    H138209   5.941   2.508   6.155  3.2489  3.1736  0.7504
 5550TIP3    H238210   5.884   2.502   6.296  0.8144 -0.4996 -0.2569
 5551TIP3   OH238211   2.534   1.688   1.403  0.4348 -0.0981  0.4833
 5551TIP3    H138212   2.560   1.611   1.352 -0.6811  0.4869 -1.0568
 5551TIP3    H238213   2.611   1.745   1.403  0.8831 -0.6946  0.6262
 5552TIP3   OH238214   3.516   0.397   1.164 -0.2228 -0.3417  0.4224
 5552TIP3    H138215   3.428   0.426   1.139 -0.0062 -2.4222 -3.4793
 5552TIP3    H238216   3.501   0.318   1.216 -0.5919  0.7723  2.1052
 5553TIP3   OH238217   1.185   1.175   0.838  0.1119  0.3030  0.2181
 5553TIP3    H138218   1.113   1.231   0.808 -0.1895 -1.2414 -2.2846
 5553TIP3    H238219   1.192   1.108   0.770  1.5411 -1.7328  2.2481
 5554TIP3   OH238220   2.541   3.461   6.583 -0.0615 -0.0821  0.3560
 5554TIP3    H138221   2.586   3.439   6.502  0.2085  2.0916 -0.1507
 5554TIP3    H238222   2.602   3.518   6.630 -1.3329  1.0214  0.7332
 5555TIP3   OH238223   5.840   5.981   0.725 -0.3704  0.3460  0.6078
 5555TIP3    H138224   5.933   5.981   0.703 -0.1175 -0.3505  1.5991
 5555TIP3    H238225   5.836   6.014   0.815 -1.1299  0.8001  0.4177
 5556TIP3   OH238226   6.384   0.732   1.709 -0.2245 -0.3409  0.5680
 5556TIP3    H138227   6.321   0.782   1.761  0.9715  0.7283  1.0423
 5556TIP3    H238228   6.375   0.769   1.620  0.2184  0.3018  0.7853
 5557TIP3   OH238229   6.071   3.869   6.698 -0.4103 -0.5371  0.1282
 5557TIP3    H138230   6.066   3.923   6.619  0.1646 -2.5521 -1.3773
 5557TIP3    H238231   6.148   3.901   6.744  0.9031 -1.0963 -1.5816
 5558TIP3   OH238232   3.276   3.568   6.217 -0.1036  0.4207 -0.0496
 5558TIP3    H138233   3.350   3.626   6.201  0.7162 -0.2526  1.1372
 5558TIP3    H238234   3.286   3.541   6.309 -0.7986 -1.0761 -0.3799
 5559TIP3   OH238235   6.110   0.185   6.340 -0.5141  0.1122 -0.3587
 5559TIP3    H138236   6.077   0.122   6.276 -2.3609 -1.0774  1.6162
 5559TIP3    H238237   6.124   0.133   6.419  0.7745  1.6901  0.5109
 5560TIP3   OH238238   4.902   2.827   0.182  0.0611 -0.3992 -0.4254
 5560TIP3    H138239   4.810   2.851   0.168  0.2035 -0.5188 -1.6256
 5560TIP3    H238240   4.944   2.908   0.208  0.3366  0.5669 -3.4756
 5561TIP3   OH238241   2.952   2.770   0.453  0.2875 -0.1889  0.5466
 5561TIP3    H138242   3.026   2.740   0.401 -1.2496 -0.9766 -1.3449
 5561TIP3    H238243   2.944   2.863   0.432 -0.3387 -0.5063 -0.7377
 5562TIP3   OH238244   4.464   6.601   0.832  0.4898 -0.1771 -0.1382
 5562TIP3    H138245   4.389   6.612   0.773 -1.3708  1.4284  2.3241
 5562TIP3    H238246   4.499   6.689   0.843  0.9410 -0.4772  0.9208
 5563TIP3   OH238247   0.551   3.076   0.005  0.3244  0.4000 -0.0046
 5563TIP3    H138248   0.587   3.139  -0.057  0.3701 -1.2406 -1.7650
 5563TIP3    H238249   0.544   2.995  -0.046 -0.1144 -0.9035  2.0317
 5564TIP3   OH238250   4.652   5.192   7.205  0.1388 -0.0905  0.0102
 5564TIP3    H138251   4.644   5.262   7.140 -1.1218  0.6019  0.8762
 5564TIP3    H238252   4.563   5.177   7.235  0.4291 -1.9052  0.0453
 5565TIP3   OH238253   3.535   7.086   7.110 -0.1761  0.5415 -0.5906
 5565TIP3    H138254   3.499   7.019   7.052 -1.1817  0.1194  0.4910
 5565TIP3    H238255   3.479   7.085   7.187 -0.4930  2.9383 -0.7034
 5566TIP3   OH238256   3.715   5.977   6.990  0.2851  0.4238 -0.2517
 5566TIP3    H138257   3.734   6.070   7.003 -0.1222  0.3321  1.1328
 5566TIP3    H238258   3.755   5.934   7.065  0.9083 -0.5936 -1.1476
 5567TIP3   OH238259   0.109   3.619   1.001  0.3104  0.1083  0.1177
 5567TIP3    H138260   0.156   3.640   0.920  0.7456 -1.7646 -0.1482
 5567TIP3    H238261   0.077   3.530   0.988 -1.8555  0.6747  0.9935
 5568TIP3   OH238262   6.812   4.285   0.330 -0.6370  0.1774  0.1909
 5568TIP3    H138263   6.799   4.349   0.401  1.8617  0.5653  0.3954
 5568TIP3    H238264   6.849   4.208   0.374 -1.7965 -0.7096 -0.3336
 5569TIP3   OH238265   2.417   4.108   1.204  0.2518 -0.0304  0.0928
 5569TIP3    H138266   2.406   4.093   1.111 -1.2483  1.8371 -0.0942
 5569TIP3    H238267   2.359   4.044   1.246 -0.6585  0.4645 -0.3744
 5570TIP3   OH238268   2.369   5.996   0.151  0.1158  0.3315  0.0260
 5570TIP3    H138269   2.303   5.929   0.167  1.5752 -1.3044 -0.5323
 5570TIP3    H238270   2.399   5.980   0.061  0.9403  1.3427  0.0904
 5571TIP3   OH238271   4.937   0.471   0.920 -0.2797 -0.1857  0.2264
 5571TIP3    H138272   4.866   0.519   0.878 -0.7894 -1.0562  0.0558
 5571TIP3    H238273   5.017   0.517   0.893 -0.6804 -0.0697 -0.7989
 5572TIP3   OH238274   2.067   3.418   7.287  0.5020 -0.2926 -0.1233
 5572TIP3    H138275   1.989   3.363   7.295  0.9762 -0.9781 -0.1621
 5572TIP3    H238276   2.037   3.495   7.238 -0.6948  0.5359  1.7946
 5573TIP3   OH238277   1.610   6.882   0.038 -0.1681 -0.1213  0.3529
 5573TIP3    H138278   1.641   6.929   0.116 -1.2450 -0.6676  1.1428
 5573TIP3    H238279   1.679   6.819   0.019  0.1720  0.1151  0.7699
 5574TIP3   OH238280   3.091   6.373   1.348 -0.1272  0.3628  0.2845
 5574TIP3    H138281   3.063   6.411   1.264 -0.8589 -0.4850  0.1309
 5574TIP3    H238282   3.171   6.324   1.327  0.0065  0.6100  0.2044
 5575TIP3   OH238283   1.238   6.395   7.348  0.2498 -0.3698  0.3268
 5575TIP3    H138284   1.160   6.450   7.340  0.5897  0.3726  1.6655
 5575TIP3    H238285   1.301   6.434   7.288  0.9136  1.5832  2.1442
 5576TIP3   OH238286   4.548   2.083   0.177  0.1323  0.1361  0.0042
 5576TIP3    H138287   4.523   2.116   0.091  0.2292 -1.5223 -0.7010
 5576TIP3    H238288   4.643   2.092   0.180  0.2164 -0.5284 -0.4044
 5577TIP3   OH238289   5.986   5.348   6.385 -0.2430 -0.3448  0.2577
 5577TIP3    H138290   5.891   5.347   6.392 -0.3362  0.4351 -0.6246
 5577TIP3    H238291   6.005   5.422   6.327  0.8496 -1.0472 -0.3170
 5578TIP3   OH238292   6.043   2.232   1.080 -0.3692  0.2443 -0.3448
 5578TIP3    H138293   6.128   2.244   1.039 -0.0689  0.0956  0.2232
 5578TIP3    H238294   5.996   2.314   1.063 -0.4826 -0.0354 -1.4960
 5579TIP3   OH238295   3.494   1.203   7.926 -0.3155  0.1552  0.2967
 5579TIP3    H138296   3.527   1.265   7.991 -0.4584  0.7170 -0.1589
 5579TIP3    H238297   3.400   1.221   7.921 -0.2146  0.5104 -0.4721
 5580TIP3   OH238298   6.798   0.450   7.456 -0.0956  0.0629  0.2060
 5580TIP3    H138299   6.710   0.449   7.496 -0.2545  2.2896  0.0697
 5580TIP3    H238300   6.802   0.534   7.411  1.9689 -0.1995 -0.1861
 5581TIP3   OH238301   5.437   3.067   1.272 -0.2240 -0.2029 -0.3022
 5581TIP3    H138302   5.394   3.087   1.189 -1.4812 -2.1690 -0.1919
 5581TIP3    H238303   5.521   3.028   1.246 -0.2071  0.0481 -0.6306
 5582TIP3   OH238304   1.950   4.783   1.707  0.4743 -0.2643 -0.6123
 5582TIP3    H138305   1.919   4.699   1.673 -0.9922 -1.0852  2.3949
 5582TIP3    H238306   1.874   4.840   1.704  1.3955  0.9690 -2.3843
 5583TIP3   OH238307   2.652   6.733   6.126 -0.5189 -0.3435  0.3003
 5583TIP3    H138308   2.665   6.819   6.086  0.0761 -0.5925 -0.0593
 5583TIP3    H238309   2.598   6.750   6.203 -1.8675  0.1073 -0.7236
 5584TIP3   OH238310   4.444   6.146   1.445 -0.5149  0.4821  0.1484
 5584TIP3    H138311   4.480   6.064   1.410 -0.7263  0.6960 -0.5756
 5584TIP3    H238312   4.436   6.203   1.369  1.0149  1.7096  0.8569
 5585TIP3   OH238313   2.666   7.100   0.849 -0.1327 -0.0821  0.1186
 5585TIP3    H138314   2.666   7.172   0.785  0.7012 -1.1805 -1.1563
 5585TIP3    H238315   2.757   7.095   0.878 -0.2557 -0.4138  0.4403
 5586TIP3   OH238316   5.325   4.643   7.691 -0.4022  0.1739  0.2125
 5586TIP3    H138317   5.376   4.614   7.616 -2.4325 -0.4495 -0.9968
 5586TIP3    H238318   5.338   4.575   7.757 -0.4799 -0.4857 -0.4470
 5587TIP3   OH238319   2.088   3.071   0.399 -0.5944 -0.6737 -0.3106
 5587TIP3    H138320   2.130   2.997   0.355  1.2059  0.2643 -0.2310
 5587TIP3    H238321   2.159   3.115   0.446 -1.4849  1.5074 -0.9107
 5588TIP3   OH238322   5.420   2.400   0.294 -0.0207  0.2385 -0.9474
 5588TIP3    H138323   5.334   2.360   0.283 -0.3816  0.9219 -0.7136
 5588TIP3    H238324   5.444   2.383   0.385 -0.6308  1.3900 -0.5503
 5589TIP3   OH238325   6.957   4.333   6.590  0.1801 -0.4330 -0.1171
 5589TIP3    H138326   6.992   4.387   6.519  0.6317 -0.9884 -0.3221
 5589TIP3    H238327   7.027   4.330   6.655 -0.1275 -0.1588  0.2376
 5590TIP3   OH238328   1.005   5.178   7.125 -0.7973 -0.0968  0.9562
 5590TIP3    H138329   0.942   5.123   7.079 -0.3918  1.1277 -1.2323
 5590TIP3    H238330   1.088   5.164   7.078 -0.4120  1.3974  1.1342
 5591TIP3   OH238331   4.503   4.498   1.862 -0.4168 -0.0082  0.5350
 5591TIP3    H138332   4.529   4.416   1.904 -0.1690 -0.1179  0.1720
 5591TIP3    H238333   4.438   4.536   1.922  0.1019 -0.0436  1.1282
 5592TIP3   OH238334   0.718   6.516   8.005 -0.2480  0.3624 -0.3396
 5592TIP3    H138335   0.795   6.467   8.034 -1.6191 -0.4272  2.3094
 5592TIP3    H238336   0.743   6.553   7.921  2.6950 -0.5836  0.0133
 5593TIP3   OH238337   3.036   4.759   0.703  0.1418 -0.0690 -0.1364
 5593TIP3    H138338   3.083   4.746   0.785  1.0057  3.6347  0.1459
 5593TIP3    H238339   2.947   4.781   0.729 -0.6894 -2.7015 -0.4804
 5594TIP3   OH238340   1.603   4.664   0.774 -0.1580  0.1063 -0.3456
 5594TIP3    H138341   1.582   4.580   0.733  0.8048  0.0325 -0.6962
 5594TIP3    H238342   1.528   4.682   0.832 -0.6548 -0.6860 -0.7315
 5595TIP3   OH238343   1.637   4.857   6.579 -0.0638  0.2180  0.2913
 5595TIP3    H138344   1.661   4.805   6.502  0.4162 -0.7010  1.0461
 5595TIP3    H238345   1.685   4.939   6.569  2.5614 -1.1053  1.1745
 5596TIP3   OH238346   2.952   3.509   6.241 -0.7126  0.1101  0.5651
 5596TIP3    H138347   3.043   3.523   6.265 -0.7506 -0.5320  1.1205
 5596TIP3    H238348   2.920   3.596   6.216  0.4702  0.0825 -1.1981
 5597TIP3   OH238349   2.046   4.958   6.038 -0.4083 -0.6335  0.0038
 5597TIP3    H138350   2.122   4.984   5.985  0.1235  1.7522  1.7710
 5597TIP3    H238351   1.977   5.021   6.013 -1.0509 -1.2649  0.1479
 5598TIP3   OH238352   5.744   2.785   6.340 -0.7160 -0.0171 -0.4510
 5598TIP3    H138353   5.826   2.742   6.317 -1.1594 -1.0217 -0.1906
 5598TIP3    H238354   5.767   2.844   6.412 -0.2185 -0.2813 -0.3882
 5599TIP3   OH238355   5.396   1.208   1.209 -0.3081  0.1354  0.1765
 5599TIP3    H138356   5.460   1.143   1.239 -0.3437  0.6512  1.4552
 5599TIP3    H238357   5.313   1.178   1.246 -0.8185 -0.4780 -1.3914
 5600TIP3   OH238358   1.818   0.746   1.580  0.4581  0.4318  0.2956
 5600TIP3    H138359   1.761   0.732   1.504  0.7067 -1.4678  0.4106
 5600TIP3    H238360   1.770   0.809   1.634 -0.4378  0.6491 -0.7051
 5601TIP3   OH238361   5.346   1.285   1.651  0.0283 -0.2702  0.4015
 5601TIP3    H138362   5.281   1.306   1.584 -0.4490  0.0285  0.9462
 5601TIP3    H238363   5.296   1.242   1.720  0.2574  0.7065  1.1913
 5602TIP3   OH238364   5.309   0.605   7.288 -0.3634  0.0042 -0.5894
 5602TIP3    H138365   5.266   0.688   7.267  0.0953  0.2247 -0.6568
 5602TIP3    H238366   5.318   0.606   7.384  1.0346  0.7329 -0.7054
 5603TIP3   OH238367   4.462   5.679   7.539 -0.4073 -0.2663 -0.3235
 5603TIP3    H138368   4.414   5.601   7.566 -0.2178  0.2084  1.5534
 5603TIP3    H238369   4.554   5.657   7.553 -0.3191  0.0942 -0.3299
 5604TIP3   OH238370   3.267   1.016   0.778 -0.1071 -0.7720 -0.1059
 5604TIP3    H138371   3.201   1.083   0.764  0.8814 -0.0799 -1.6311
 5604TIP3    H238372   3.269   1.004   0.873 -0.0903  1.5857  0.2341
 5605TIP3   OH238373   2.150   4.651   2.217  0.2459  0.4787 -0.2170
 5605TIP3    H138374   2.180   4.597   2.290 -2.3396 -1.0712 -0.1806
 5605TIP3    H238375   2.171   4.600   2.139  0.6252  0.9094 -0.4030
 5606TIP3   OH238376   4.892   5.555   7.070  0.2560  0.0498  0.6674
 5606TIP3    H138377   4.892   5.640   7.026  0.8606 -0.1621  0.2497
 5606TIP3    H238378   4.810   5.554   7.120  1.0673  1.6350  2.1648
 5607TIP3   OH238379   4.992   0.770   1.356 -0.1191 -0.5166 -0.0465
 5607TIP3    H138380   4.908   0.761   1.311 -0.7489 -2.0954  1.2914
 5607TIP3    H238381   5.046   0.699   1.321  1.5607  1.8358 -2.5503
 5608TIP3   OH238382   5.818   0.898   5.824 -0.1446 -0.1313  0.0332
 5608TIP3    H138383   5.735   0.940   5.847  0.9735  1.5398  1.2018
 5608TIP3    H238384   5.847   0.855   5.904  0.4222 -0.1773 -0.1890
 5609TIP3   OH238385   3.068   4.432   0.667  0.5807 -0.5875 -0.3880
 5609TIP3    H138386   3.047   4.522   0.642 -0.9685 -0.9157 -0.3410
 5609TIP3    H238387   3.011   4.414   0.742  0.4286 -1.8015 -0.7742
 5610TIP3   OH238388   0.252   5.927   0.656  0.1637  0.5802 -0.5287
 5610TIP3    H138389   0.169   5.975   0.665 -0.3252 -0.2807 -0.3149
 5610TIP3    H238390   0.272   5.933   0.562 -0.6243  0.0394 -0.7456
 5611TIP3   OH238391   5.899   2.718   1.014 -0.5406  0.1422  0.4034
 5611TIP3    H138392   5.964   2.778   1.051  0.8012 -0.8644 -0.2352
 5611TIP3    H238393   5.883   2.654   1.084 -0.7966  0.3420  0.5305
 5612TIP3   OH238394   0.123   1.818   0.066 -0.0381 -0.2897 -0.2642
 5612TIP3    H138395   0.170   1.801   0.148  1.2248 -0.9862 -1.1083
 5612TIP3    H238396   0.034   1.785   0.083  0.0841 -0.0321  0.9555
 5613TIP3   OH238397   5.841   3.204   6.160  0.1786  0.1979 -0.6742
 5613TIP3    H138398   5.782   3.254   6.103 -0.2954  0.6521  0.1976
 5613TIP3    H238399   5.802   3.117   6.166 -0.6617  0.6286  0.2645
 5614TIP3   OH238400   3.324   7.141   1.413 -0.3190 -0.4523 -0.1157
 5614TIP3    H138401   3.349   7.051   1.395  1.5327 -0.3239  1.5325
 5614TIP3    H238402   3.257   7.135   1.482 -2.7023 -0.6303 -2.2703
 5615TIP3   OH238403   5.418   1.643   6.463  0.2921  0.1360 -0.3045
 5615TIP3    H138404   5.481   1.587   6.509  0.3018  0.7230  0.4209
 5615TIP3    H238405   5.409   1.720   6.520 -1.0705  0.0615 -0.3893
 5616TIP3   OH238406   6.039   6.532   7.238  0.1238 -0.2875 -0.2468
 5616TIP3    H138407   5.965   6.497   7.188 -1.1820  1.6673  0.2346
 5616TIP3    H238408   6.076   6.600   7.181 -0.1995  0.6478  0.6310
 5617TIP3   OH238409   1.622   2.223   6.445  0.0498  0.4977  0.3825
 5617TIP3    H138410   1.598   2.208   6.536 -2.1762 -0.2515 -0.2700
 5617TIP3    H238411   1.583   2.307   6.422  0.7510  0.7688  0.1608
 5618TIP3   OH238412   5.013   2.639   0.347 -0.5197  0.6475 -0.3063
 5618TIP3    H138413   5.095   2.678   0.376  1.1252 -1.5582 -1.6508
 5618TIP3    H238414   4.978   2.701   0.283  0.8042  1.0168 -0.6992
 5619TIP3   OH238415   5.393   3.495   6.598 -0.1254 -0.5084  0.5320
 5619TIP3    H138416   5.355   3.462   6.517  2.8592 -2.6846 -0.1860
 5619TIP3    H238417   5.470   3.545   6.570  0.0297  0.1408  1.9995
 5620TIP3   OH238418   3.847   3.463   1.003  0.5697 -0.8315  0.1891
 5620TIP3    H138419   3.909   3.501   0.940 -1.0203  1.1426 -0.2812
 5620TIP3    H238420   3.834   3.532   1.069 -1.0196 -1.2316  0.3358
 5621TIP3   OH238421   1.496   4.450   6.632 -0.1456  0.1006 -0.1296
 5621TIP3    H138422   1.453   4.441   6.547 -2.9068 -0.8160  1.2379
 5621TIP3    H238423   1.551   4.372   6.639 -0.3541 -0.1180 -0.8262
 5622TIP3   OH238424   1.948   5.241   2.353 -0.3218  0.2999 -0.7707
 5622TIP3    H138425   2.009   5.196   2.294 -0.5405 -0.0091 -0.7625
 5622TIP3    H238426   2.004   5.301   2.403 -0.0208  0.0298 -0.7732
 5623TIP3   OH238427   4.866   4.670   6.688 -0.3184 -0.7587 -0.5015
 5623TIP3    H138428   4.883   4.686   6.595  0.1847 -2.0187 -0.6390
 5623TIP3    H238429   4.772   4.654   6.693 -1.0835  2.8247 -0.2311
 5624TIP3   OH238430   0.784   2.930   0.944  0.1443  0.8366 -0.2622
 5624TIP3    H138431   0.855   2.975   0.989  1.1811 -1.6768  0.8250
 5624TIP3    H238432   0.704   2.967   0.982  0.9608  0.6859  1.6975
 5625TIP3   OH238433   5.851   0.703   0.304 -0.2256 -0.0041 -0.5462
 5625TIP3    H138434   5.811   0.616   0.316 -1.4965  0.6252 -0.0917
 5625TIP3    H238435   5.857   0.739   0.392  1.2589 -0.0184 -0.6195
 5626TIP3   OH238436   3.689   4.150   0.121  0.1125 -0.4119  0.3960
 5626TIP3    H138437   3.706   4.242   0.141 -0.8711 -0.1953  0.2765
 5626TIP3    H238438   3.772   4.117   0.086  0.5410  0.3601  0.6609
 5627TIP3   OH238439   1.475   3.857   0.060 -0.7073  0.4469 -0.0382
 5627TIP3    H138440   1.511   3.945   0.059 -1.0038  0.5639 -0.3763
 5627TIP3    H238441   1.541   3.803   0.015 -0.2562  0.3844  0.6756
 5628TIP3   OH238442   2.183   0.754   6.224 -0.4299 -0.3023  0.1317
 5628TIP3    H138443   2.249   0.754   6.154 -0.7672 -1.6343 -0.2052
 5628TIP3    H238444   2.233   0.741   6.304 -0.3676 -2.7708 -0.2581
 5629TIP3   OH238445   5.391   1.622   0.899 -0.3415  0.2593 -0.2922
 5629TIP3    H138446   5.442   1.621   0.818  1.4948  0.6776  0.7914
 5629TIP3    H238447   5.372   1.715   0.914 -2.0870  0.0555 -1.0405
 5630TIP3   OH238448   5.657   1.458   6.776 -0.3972  0.8780  0.1378
 5630TIP3    H138449   5.628   1.542   6.739  1.8737  1.4784 -0.3974
 5630TIP3    H238450   5.729   1.481   6.833  0.1088 -0.7019  0.1707
 5631TIP3   OH238451   6.288   5.461   7.505  0.0079  0.0514  0.2769
 5631TIP3    H138452   6.258   5.552   7.505  2.7977  1.0732  0.9663
 5631TIP3    H238453   6.311   5.443   7.413 -1.1345 -0.2145  0.0268
 5632TIP3   OH238454   0.625   5.573   6.027  0.5343 -0.6944 -0.2945
 5632TIP3    H138455   0.661   5.521   6.099  0.3483 -1.3544 -0.6650
 5632TIP3    H238456   0.595   5.508   5.964  1.7647 -0.1289 -1.5091
 5633TIP3   OH238457   4.882   3.967   7.874 -0.2052 -0.2736  0.0562
 5633TIP3    H138458   4.790   3.981   7.897  0.2306 -0.2666  1.9334
 5633TIP3    H238459   4.914   3.904   7.939  1.3442  0.4189  0.0075
 5634TIP3   OH238460   1.327   6.197   6.040  0.5941  0.2255  0.0533
 5634TIP3    H138461   1.371   6.230   5.961  0.7904 -0.6120 -0.2004
 5634TIP3    H238462   1.262   6.135   6.007 -1.9386  2.5707  0.3137
 5635TIP3   OH238463   1.042   4.552   7.040  0.2424 -0.1067  0.3163
 5635TIP3    H138464   0.991   4.584   7.115  0.7310 -0.1337  0.6667
 5635TIP3    H238465   1.036   4.457   7.046 -0.6674 -0.1021 -0.3477
 5636TIP3   OH238466   5.093   0.048   0.512  0.0608  0.0140 -0.0845
 5636TIP3    H138467   4.998   0.040   0.509  0.2627 -4.0627 -1.3232
 5636TIP3    H238468   5.116   0.025   0.602 -0.0934  1.3533  0.3139
 5637TIP3   OH238469   3.996   6.054   5.903  0.8240 -0.3235  0.3544
 5637TIP3    H138470   4.081   6.091   5.877  1.0110  0.8113  2.3972
 5637TIP3    H238471   4.018   5.988   5.969  0.1086  0.6383  1.5993
 5638TIP3   OH238472   2.644   6.822   1.555  0.0281 -0.1590  0.1303
 5638TIP3    H138473   2.648   6.860   1.642 -0.9918 -0.5309  0.3522
 5638TIP3    H238474   2.610   6.892   1.500 -0.0660 -0.1667  0.1789
 5639TIP3   OH238475   2.550   3.407   1.497 -0.0045 -0.1084  0.8797
 5639TIP3    H138476   2.540   3.501   1.483  0.0930 -0.2451 -0.2050
 5639TIP3    H238477   2.525   3.393   1.588  1.3891  1.1808  1.5006
 5640TIP3   OH238478   0.880   2.083   7.239 -0.6987  0.0898  0.0062
 5640TIP3    H138479   0.872   2.038   7.324 -0.7453  3.5062  1.9684
 5640TIP3    H238480   0.834   2.025   7.178 -3.4536 -1.1232  2.8874
 5641TIP3   OH238481   7.102   2.364   1.469 -0.0788 -0.5827  0.2063
 5641TIP3    H138482   7.111   2.277   1.509 -1.2809 -1.6314 -1.6641
 5641TIP3    H238483   7.017   2.396   1.500 -1.2268 -1.5944 -1.7409
 5642TIP3   OH238484   0.885   6.941   0.042  0.5776 -0.7343 -0.1522
 5642TIP3    H138485   0.916   6.972   0.127  1.0117  0.2031 -0.6337
 5642TIP3    H238486   0.791   6.956   0.044  0.7002  0.0868 -0.1435
 5643TIP3   OH238487   2.220   1.182   7.329  0.3251  0.0920 -0.3367
 5643TIP3    H138488   2.163   1.183   7.252  1.4163 -1.2588 -1.2181
 5643TIP3    H238489   2.187   1.252   7.384 -0.5950  1.0024 -1.9633
 5644TIP3   OH238490   5.686   3.489   6.031 -0.5136  0.0406 -0.0905
 5644TIP3    H138491   5.744   3.549   5.984  0.8166 -1.3737 -0.3384
 5644TIP3    H238492   5.620   3.465   5.966 -1.5828  1.8373  0.2574
 5645TIP3   OH238493   3.036   4.659   1.760 -0.0278 -0.3389  0.0699
 5645TIP3    H138494   3.123   4.692   1.782 -0.6764  1.9447 -0.5618
 5645TIP3    H238495   3.037   4.568   1.790  1.9413  0.1586  1.7568
 5646TIP3   OH238496   3.754   4.244   7.592  0.3680  0.0598  0.0821
 5646TIP3    H138497   3.723   4.202   7.672  0.0125 -0.3565 -0.2636
 5646TIP3    H238498   3.840   4.205   7.576  0.1914 -0.2807 -0.0460
 5647TIP3   OH238499   2.110   0.271   0.806  0.2900 -0.1543 -0.2429
 5647TIP3    H138500   2.017   0.269   0.782  0.5695  1.8078 -1.7727
 5647TIP3    H238501   2.110   0.264   0.902 -1.2828 -2.1148 -0.3122
 5648TIP3   OH238502   6.017   1.632   7.290  0.2783  0.4299 -0.5516
 5648TIP3    H138503   6.106   1.664   7.272  0.5294  0.0224 -0.0637
 5648TIP3    H238504   6.018   1.612   7.384 -0.6371  1.3943 -0.3076
 5649TIP3   OH238505   2.450   5.733   6.713 -0.0506 -0.7787  0.0391
 5649TIP3    H138506   2.490   5.730   6.626  1.4454 -1.5314  0.7079
 5649TIP3    H238507   2.408   5.647   6.722 -1.4592 -0.1760 -0.4615
 5650TIP3   OH238508   5.013   2.939   6.029 -0.8987 -0.4284  0.3266
 5650TIP3    H138509   4.957   2.883   5.975 -1.3839 -1.4636  1.8413
 5650TIP3    H238510   4.957   3.013   6.052 -0.4584  0.4009 -1.1519
 5651TIP3   OH238511   0.751   5.879   7.497 -0.4021 -0.2408  0.2601
 5651TIP3    H138512   0.727   5.945   7.562 -0.6292 -0.8798  0.8452
 5651TIP3    H238513   0.842   5.898   7.475 -0.6909  0.7225 -0.1502
 5652TIP3   OH238514   1.219   2.035   6.186 -0.0472  0.0846  0.5161
 5652TIP3    H138515   1.221   2.054   6.092  2.2224  0.3134  0.5662
 5652TIP3    H238516   1.311   2.033   6.213 -0.5912 -1.0463  2.5356
 5653TIP3   OH238517   2.129   2.999   0.778  0.0249 -0.2502  0.8622
 5653TIP3    H138518   2.093   3.027   0.861  0.7914 -0.9829  1.4606
 5653TIP3    H238519   2.141   3.080   0.728 -1.3271  0.1008  1.0862
 5654TIP3   OH238520   2.939   6.558   0.279 -0.5403  0.3786 -0.6332
 5654TIP3    H138521   3.027   6.519   0.282 -0.2904  0.9243 -0.8778
 5654TIP3    H238522   2.948   6.635   0.223 -1.2319  0.3030 -0.8573
 5655TIP3   OH238523   1.968   0.266   7.427  0.5087  0.2277  0.7433
 5655TIP3    H138524   1.959   0.289   7.335 -1.6700  0.2992  0.9289
 5655TIP3    H238525   1.948   0.172   7.430  2.3581 -0.1893  0.9311
 5656TIP3   OH238526   1.794   2.758   7.248 -0.2411  0.1222 -0.2418
 5656TIP3    H138527   1.778   2.848   7.274 -0.6326 -0.4247  1.5702
 5656TIP3    H238528   1.887   2.756   7.225 -0.3285  1.0650 -0.7172
 5657TIP3   OH238529   0.663   0.831   1.565  0.3169  0.0005  0.0006
 5657TIP3    H138530   0.638   0.739   1.578 -2.6865  0.4665 -1.6047
 5657TIP3    H238531   0.592   0.881   1.604  0.6835  1.6053 -1.2587
 5658TIP3   OH238532   6.699   6.683   0.266 -0.6587 -0.5639  0.8980
 5658TIP3    H138533   6.644   6.717   0.196 -0.3205  2.6184  2.0367
 5658TIP3    H238534   6.788   6.699   0.237 -0.5105  0.4991  1.8524
 5659TIP3   OH238535   2.830   5.160   0.894 -0.1494  0.2929  0.5068
 5659TIP3    H138536   2.737   5.171   0.915 -0.2176  0.1550  0.2743
 5659TIP3    H238537   2.861   5.250   0.878 -0.3524  0.2925  0.1156
 5660TIP3   OH238538   6.049   2.108   7.468 -0.9570  0.1057  0.4150
 5660TIP3    H138539   5.962   2.149   7.475 -1.6245 -0.8288 -1.6182
 5660TIP3    H238540   6.069   2.111   7.375 -0.1146 -2.2998  0.4511
 5661TIP3   OH238541   3.620   2.538   0.060  0.4285  0.3646 -0.2842
 5661TIP3    H138542   3.686   2.513   0.125 -1.6679  0.8461  2.1814
 5661TIP3    H238543   3.661   2.611   0.013  1.8597  0.3189  0.8027
 5662TIP3   OH238544   4.533   2.375   6.683  0.2418  0.0714 -0.5426
 5662TIP3    H138545   4.509   2.288   6.715 -0.7010  0.5137  0.0097
 5662TIP3    H238546   4.613   2.361   6.632  0.1465 -1.1007 -0.3991
 5663TIP3   OH238547   6.302   3.958   0.353 -0.0517  0.1178 -0.2540
 5663TIP3    H138548   6.327   3.966   0.446  3.0993 -2.5926 -0.6663
 5663TIP3    H238549   6.375   3.997   0.306 -0.2899 -0.9871 -1.5863
 5664TIP3   OH238550   4.582   3.728   1.223  0.5567  0.6087  0.1479
 5664TIP3    H138551   4.554   3.651   1.273  2.1562 -1.5374 -2.0302
 5664TIP3    H238552   4.677   3.731   1.236  0.9003  0.4632 -2.0169
 5665TIP3   OH238553   2.664   0.820   6.253  0.3828 -0.6906  0.0924
 5665TIP3    H138554   2.605   0.895   6.261  0.9915 -0.0228 -1.3937
 5665TIP3    H238555   2.751   0.859   6.243  0.9050 -1.6408  0.7197
 5666TIP3   OH238556   6.179   3.067   6.685 -0.1915 -0.0169  0.3137
 5666TIP3    H138557   6.184   3.159   6.659 -1.0119  0.4087  1.6166
 5666TIP3    H238558   6.093   3.057   6.725 -0.8924 -1.8117 -1.4712
 5667TIP3   OH238559   0.393   1.306   1.563 -0.5614 -0.5649  0.4661
 5667TIP3    H138560   0.413   1.320   1.656 -1.1366  0.7737  0.3952
 5667TIP3    H238561   0.468   1.343   1.517 -0.1396 -1.4859  0.3842
 5668TIP3   OH238562   2.011   2.937   1.406  0.0297  0.1688 -0.0353
 5668TIP3    H138563   1.955   2.995   1.355 -2.1380 -0.5158  1.4108
 5668TIP3    H238564   2.089   2.989   1.425  0.0877  1.0641 -2.3801
 5669TIP3   OH238565   4.345   4.580   6.507 -0.6926  0.1122 -0.3706
 5669TIP3    H138566   4.255   4.595   6.535 -0.3903  0.7009  0.3397
 5669TIP3    H238567   4.377   4.510   6.564 -0.3242  0.7595  0.2367
 5670TIP3   OH238568   5.404   5.951   0.610 -0.0510 -0.0443 -0.2655
 5670TIP3    H138569   5.450   5.955   0.526 -1.0161  1.1992 -0.7662
 5670TIP3    H238570   5.459   6.000   0.671 -0.4769  1.0831 -0.7627
 5671TIP3   OH238571   1.752   3.656   2.047  0.3514  0.0052  0.0182
 5671TIP3    H138572   1.801   3.575   2.056  0.7956  0.2644 -0.0183
 5671TIP3    H238573   1.808   3.712   1.994  0.1632  0.4254  0.2558
 5672TIP3   OH238574   4.667   2.919   0.090 -0.0314  0.0015 -0.5845
 5672TIP3    H138575   4.594   2.875   0.047  0.0730  0.1425 -0.9089
 5672TIP3    H238576   4.674   3.003   0.046 -0.2327  0.3548  0.0367
 5673TIP3   OH238577   4.298   2.680   6.554  0.0605 -0.0422  0.3626
 5673TIP3    H138578   4.282   2.646   6.465 -0.6889 -2.5123  1.3470
 5673TIP3    H238579   4.235   2.751   6.564  1.3016  1.4543 -1.6270
 5674TIP3   OH238580   5.527   4.972   0.234  0.7212 -0.7447 -0.4202
 5674TIP3    H138581   5.555   4.881   0.224 -0.7616 -1.2887  0.1413
 5674TIP3    H238582   5.465   4.970   0.307 -0.7668  0.3764 -1.5813
 5675TIP3   OH238583   3.285   3.366   2.158  0.8461  0.0837 -0.2769
 5675TIP3    H138584   3.342   3.337   2.228 -1.2965 -2.3747  0.6133
 5675TIP3    H238585   3.344   3.385   2.085  2.8593 -0.9645  0.9897
 5676TIP3   OH238586   4.707   7.019   6.705 -0.3123  0.5790  0.6345
 5676TIP3    H138587   4.669   6.939   6.669 -1.4745  0.5492  1.8789
 5676TIP3    H238588   4.734   7.069   6.628 -0.1270 -0.7182 -0.1815
 5677TIP3   OH238589   3.220   2.178   6.940  0.1473  0.1016  0.0653
 5677TIP3    H138590   3.178   2.123   6.874  1.3003  0.1506 -0.7438
 5677TIP3    H238591   3.164   2.171   7.017 -1.0666 -0.2016 -0.8197
 5678TIP3   OH238592   5.088   4.363   1.126 -0.6886 -0.1290  0.3836
 5678TIP3    H138593   5.145   4.373   1.203 -0.8983  0.9860  0.4161
 5678TIP3    H238594   5.125   4.423   1.061 -0.4132 -1.1889 -0.4560
 5679TIP3   OH238595   4.305   6.846   1.436 -0.3266  0.1963  0.2679
 5679TIP3    H138596   4.388   6.893   1.439 -0.4024  0.3003  0.9615
 5679TIP3    H238597   4.241   6.912   1.409 -0.0623 -0.0798 -1.0899
 5680TIP3   OH238598   6.273   5.364   6.578  0.8761  0.1554 -0.1742
 5680TIP3    H138599   6.326   5.358   6.498 -0.6135  1.6428 -1.3479
 5680TIP3    H238600   6.275   5.457   6.601 -0.7100  0.1544  0.0733
 5681TIP3   OH238601   1.200   4.927   0.842 -0.0391  0.1600  0.7441
 5681TIP3    H138602   1.144   4.943   0.766 -0.1122 -0.3749  0.6805
 5681TIP3    H238603   1.159   4.853   0.886  0.8720 -0.5214  0.4567
 5682TIP3   OH238604   0.115   0.941   6.577 -0.2609  0.0288  0.3865
 5682TIP3    H138605   0.161   0.922   6.659  0.8554 -0.4964 -0.3350
 5682TIP3    H238606   0.143   0.872   6.517 -1.0903  0.3793 -0.4348
 5683TIP3   OH238607   1.614   1.889   7.297  0.0128 -0.7824  0.1642
 5683TIP3    H138608   1.563   1.814   7.330 -0.2993 -2.0069 -2.7948
 5683TIP3    H238609   1.701   1.853   7.281  0.4456  0.0444  0.5993
 5684TIP3   OH238610   3.876   4.778   0.020 -0.2055  0.6125 -0.0701
 5684TIP3    H138611   3.796   4.815  -0.019  0.3328  1.4064 -0.4484
 5684TIP3    H238612   3.876   4.809   0.110 -0.8588 -0.2643  0.2402
 5685TIP3   OH238613   2.234   5.301   0.271 -0.3451  0.0585  0.0200
 5685TIP3    H138614   2.156   5.356   0.279 -1.7042 -2.0277  2.3960
 5685TIP3    H238615   2.275   5.306   0.358  0.6156 -1.0694 -0.3490
 5686TIP3   OH238616   4.346   1.263   1.591 -0.1104  0.0892  0.2978
 5686TIP3    H138617   4.290   1.220   1.527  0.5647 -0.4756  0.0669
 5686TIP3    H238618   4.288   1.321   1.639 -0.2118  2.6267 -2.6041
 5687TIP3   OH238619   0.352   2.940   6.805 -0.3624 -0.0104 -0.1272
 5687TIP3    H138620   0.363   2.939   6.900  1.7496  0.6516 -0.3102
 5687TIP3    H238621   0.291   2.869   6.787 -0.4770 -0.4189  1.6822
 5688TIP3   OH238622   4.993   3.784   0.756 -0.1884  0.0093  0.8759
 5688TIP3    H138623   4.963   3.764   0.845 -0.5579 -0.6034  0.6155
 5688TIP3    H238624   5.035   3.870   0.764 -0.9106  0.3149  1.4970
 5689TIP3   OH238625   6.488   2.710   6.916  0.2714  0.5932 -0.2536
 5689TIP3    H138626   6.432   2.788   6.918  0.0450  0.5302 -2.0609
 5689TIP3    H238627   6.570   2.740   6.878  0.2810  0.0133 -0.7042
 5690TIP3   OH238628   4.621   5.128   8.025 -0.1887  0.2531  0.3817
 5690TIP3    H138629   4.542   5.085   7.994  0.2832 -0.0446 -0.4561
 5690TIP3    H238630   4.676   5.135   7.947  0.0358  1.7322  0.6517
 5691TIP3   OH238631   6.096   4.060   1.036 -0.1305 -0.4877  0.6587
 5691TIP3    H138632   6.112   3.987   1.096 -1.8254 -1.2214  0.2887
 5691TIP3    H238633   6.182   4.098   1.021  0.6373 -1.6770  1.7984
 5692TIP3   OH238634   2.147   4.220   0.905  0.6358 -0.6374 -0.0394
 5692TIP3    H138635   2.115   4.163   0.835 -0.7880  2.1196 -1.8533
 5692TIP3    H238636   2.200   4.286   0.859 -0.2900  1.2277  1.4214
 5693TIP3   OH238637   4.296   0.216   6.399 -0.1760  0.2037 -0.2126
 5693TIP3    H138638   4.378   0.252   6.432  0.4310 -1.3442  0.0365
 5693TIP3    H238639   4.297   0.237   6.305  0.9213 -0.5128 -0.3815
 5694TIP3   OH238640   3.171   2.700   0.311  0.3509 -0.0253  0.3262
 5694TIP3    H138641   3.191   2.763   0.241  2.5952 -0.1259  0.8200
 5694TIP3    H238642   3.256   2.665   0.338 -0.5302 -0.7010  2.4612
 5695TIP3   OH238643   5.162   3.621   6.579  0.2918  0.5105  0.2287
 5695TIP3    H138644   5.245   3.583   6.607  1.0179 -0.0744 -2.3926
 5695TIP3    H238645   5.184   3.673   6.502 -1.5842  1.5151  0.2974
 5696TIP3   OH238646   5.334   5.565   1.523 -0.1142 -0.1302 -0.1045
 5696TIP3    H138647   5.320   5.598   1.434 -0.1692 -1.6011 -0.6739
 5696TIP3    H238648   5.261   5.600   1.573  0.3531  1.3935 -0.4078
 5697TIP3   OH238649   3.306   5.329   1.053 -0.3369 -0.2069 -0.4760
 5697TIP3    H138650   3.400   5.334   1.041 -0.2696 -0.3084 -0.0376
 5697TIP3    H238651   3.271   5.405   1.006 -0.0133 -0.0180 -0.4124
 5698TIP3   OH238652   7.033   2.126   1.286  0.0860 -0.0006  0.2297
 5698TIP3    H138653   7.126   2.133   1.263  0.2413 -0.0723  0.8231
 5698TIP3    H238654   7.001   2.052   1.235  0.1335  0.5882 -0.6727
 5699TIP3   OH238655   2.541   4.416   2.216 -0.1164 -0.2851  0.0569
 5699TIP3    H138656   2.588   4.500   2.209 -1.4681  0.5262  0.3544
 5699TIP3    H238657   2.572   4.366   2.141  1.4656  0.0726  0.4184
 5700TIP3   OH238658   3.708   4.591   1.883  0.4512  0.2520 -0.4564
 5700TIP3    H138659   3.648   4.560   1.815  1.2343 -0.1816 -0.9624
 5700TIP3    H238660   3.656   4.652   1.935 -1.6198 -2.8693  1.4448
 5701TIP3   OH238661   2.578   4.859   1.466  0.7681  0.2459 -0.1586
 5701TIP3    H138662   2.644   4.908   1.417 -0.0035  0.7502 -0.7177
 5701TIP3    H238663   2.620   4.840   1.550  1.7123  0.3299 -0.5880
 5702TIP3   OH238664   0.278   6.318   1.369  0.4977 -0.1599 -0.0649
 5702TIP3    H138665   0.228   6.237   1.365  0.1195  0.0980 -0.7478
 5702TIP3    H238666   0.212   6.387   1.364  0.8702  0.1867 -0.2259
 5703TIP3   OH238667   2.866   1.423   0.732 -0.0452  0.3828 -0.0505
 5703TIP3    H138668   2.808   1.451   0.662  0.7231  1.2099 -0.3845
 5703TIP3    H238669   2.920   1.501   0.751 -1.5956  0.8670  2.9065
 5704TIP3   OH238670   1.411   5.277   6.476  0.3458  0.4253 -0.0133
 5704TIP3    H138671   1.330   5.289   6.425  0.1147  0.3320  0.3312
 5704TIP3    H238672   1.481   5.289   6.412  0.0573  0.3933 -0.3389
 5705TIP3   OH238673   5.559   4.138   7.545 -0.5510  0.3119  0.5633
 5705TIP3    H138674   5.641   4.134   7.595  0.6167 -0.1146 -1.2845
 5705TIP3    H238675   5.575   4.205   7.478 -1.5466 -0.1257 -0.1392
 5706TIP3   OH238676   2.505   2.725   5.914  0.1769  0.1838 -0.4350
 5706TIP3    H138677   2.566   2.775   5.968 -0.4632  0.4811  0.0297
 5706TIP3    H238678   2.465   2.791   5.856  0.6307 -0.0821 -1.0683
 5707TIP3   OH238679   3.960   2.539   6.265 -0.1660  0.4742 -0.3417
 5707TIP3    H138680   3.869   2.513   6.254  0.0020 -0.6927  0.8078
 5707TIP3    H238681   3.968   2.559   6.358  0.6567  0.9606 -0.5094
 5708TIP3   OH238682   3.941   5.302   6.610  0.2480 -0.6208  0.7812
 5708TIP3    H138683   3.870   5.365   6.607 -0.0222 -0.8008  2.3762
 5708TIP3    H238684   3.980   5.305   6.523  0.5053  2.0388  0.8882
 5709TIP3   OH238685   4.459   3.980   7.905 -0.0623  0.2816 -0.3039
 5709TIP3    H138686   4.450   3.891   7.872  0.1666  0.2431 -0.2603
 5709TIP3    H238687   4.502   4.028   7.835 -1.6202  0.7509 -0.9942
 5710TIP3   OH238688   2.636   4.244   1.063  0.2179  0.3461  0.0491
 5710TIP3    H138689   2.591   4.176   1.113  0.7790  0.6898  1.0361
 5710TIP3    H238690   2.659   4.201   0.980 -1.0258 -0.1247 -0.0749
 5711TIP3   OH238691   4.637   1.950   1.720  0.3030 -0.1971  0.1061
 5711TIP3    H138692   4.692   1.983   1.648 -0.4266 -0.4441 -0.5709
 5711TIP3    H238693   4.700   1.924   1.787  0.9416  2.3955  0.6291
 5712TIP3   OH238694   5.504   7.110   0.167  0.0082  0.0827 -0.5215
 5712TIP3    H138695   5.535   7.170   0.236 -1.0553  1.7913 -1.4631
 5712TIP3    H238696   5.412   7.096   0.188 -0.3028  0.5492 -1.5296
 5713TIP3   OH238697   2.866   1.440   6.042  0.1823 -0.4682 -0.0010
 5713TIP3    H138698   2.817   1.360   6.030 -1.0878  0.5292 -1.9019
 5713TIP3    H238699   2.908   1.456   5.957  2.0007 -0.1017  0.9073
 5714TIP3   OH238700   0.458   5.089   6.989  0.0569  0.5965  0.1867
 5714TIP3    H138701   0.513   5.042   6.926  2.2427  2.2049  0.7722
 5714TIP3    H238702   0.461   5.180   6.961 -0.7347  1.0132  1.3562
 5715TIP3   OH238703   6.990   0.733   6.685 -0.1668 -0.0837  0.6824
 5715TIP3    H138704   6.905   0.691   6.698  0.6289 -2.7348 -1.5855
 5715TIP3    H238705   6.989   0.809   6.743 -3.9009 -0.2112  1.0027
 5716TIP3   OH238706   0.352   5.834   7.713  0.1632  0.2036 -0.8949
 5716TIP3    H138707   0.445   5.856   7.708 -0.0761  2.0908  1.3258
 5716TIP3    H238708   0.338   5.808   7.804 -1.4555 -0.3116 -1.2583
 5717TIP3   OH238709   3.943   2.099   1.229  0.1374  0.0247 -0.0169
 5717TIP3    H138710   4.021   2.044   1.221  0.8921  1.1442 -0.6300
 5717TIP3    H238711   3.883   2.065   1.163  0.0715 -0.8730  0.4855
 5718TIP3   OH238712   4.101   0.578   6.513 -0.5059 -0.1845 -0.7916
 5718TIP3    H138713   4.182   0.588   6.462 -1.1044 -0.0213 -1.7340
 5718TIP3    H238714   4.054   0.507   6.468 -0.9032 -0.2612 -0.2615
 5719TIP3   OH238715   6.425   3.128   1.071  0.0460 -0.4417  0.2915
 5719TIP3    H138716   6.484   3.174   1.131 -0.0939 -0.6891  0.6189
 5719TIP3    H238717   6.476   3.052   1.042 -0.0923 -0.6304  0.5389
 5720TIP3   OH238718   0.475   0.725   6.454 -0.0234  0.2089  0.0699
 5720TIP3    H138719   0.390   0.750   6.418  0.9858  1.5740 -1.5114
 5720TIP3    H238720   0.521   0.686   6.380  0.1010 -2.2780  1.3743
 5721TIP3   OH238721   3.508   1.212   6.655  0.4306 -0.3348 -0.4666
 5721TIP3    H138722   3.436   1.215   6.717  0.3872 -1.2153 -0.4658
 5721TIP3    H238723   3.469   1.180   6.574  0.6971 -0.2264 -0.6396
 5722TIP3   OH238724   0.970   1.578   1.162 -0.6708 -0.0331 -0.0688
 5722TIP3    H138725   1.045   1.635   1.179 -2.1675  1.7729  0.9310
 5722TIP3    H238726   1.008   1.491   1.153  1.4313  0.5653  1.8586
 5723TIP3   OH238727   3.581   3.915   7.780 -0.3372 -0.1046  0.0570
 5723TIP3    H138728   3.603   3.934   7.689 -1.0833 -0.8646 -0.2927
 5723TIP3    H238729   3.539   3.829   7.778 -1.0743  0.2058  1.0042
 5724TIP3   OH238730   3.142   4.889   7.867  0.4793  0.3827 -0.3615
 5724TIP3    H138731   3.126   4.967   7.813  1.8027 -0.5995 -2.2993
 5724TIP3    H238732   3.075   4.827   7.838  0.4626  0.2335 -0.0041
 5725TIP3   OH238733   5.826   0.108   0.206  0.4611 -0.5775  0.6592
 5725TIP3    H138734   5.907   0.060   0.188  0.9847  0.1150  1.1269
 5725TIP3    H238735   5.839   0.145   0.293  0.8883  2.0515 -0.4486
 5726TIP3   OH238736   3.243   1.299   8.016  0.3638 -0.2935  0.3722
 5726TIP3    H138737   3.280   1.375   8.061  1.3184 -0.5828  0.0974
 5726TIP3    H238738   3.250   1.228   8.079  0.7465 -0.4605  0.1492
 5727TIP3   OH238739   1.030   2.608   7.898  0.0015  0.2809 -0.2595
 5727TIP3    H138740   1.015   2.537   7.961 -1.0829  0.9075  0.2187
 5727TIP3    H238741   1.108   2.652   7.930  0.1685 -0.1532 -0.0544
 5728TIP3   OH238742   1.840   4.908   0.368 -0.0140 -0.5102  0.0794
 5728TIP3    H138743   1.821   4.924   0.275 -1.4730  0.9647  0.5790
 5728TIP3    H238744   1.920   4.957   0.385 -1.3738  1.7929  0.2441
 5729TIP3   OH238745   4.534   5.623   6.207  0.2012 -0.2639  0.1043
 5729TIP3    H138746   4.505   5.571   6.282  2.0870 -0.8660  0.4825
 5729TIP3    H238747   4.512   5.570   6.130 -0.3317 -0.3590  0.3184
 5730TIP3   OH238748   0.678   6.254   7.340 -0.7859  0.1950 -0.0513
 5730TIP3    H138749   0.647   6.341   7.314 -0.0030  0.6547  0.4937
 5730TIP3    H238750   0.616   6.226   7.408 -1.2413  0.1740 -0.4717
 5731TIP3   OH238751   0.444   4.199   0.704 -0.0462  0.3942  0.0263
 5731TIP3    H138752   0.491   4.269   0.659 -1.7437  0.3450 -2.0045
 5731TIP3    H238753   0.387   4.244   0.766  0.6645  0.6164  0.5325
 5732TIP3   OH238754   6.888   1.517   1.072 -0.2688  0.3194  0.1526
 5732TIP3    H138755   6.896   1.573   1.149 -0.2019  0.2440  0.1995
 5732TIP3    H238756   6.944   1.442   1.090  0.1382  0.5377 -0.1755
 5733TIP3   OH238757   0.236   1.567   1.470  0.1213 -0.3231  0.1752
 5733TIP3    H138758   0.189   1.485   1.485 -1.2997  0.6491  1.3967
 5733TIP3    H238759   0.301   1.546   1.404 -1.1666 -2.0759 -0.6122
 5734TIP3   OH238760   6.335   1.100   7.016 -0.5204 -0.4468  0.0453
 5734TIP3    H138761   6.348   1.026   6.957  1.8929 -0.0050 -0.0869
 5734TIP3    H238762   6.415   1.152   7.007 -1.3331  1.1703  1.5580
 5735TIP3   OH238763   5.108   2.841   7.578 -0.7474 -0.3357 -0.1299
 5735TIP3    H138764   5.177   2.782   7.548 -0.0746  0.0113  0.6996
 5735TIP3    H238765   5.029   2.787   7.581 -0.2674 -1.0338  0.0211
 5736TIP3   OH238766   5.931   4.554   0.645  0.2183  0.3594  0.2936
 5736TIP3    H138767   5.948   4.570   0.737  0.6323  0.4900  0.1948
 5736TIP3    H238768   5.924   4.642   0.607 -1.1888  0.3287  0.4232
 5737TIP3   OH238769   1.813   3.124   1.330  0.3868 -0.3690  0.0246
 5737TIP3    H138770   1.847   3.197   1.382 -1.9843  0.8727 -0.0266
 5737TIP3    H238771   1.790   3.163   1.246  1.5773 -1.7931 -1.0304
 5738TIP3   OH238772   2.488   1.892   6.920  0.5706  0.2144  0.8564
 5738TIP3    H138773   2.475   1.986   6.935  1.4644  0.9743 -2.4258
 5738TIP3    H238774   2.404   1.853   6.943 -1.0535  2.3514 -0.9744
 5739TIP3   OH238775   6.339   1.165   1.289 -0.3652  0.3714  0.0679
 5739TIP3    H138776   6.313   1.088   1.238  0.7459 -0.7133  1.0791
 5739TIP3    H238777   6.380   1.223   1.224 -2.3328  0.7230 -0.9360
 5740TIP3   OH238778   6.814   3.864   1.292 -0.0204 -0.3162 -0.6383
 5740TIP3    H138779   6.837   3.882   1.384  1.4793  1.5421 -1.3149
 5740TIP3    H238780   6.774   3.777   1.295 -0.7376 -0.0019  1.8798
 5741TIP3   OH238781   0.196   2.300   0.487 -0.0900 -0.0214  0.5995
 5741TIP3    H138782   0.180   2.282   0.580 -0.0214 -0.6742  0.4937
 5741TIP3    H238783   0.167   2.390   0.474 -0.8225 -0.1795  1.0858
 5742TIP3   OH238784   1.631   2.597   0.328  0.1132  0.3505  0.2266
 5742TIP3    H138785   1.628   2.528   0.395 -0.2728  0.5290  0.4010
 5742TIP3    H238786   1.539   2.614   0.309  0.2216  0.3517 -0.3037
 5743TIP3   OH238787   5.463   0.082   0.630 -0.6437 -0.0968  0.0668
 5743TIP3    H138788   5.386   0.043   0.671 -0.3014 -0.0520  0.7599
 5743TIP3    H238789   5.504   0.134   0.699 -0.4602  0.5792 -0.5315
 5744TIP3   OH238790   0.726   5.040   7.752 -0.6278  0.5696 -0.5950
 5744TIP3    H138791   0.662   5.048   7.823 -0.0173 -0.2487  0.0660
 5744TIP3    H238792   0.691   5.097   7.683 -2.0903  0.1184 -0.2787
 5745TIP3   OH238793   7.064   1.036   1.768 -0.6902 -0.4043 -0.4971
 5745TIP3    H138794   6.993   0.984   1.805  0.6046 -1.4079  0.7171
 5745TIP3    H238795   7.050   1.124   1.803 -1.5569 -0.4916 -0.6087
 5746TIP3   OH238796   0.368   6.929   0.112 -0.7489  0.0119  0.2603
 5746TIP3    H138797   0.440   6.888   0.160 -0.2108  0.1340 -0.4259
 5746TIP3    H238798   0.290   6.908   0.163 -0.0707  1.1784  1.8805
 5747TIP3   OH238799   1.546   5.934   7.713 -0.0192  0.8107  0.3167
 5747TIP3    H138800   1.566   5.866   7.777 -0.7536  0.4181  0.1411
 5747TIP3    H238801   1.626   5.944   7.662  0.4678  0.9053  1.0970
 5748TIP3   OH238802   1.609   3.538   7.722  0.7489  0.4271 -0.7515
 5748TIP3    H138803   1.558   3.477   7.667 -1.1888  1.5607 -0.3060
 5748TIP3    H238804   1.599   3.504   7.811  0.2292  1.0052 -0.5856
 5749TIP3   OH238805   5.396   1.970   1.574  0.5587 -0.3185  0.0079
 5749TIP3    H138806   5.479   2.010   1.549 -0.4832  0.5330 -2.3835
 5749TIP3    H238807   5.383   1.900   1.510 -0.8169 -0.0569 -0.0352
 5750TIP3   OH238808   1.906   1.628   0.069 -0.0256 -0.1745 -0.0792
 5750TIP3    H138809   1.993   1.668   0.064 -0.6213  1.9516  3.1330
 5750TIP3    H238810   1.897   1.602   0.161 -2.3699 -1.3597 -0.5799
 5751TIP3   OH238811   3.972   3.708   1.085 -0.2860 -0.9147  0.1016
 5751TIP3    H138812   4.063   3.709   1.055 -0.1898  0.7374  0.3652
 5751TIP3    H238813   3.958   3.795   1.122 -1.6902 -1.4718  0.9572
 5752TIP3   OH238814   2.717   4.639   7.014  0.4020 -0.4356 -0.0108
 5752TIP3    H138815   2.731   4.715   7.070 -1.1452 -0.9367  1.1419
 5752TIP3    H238816   2.623   4.640   6.995 -0.0122 -2.8658  1.3912
 5753TIP3   OH238817   1.758   5.201   6.885  0.0229 -0.1411  0.1840
 5753TIP3    H138818   1.746   5.106   6.874  0.7429 -0.3383  1.0264
 5753TIP3    H238819   1.711   5.239   6.810 -0.1971 -1.1596 -0.2214
 5754TIP3   OH238820   0.423   2.342   1.236  0.1065 -0.1056  0.2694
 5754TIP3    H138821   0.468   2.308   1.158  0.9237 -0.7294  0.9827
 5754TIP3    H238822   0.402   2.263   1.287 -2.0496  0.1453 -0.1373
 5755TIP3   OH238823   2.587   4.559   0.503  0.1920  0.5285 -0.0662
 5755TIP3    H138824   2.534   4.625   0.549  1.1785  1.6776 -0.5315
 5755TIP3    H238825   2.525   4.489   0.484 -0.9086  1.3236  0.4160
 5756TIP3   OH238826   6.014   4.592   6.323  0.1265  0.1666 -0.3313
 5756TIP3    H138827   5.943   4.581   6.260  0.3491  1.6623 -0.8891
 5756TIP3    H238828   6.063   4.510   6.319 -0.1386  0.0544 -1.7696
 5757TIP3   OH238829   3.519   0.896   0.408  0.0731  0.1962  0.6469
 5757TIP3    H138830   3.570   0.952   0.349  0.6126 -0.6863  0.2454
 5757TIP3    H238831   3.584   0.834   0.443 -1.0125 -2.5156 -1.6919
 5758TIP3   OH238832   2.617   4.381   0.762 -0.6927  0.1250 -0.0055
 5758TIP3    H138833   2.632   4.462   0.714 -2.2770 -0.2443 -1.2074
 5758TIP3    H238834   2.697   4.330   0.749 -0.3505  0.8080 -0.6581
 5759TIP3   OH238835   4.468   2.622   0.513  0.3287 -0.6109  0.2057
 5759TIP3    H138836   4.453   2.582   0.599 -3.6507 -1.2869 -0.6133
 5759TIP3    H238837   4.472   2.716   0.531  1.5143 -0.8306  1.2723
 5760TIP3   OH238838   5.600   1.312   7.663  0.2719  0.1111  0.6664
 5760TIP3    H138839   5.547   1.391   7.654  0.4215  0.0384 -1.5304
 5760TIP3    H238840   5.670   1.322   7.597 -0.2827 -2.2376 -0.3950
 5761TIP3   OH238841   0.790   2.982   0.324  0.0155 -0.2558 -0.3669
 5761TIP3    H138842   0.865   2.971   0.383 -0.6672  0.1092  0.5851
 5761TIP3    H238843   0.733   2.908   0.345  0.1405 -0.5803 -1.1504
 5762TIP3   OH238844   3.597   6.569   5.820 -0.1443  1.1150  0.4756
 5762TIP3    H138845   3.663   6.545   5.755 -3.0058  1.4777 -2.8422
 5762TIP3    H238846   3.600   6.664   5.824 -1.1123  1.2073 -0.5254
 5763TIP3   OH238847   2.853   2.482   6.571 -0.1658 -0.0346  0.7517
 5763TIP3    H138848   2.860   2.473   6.666  0.8454  1.1556  0.8186
 5763TIP3    H238849   2.835   2.393   6.539 -1.7935 -0.2498  2.1338
 5764TIP3   OH238850   2.569   5.743   6.256  0.0708 -0.1986  0.4648
 5764TIP3    H138851   2.601   5.661   6.217 -1.4849 -0.3222 -0.6419
 5764TIP3    H238852   2.478   5.749   6.227 -0.2429  1.2550  1.6534
 5765TIP3   OH238853   5.308   2.109   0.955 -0.1172 -0.5459 -0.0669
 5765TIP3    H138854   5.377   2.134   0.894 -1.0638 -0.0704 -0.9740
 5765TIP3    H238855   5.321   2.166   1.031 -0.9670  1.2758 -1.2319
 5766TIP3   OH238856   2.645   0.241   1.439 -0.3702  0.0475  0.3372
 5766TIP3    H138857   2.612   0.168   1.386  0.3615 -0.4438  0.5342
 5766TIP3    H238858   2.741   0.236   1.428 -0.3310  1.3449 -0.1308
 5767TIP3   OH238859   6.830   4.413   6.029 -0.5775  0.0261  0.3389
 5767TIP3    H138860   6.841   4.467   6.107 -2.9457  0.1031  0.6866
 5767TIP3    H238861   6.836   4.474   5.956  2.6501 -0.1807  0.2857
 5768TIP3   OH238862   6.886   2.105   0.773 -0.2878  0.3113  0.4788
 5768TIP3    H138863   6.920   2.195   0.772 -1.5217  0.7947 -1.1261
 5768TIP3    H238864   6.794   2.114   0.797 -0.6126 -0.4414 -0.4225
 5769TIP3   OH238865   6.315   6.245   7.208 -0.1127  0.0306 -0.0034
 5769TIP3    H138866   6.330   6.151   7.213  0.2234  0.1258  1.0094
 5769TIP3    H238867   6.261   6.257   7.130  0.9866 -0.8569 -0.9301
 5770TIP3   OH238868   1.219   5.547   0.424 -0.2402 -0.2802  0.5939
 5770TIP3    H138869   1.249   5.504   0.344  0.6484  0.9777  0.2247
 5770TIP3    H238870   1.124   5.547   0.418 -0.1716  1.4701 -1.3974
 5771TIP3   OH238871   7.032   6.536   6.083 -0.6371 -0.3728 -0.3925
 5771TIP3    H138872   7.012   6.625   6.055  0.9296  0.3531  0.6561
 5771TIP3    H238873   7.126   6.538   6.104 -1.1576 -1.4100  2.5627
 5772TIP3   OH238874   4.957   7.144   6.934  0.2635 -0.3937  0.8874
 5772TIP3    H138875   5.034   7.140   6.991  0.0818 -0.8213  1.1079
 5772TIP3    H238876   4.914   7.060   6.947  0.9590 -1.0866 -0.9224
 5773TIP3   OH238877   6.863   3.917   0.807 -0.3025 -0.3929 -0.2940
 5773TIP3    H138878   6.888   4.005   0.780 -0.1055 -0.1555  0.6208
 5773TIP3    H238879   6.854   3.923   0.902 -3.2559 -0.6012 -0.4643
 5774TIP3   OH238880   2.833   6.994   1.778 -0.1695 -0.1208 -0.0990
 5774TIP3    H138881   2.754   7.048   1.776  0.3057  0.5773 -0.3966
 5774TIP3    H238882   2.882   7.026   1.854  0.0174 -0.2736 -0.1558
 5775TIP3   OH238883   4.639   0.917   7.502 -0.2642  0.1594  0.4630
 5775TIP3    H138884   4.699   0.901   7.430 -1.0238 -1.4033  0.1318
 5775TIP3    H238885   4.563   0.959   7.461 -0.1381  0.4979  0.5768
 5776TIP3   OH238886   0.248   3.720   7.005  0.4787  0.5286 -0.3689
 5776TIP3    H138887   0.206   3.681   6.928  3.4302  0.0895 -1.9392
 5776TIP3    H238888   0.241   3.653   7.073  0.3617 -0.3177 -1.1974
 5777TIP3   OH238889   4.728   7.044   1.700  0.0965  0.0106  0.1458
 5777TIP3    H138890   4.719   6.972   1.763 -1.0395 -0.0851 -0.0972
 5777TIP3    H238891   4.749   7.120   1.754 -2.9291  0.3950  0.9738
 5778TIP3   OH238892   0.968   5.172   1.038  0.5998  0.5386  0.0638
 5778TIP3    H138893   1.027   5.220   0.980  0.6410  1.1451  0.5923
 5778TIP3    H238894   1.026   5.133   1.103  0.7505 -1.6675 -1.3077
 5779TIP3   OH238895   5.860   3.662   6.372  0.4884  0.2776  0.0479
 5779TIP3    H138896   5.819   3.748   6.375 -1.3222 -0.5792  1.1291
 5779TIP3    H238897   5.931   3.672   6.309 -0.8676  2.0544 -1.2939
 5780TIP3   OH238898   0.867   5.171   0.471 -0.1781  0.5565  0.4596
 5780TIP3    H138899   0.826   5.113   0.407  0.4462 -0.7287  1.1869
 5780TIP3    H238900   0.871   5.256   0.427 -1.4124  0.1433 -0.5114
 5781TIP3   OH238901   5.033   2.677   1.401 -0.0434 -0.4331 -0.7993
 5781TIP3    H138902   4.948   2.633   1.405  0.0513 -0.5748 -0.2127
 5781TIP3    H238903   5.046   2.712   1.489  1.0123 -1.3670 -0.5494
 5782TIP3   OH238904   6.153   5.472   1.080 -0.4908  0.3086  0.0484
 5782TIP3    H138905   6.216   5.429   1.138 -0.8169  0.3451  0.4361
 5782TIP3    H238906   6.176   5.565   1.085  0.8399  0.1019 -1.5559
 5783TIP3   OH238907   3.539   6.221   1.051  0.5269 -0.2309  0.0979
 5783TIP3    H138908   3.490   6.140   1.061 -0.4374  0.0296 -1.9424
 5783TIP3    H238909   3.555   6.228   0.957  1.6277  1.3600  0.3486
 5784TIP3   OH238910   4.843   1.638   1.707  0.0080  0.3802  0.6007
 5784TIP3    H138911   4.932   1.629   1.672 -0.1111  2.1427 -0.2901
 5784TIP3    H238912   4.846   1.721   1.755 -0.8252 -0.2048  1.7008
 5785TIP3   OH238913   5.665   5.963   6.639  0.1292  0.0021  0.1652
 5785TIP3    H138914   5.743   5.984   6.690  3.0270 -0.6817 -3.5301
 5785TIP3    H238915   5.623   6.047   6.622  0.5650  0.4916  1.3907
 5786TIP3   OH238916   4.289   4.899   0.664 -0.7700  0.5158 -0.5371
 5786TIP3    H138917   4.202   4.878   0.699 -0.7921  1.3222 -0.0804
 5786TIP3    H238918   4.340   4.820   0.680 -0.8721  0.7341  1.0518
 5787TIP3   OH238919   0.857   1.377   6.176 -0.6919 -0.0705  0.1467
 5787TIP3    H138920   0.862   1.423   6.092 -0.8455  0.6766  0.5392
 5787TIP3    H238921   0.772   1.332   6.173 -0.3211 -0.7543 -0.4448
 5788TIP3   OH238922   4.094   1.560   0.847 -0.4730  0.0558  0.3756
 5788TIP3    H138923   4.163   1.591   0.788 -0.5931 -0.6970 -0.1699
 5788TIP3    H238924   4.127   1.477   0.881 -1.2108 -0.4464 -0.0995
 5789TIP3   OH238925   6.586   6.405   1.110  0.2185  0.0441  0.7053
 5789TIP3    H138926   6.622   6.403   1.199  1.6061  0.0316  0.1753
 5789TIP3    H238927   6.516   6.470   1.113  1.4910  1.4376  1.3767
 5790TIP3   OH238928   5.803   5.005   6.215 -0.7521  0.1483  0.3605
 5790TIP3    H138929   5.891   4.985   6.246  0.5332  1.7932 -1.8911
 5790TIP3    H238930   5.771   4.923   6.179 -0.7136 -0.7906  2.3658
 5791TIP3   OH238931   6.895   3.771   6.149  0.1713  0.4921 -0.1611
 5791TIP3    H138932   6.988   3.795   6.154  0.5249 -0.6466 -0.8363
 5791TIP3    H238933   6.852   3.827   6.214  1.2010  1.5948 -0.3797
 5792TIP3   OH238934   4.545   4.701   0.196  0.5306  0.2595  0.0573
 5792TIP3    H138935   4.620   4.749   0.158  0.6489 -0.8804 -1.2290
 5792TIP3    H238936   4.476   4.767   0.203  1.3239  1.0900  0.2653
 5793TIP3   OH238937   3.415   3.025   7.884  0.3127  0.5561 -0.3445
 5793TIP3    H138938   3.363   2.958   7.839  1.6849 -2.5090  2.2197
 5793TIP3    H238939   3.497   3.030   7.836  1.5102 -2.2177  1.1570
 5794TIP3   OH238940   3.054   4.904   6.662  0.5466 -0.2828  0.4346
 5794TIP3    H138941   3.092   4.978   6.709  2.8000  0.4788 -2.2818
 5794TIP3    H238942   3.124   4.838   6.661 -0.5058 -1.4454  0.6036
 5795TIP3   OH238943   4.973   3.859   6.432 -0.4920  0.1181  0.2540
 5795TIP3    H138944   5.012   3.817   6.509 -2.3877  0.3693  1.4252
 5795TIP3    H238945   5.046   3.876   6.374  1.2151  1.0498  2.5389
 5796TIP3   OH238946   4.607   0.790   0.405  0.6578 -0.4867  0.1629
 5796TIP3    H138947   4.686   0.774   0.457  1.2263  0.2112 -0.4494
 5796TIP3    H238948   4.537   0.797   0.469  1.1990 -0.4863  0.7697
 5797TIP3   OH238949   6.399   2.181   1.517 -0.6217  0.3903  0.1967
 5797TIP3    H138950   6.314   2.166   1.475 -1.1139  0.3634  1.1752
 5797TIP3    H238951   6.456   2.211   1.446 -1.0562 -0.9420 -0.7722
 5798TIP3   OH238952   5.986   0.991   7.507 -0.7642 -0.2827  0.1405
 5798TIP3    H138953   6.037   0.971   7.585 -1.6945  0.6418  1.0204
 5798TIP3    H238954   5.988   1.086   7.500  1.3066 -0.3967 -2.3925
 5799TIP3   OH238955   5.936   5.064   0.376  0.2194  0.4023 -0.0883
 5799TIP3    H138956   5.864   5.071   0.314  0.2444 -2.7440 -0.6273
 5799TIP3    H238957   5.904   5.005   0.445  2.1290 -0.9104 -0.2256
 5800TIP3   OH238958   6.464   5.977   0.810 -0.3093  0.2057  0.0494
 5800TIP3    H138959   6.391   6.038   0.814  0.0567  0.6028  1.6548
 5800TIP3    H238960   6.541   6.032   0.796 -0.1620 -0.0517 -0.1527
 5801TIP3   OH238961   2.963   5.928   0.148 -0.3004  0.2487  0.2170
 5801TIP3    H138962   3.008   5.847   0.125  0.4662  0.5486  0.6371
 5801TIP3    H238963   3.011   5.963   0.224 -0.5328  1.1645 -0.0348
 5802TIP3   OH238964   2.709   4.761   6.362  0.1948 -0.0613  0.4944
 5802TIP3    H138965   2.773   4.824   6.329  1.1118 -1.8151 -1.3565
 5802TIP3    H238966   2.708   4.773   6.457  0.6189  2.3932  0.2389
 5803TIP3   OH238967   5.543   3.385   7.004  0.1282  0.0611  0.2086
 5803TIP3    H138968   5.598   3.458   6.976 -0.5789  0.0080 -1.3943
 5803TIP3    H238969   5.465   3.390   6.948 -1.2609 -0.2301  1.9835
 5804TIP3   OH238970   7.046   5.768   7.659  0.1219 -0.6523 -0.4212
 5804TIP3    H138971   7.092   5.699   7.707 -0.8647  0.4648  2.3374
 5804TIP3    H238972   6.980   5.800   7.720  0.3560  2.5427 -1.6347
 5805TIP3   OH238973   2.670   2.328   6.801  0.4838 -0.7318 -0.4864
 5805TIP3    H138974   2.608   2.254   6.800 -2.0093  1.2255 -0.7185
 5805TIP3    H238975   2.653   2.372   6.884  2.8748 -1.0585  0.2562
 5806TIP3   OH238976   3.179   5.011   0.072 -0.2052 -0.3063  0.3832
 5806TIP3    H138977   3.202   4.947   0.140 -0.5700 -2.0291 -1.0300
 5806TIP3    H238978   3.147   4.957  -0.001  1.0744  1.3931 -1.5351
 5807TIP3   OH238979   1.420   0.658   5.947 -0.4058  0.2267 -0.2281
 5807TIP3    H138980   1.348   0.678   5.886  0.4325  3.2374 -0.4211
 5807TIP3    H238981   1.499   0.688   5.901  0.6700 -0.6664  0.9684
 5808TIP3   OH238982   4.072   0.203   1.193  0.1001  0.4660  0.1288
 5808TIP3    H138983   3.985   0.185   1.229  0.5215  0.0670  0.9985
 5808TIP3    H238984   4.122   0.124   1.213  0.9262  1.0723  0.5106
 5809TIP3   OH238985   2.340   2.688   7.083  0.0762 -0.4716 -0.1191
 5809TIP3    H138986   2.298   2.612   7.042  1.2211 -1.0983 -0.1932
 5809TIP3    H238987   2.397   2.724   7.015  0.1168 -0.0170  0.1509
 5810TIP3   OH238988   5.693   4.602   1.396 -0.3412  0.5880 -0.3335
 5810TIP3    H138989   5.633   4.667   1.430  0.2774  0.6271  0.7305
 5810TIP3    H238990   5.725   4.556   1.474  0.4322  0.0818 -0.9381
 5811TIP3   OH238991   5.878   4.586   7.727  0.5103 -0.0065  0.1934
 5811TIP3    H138992   5.955   4.601   7.673  2.7113 -3.0240  2.2053
 5811TIP3    H238993   5.901   4.623   7.813 -0.8234  0.1858  0.4975
 5812TIP3   OH238994   0.922   0.358   5.943  0.5217  0.4642  0.4818
 5812TIP3    H138995   1.003   0.316   5.971  1.9033  3.7240  1.8296
 5812TIP3    H238996   0.949   0.423   5.878 -1.5482 -0.7298 -1.7626
 5813TIP3   OH238997   2.435   4.769   0.943 -0.1525  0.0846 -0.3530
 5813TIP3    H138998   2.416   4.861   0.961 -0.7629  0.0937 -1.0083
 5813TIP3    H238999   2.487   4.740   1.019 -1.3940  0.4996  0.6966
 5814TIP3   OH239000   0.922   5.518   0.428  0.7804 -0.5029 -0.4250
 5814TIP3    H139001   0.899   5.577   0.500  1.5733 -2.4163  1.5459
 5814TIP3    H239002   0.842   5.508   0.377  0.3848  1.4645 -0.2603
 5815TIP3   OH239003   2.049   2.274   7.038 -0.1110 -0.5125 -0.1382
 5815TIP3    H139004   2.003   2.304   6.959  1.4279  0.1205 -0.8386
 5815TIP3    H239005   2.100   2.199   7.009 -0.6234 -1.1584  0.6043
 5816TIP3   OH239006   0.975   1.452   7.929  0.0646 -0.3950  0.3789
 5816TIP3    H139007   0.991   1.534   7.882  1.3293 -0.2951  0.9385
 5816TIP3    H239008   0.922   1.400   7.869  0.4248  0.2968 -0.5619
 5817TIP3   OH239009   1.138   4.532   7.849 -0.4594 -0.2319 -0.2099
 5817TIP3    H139010   1.200   4.559   7.917 -0.1982  0.7956 -0.8278
 5817TIP3    H239011   1.180   4.457   7.807  0.5247  0.6488 -0.8265
 5818TIP3   OH239012   6.832   1.852   0.682  0.1421 -0.6222 -0.0619
 5818TIP3    H139013   6.744   1.884   0.701 -0.4448 -1.8501 -0.6073
 5818TIP3    H239014   6.890   1.924   0.707 -1.0427  0.3841 -0.1501
 5819TIP3   OH239015   7.092   5.925   0.043  0.3617 -0.0157  0.2070
 5819TIP3    H139016   7.040   5.966  -0.027  0.8830 -2.1296 -1.5194
 5819TIP3    H239017   7.028   5.899   0.109 -0.3678  0.3359 -0.3515
 5820TIP3   OH239018   4.358   6.000   5.985 -0.5425  0.0637  0.2285
 5820TIP3    H139019   4.341   6.047   5.903 -0.9477 -0.2294  0.1411
 5820TIP3    H239020   4.275   6.003   6.032 -0.7322 -1.0122 -0.0147
 5821TIP3   OH239021   1.418   4.331   7.018 -0.1673 -0.7556  0.4879
 5821TIP3    H139022   1.336   4.290   6.991 -0.2290  0.7025 -1.7901
 5821TIP3    H239023   1.391   4.418   7.049  0.3202 -1.0519  1.7768
 5822TIP3   OH239024   3.694   4.391   2.078 -0.4647  0.3215 -0.2417
 5822TIP3    H139025   3.676   4.473   2.031  0.1811 -0.0418 -1.1421
 5822TIP3    H239026   3.789   4.391   2.090 -0.5176 -0.0571  0.2071
 5823TIP3   OH239027   2.275   2.061   0.313  0.0662  0.5983 -0.0486
 5823TIP3    H139028   2.356   2.050   0.364  0.2011  0.7823 -0.2237
 5823TIP3    H239029   2.252   2.153   0.324 -1.0228  0.1931  1.3460
 5824TIP3   OH239030   3.804   1.954   7.945  0.0129 -0.5629 -0.0409
 5824TIP3    H139031   3.812   1.859   7.958 -0.8806 -0.9213 -1.7718
 5824TIP3    H239032   3.710   1.969   7.936  0.2793 -0.0802 -3.0818
 5825TIP3   OH239033   2.998   3.989   6.981 -0.1118 -0.4102  0.2591
 5825TIP3    H139034   3.092   3.981   6.997 -0.4490 -0.7139  2.2541
 5825TIP3    H239035   2.965   3.900   6.993 -0.6397 -0.3583 -0.7156
 5826TIP3   OH239036   0.446   5.452   1.393  0.4456  0.7414 -0.2098
 5826TIP3    H139037   0.404   5.368   1.375 -0.2773  1.2873 -1.1496
 5826TIP3    H239038   0.519   5.431   1.451 -0.2686 -0.4152  0.2882
 5827TIP3   OH239039   1.985   4.805   7.710 -0.3351  0.3364 -0.4716
 5827TIP3    H139040   1.960   4.771   7.625  1.3648  2.1440 -1.7941
 5827TIP3    H239041   1.980   4.900   7.701  1.9254  0.6594  0.6984
 5828TIP3   OH239042   6.311   2.045   7.828 -0.0200 -0.1017 -0.5068
 5828TIP3    H139043   6.302   2.114   7.763 -1.9922 -1.3857 -1.6893
 5828TIP3    H239044   6.271   2.082   7.907  0.3049  0.6279 -0.6723
 5829TIP3   OH239045   1.194   6.002   5.643 -0.2967  0.0742  0.2490
 5829TIP3    H139046   1.223   5.962   5.561  1.9983  1.5054  0.2703
 5829TIP3    H239047   1.188   6.096   5.623  0.6986  0.5052  1.7907
 5830TIP3   OH239048   3.484   5.933   1.017  0.3820  0.3238 -0.1297
 5830TIP3    H139049   3.525   5.873   0.954 -0.7622  0.0255 -0.6258
 5830TIP3    H239050   3.546   5.938   1.089  0.2701 -1.9456  0.2064
 5831TIP3   OH239051   5.966   3.627   6.630  0.2203 -0.1042  0.0897
 5831TIP3    H139052   5.935   3.639   6.540 -0.7154  0.1306  0.4261
 5831TIP3    H239053   6.018   3.706   6.648 -0.5479  0.4065  0.1261
 5832TIP3   OH239054   0.165   6.194   7.858 -0.2537  0.5895  0.2220
 5832TIP3    H139055   0.114   6.141   7.797  1.6564 -0.0280 -0.9332
 5832TIP3    H239056   0.192   6.133   7.927  0.6258  0.4141 -0.2681
 5833TIP3   OH239057   1.588   4.309   2.201  0.2845  0.5691 -0.3619
 5833TIP3    H139058   1.601   4.281   2.292 -1.2582 -0.0007 -0.2883
 5833TIP3    H239059   1.512   4.367   2.204 -1.8820 -1.9840 -1.6490
 5834TIP3   OH239060   5.815   2.958   6.538  0.8436 -0.0316 -0.0490
 5834TIP3    H139061   5.805   3.045   6.576  0.7646 -0.2116  0.3447
 5834TIP3    H239062   5.797   2.898   6.610  2.6259 -0.3760  0.1481
 5835TIP3   OH239063   1.769   7.076   6.589 -0.6536 -1.0194 -0.3732
 5835TIP3    H139064   1.685   7.113   6.616  1.2422  1.3524  3.1228
 5835TIP3    H239065   1.808   7.143   6.533 -0.2906 -1.2150 -0.3597
 5836TIP3   OH239066   5.519   1.641   0.666  0.2911  0.1335  0.5728
 5836TIP3    H139067   5.506   1.732   0.640 -1.9363 -0.4263 -0.5979
 5836TIP3    H239068   5.551   1.598   0.587  1.0689 -0.1732  1.0430
 5837TIP3   OH239069   4.190   6.416   1.343  0.1181 -0.0038 -0.5167
 5837TIP3    H139070   4.219   6.455   1.425 -1.3680 -0.3028  0.1827
 5837TIP3    H239071   4.104   6.455   1.327 -0.0565 -0.7105 -1.3914
 5838TIP3   OH239072   2.733   4.098   7.570  0.2337  0.3362 -0.3363
 5838TIP3    H139073   2.812   4.081   7.518 -0.0256 -0.7340 -0.4183
 5838TIP3    H239074   2.688   4.169   7.525  1.6391  1.6511  0.2683
 5839TIP3   OH239075   4.430   4.130   6.421 -0.2404 -0.0887  0.1236
 5839TIP3    H139076   4.356   4.069   6.421 -2.1956  2.0550 -2.2297
 5839TIP3    H239077   4.468   4.121   6.333  1.5568 -0.2471  0.8740
 5840TIP3   OH239078   2.053   3.689   0.421  0.4548 -0.0245  0.0659
 5840TIP3    H139079   2.101   3.747   0.362  0.6166 -2.5873 -2.5325
 5840TIP3    H239080   2.121   3.654   0.480  0.7753  0.4780  0.0042
 5841TIP3   OH239081   7.018   6.323   7.826 -0.2237 -0.4271 -0.1134
 5841TIP3    H139082   7.057   6.392   7.772  1.8590 -0.7897  0.8029
 5841TIP3    H239083   7.042   6.346   7.916 -0.8487 -1.5016  0.3515
 5842TIP3   OH239084   3.974   5.121   1.599  0.2207  0.0857 -0.4370
 5842TIP3    H139085   4.062   5.092   1.577  0.0839 -0.4136 -0.3378
 5842TIP3    H239086   3.924   5.040   1.610 -0.3440  0.3659 -0.8777
 5843TIP3   OH239087   2.044   4.545   0.196 -0.0892  0.5610  0.0515
 5843TIP3    H139088   1.970   4.597   0.226  0.4219  1.5979 -0.4287
 5843TIP3    H239089   2.100   4.607   0.150 -0.3286 -0.7207 -2.1588
 5844TIP3   OH239090   5.890   2.089   0.901 -0.4536  0.2644 -0.1125
 5844TIP3    H139091   5.956   2.147   0.940 -0.3674  0.5740 -0.7008
 5844TIP3    H239092   5.829   2.072   0.973  0.0918  0.2289  0.3545
 5845TIP3   OH239093   1.629   1.096   6.785 -0.2162  0.3776  0.3174
 5845TIP3    H139094   1.590   1.021   6.830  0.3199  0.7703  1.4602
 5845TIP3    H239095   1.626   1.167   6.849  1.2812  0.7288  0.0232
 5846TIP3   OH239096   6.012   0.913   7.962  0.1323  0.2210  0.6068
 5846TIP3    H139097   5.990   0.834   7.913 -0.3511  0.5198  0.3261
 5846TIP3    H239098   6.083   0.953   7.912  1.2068 -0.6466  1.4063
 5847TIP3   OH239099   2.487   7.074   1.540  0.4114 -0.8200 -0.7040
 5847TIP3    H139100   2.556   7.097   1.477  0.3374 -0.6736 -0.7325
 5847TIP3    H239101   2.521   7.103   1.625  1.0681 -2.1687 -0.4768
 5848TIP3   OH239102   2.296   4.443   7.156  0.7202 -0.6500 -1.1713
 5848TIP3    H139103   2.381   4.415   7.124  1.6225 -0.8200  1.1498
 5848TIP3    H239104   2.233   4.384   7.114  1.9468 -1.8760 -1.3391
 5849TIP3   OH239105   5.653   3.603   7.978 -0.0773 -0.7800 -0.2177
 5849TIP3    H139106   5.694   3.517   7.968 -0.5298 -1.0576  0.2594
 5849TIP3    H239107   5.566   3.584   8.013 -0.3213 -0.1492 -0.4665
 5850TIP3   OH239108   5.433   6.343   6.103 -0.4787 -0.2842 -0.1327
 5850TIP3    H139109   5.452   6.415   6.042 -1.3493  0.9033  0.9413
 5850TIP3    H239110   5.337   6.341   6.108 -0.4939 -1.8400 -0.4704
 5851TIP3   OH239111   3.533   0.406   1.862  0.0897  0.1410  0.3686
 5851TIP3    H139112   3.448   0.427   1.901 -1.0469 -1.8987 -0.8189
 5851TIP3    H239113   3.536   0.457   1.782  0.8754  1.6676  1.3332
 5852TIP3   OH239114   6.445   3.699   5.941 -0.2331 -0.0712 -0.4168
 5852TIP3    H139115   6.463   3.793   5.935 -0.2340  0.0418  1.0420
 5852TIP3    H239116   6.529   3.659   5.964 -0.6570 -0.1463  1.1516
 5853TIP3   OH239117   1.512   1.143   0.657  0.0375  0.6442 -0.0861
 5853TIP3    H139118   1.479   1.053   0.656  0.5373  0.4533 -1.3793
 5853TIP3    H239119   1.550   1.156   0.570 -0.3583  2.2412 -0.0514
 5854TIP3   OH239120   1.869   3.866   0.596  0.3047 -0.4338  0.1019
 5854TIP3    H139121   1.899   3.801   0.533 -3.4420 -2.1478 -0.1562
 5854TIP3    H239122   1.854   3.817   0.676 -0.4786  0.5698  0.5948
 5855TIP3   OH239123   7.147   1.095   0.721 -0.4889  0.1079  0.1564
 5855TIP3    H139124   7.053   1.113   0.714 -0.4974 -0.2965 -0.7869
 5855TIP3    H239125   7.153   1.014   0.772 -0.6984 -0.4244 -0.6582
 5856TIP3   OH239126   2.635   5.571   7.432  0.5496  0.2231 -0.1619
 5856TIP3    H139127   2.642   5.633   7.360  1.5521 -0.3990 -0.6329
 5856TIP3    H239128   2.719   5.526   7.432  0.6143  0.3009  1.4960
 5857TIP3   OH239129   4.574   3.253   0.902  0.1893  0.3311 -0.5323
 5857TIP3    H139130   4.528   3.304   0.968  0.7863  1.1194 -0.7087
 5857TIP3    H239131   4.626   3.191   0.952  0.3913  0.7061 -0.2709
 5858TIP3   OH239132   4.904   3.209   7.285  0.5639  0.1350  0.0350
 5858TIP3    H139133   4.844   3.199   7.212  0.5215 -1.5964  0.2573
 5858TIP3    H239134   4.946   3.123   7.294  3.6760  1.4365 -0.5917
 5859TIP3   OH239135   4.863   0.211   7.338  0.4713  0.7651  0.0600
 5859TIP3    H139136   4.829   0.283   7.392  1.8844  1.3507  0.2014
 5859TIP3    H239137   4.915   0.254   7.270  4.1667 -0.0874  2.0484
 5860TIP3   OH239138   1.273   4.926   0.013  0.8361 -0.1637 -0.4215
 5860TIP3    H139139   1.210   4.996  -0.003  0.1711 -0.3375  1.3012
 5860TIP3    H239140   1.296   4.894  -0.075 -3.1104 -1.5581 -1.1361
 5861TIP3   OH239141   6.980   1.549   1.331  0.0543 -0.3211  0.0444
 5861TIP3    H139142   7.058   1.605   1.327  0.2140 -0.5221  0.3304
 5861TIP3    H239143   6.969   1.530   1.424 -0.9903  0.6122  0.1379
 5862TIP3   OH239144   1.419   0.578   0.367  0.3348 -0.2534 -0.4382
 5862TIP3    H139145   1.485   0.518   0.400  0.2988  0.9834  2.0945
 5862TIP3    H239146   1.469   0.651   0.331  0.3425 -0.6742 -1.3134
 5863TIP3   OH239147   0.640   5.620   0.035  0.4175 -0.4199  0.4683
 5863TIP3    H139148   0.701   5.618  -0.038  0.8826  1.8061  0.6996
 5863TIP3    H239149   0.560   5.658  -0.002 -0.4911 -2.2824  0.4240
 5864TIP3   OH239150   5.790   6.875   0.778  0.2040  0.1439 -0.2927
 5864TIP3    H139151   5.766   6.954   0.730  1.9363  0.6653 -0.4009
 5864TIP3    H239152   5.756   6.803   0.725 -2.8502  0.7701  0.6333
 5865TIP3   OH239153   4.369   6.099   0.525  0.5175 -0.0298 -0.1961
 5865TIP3    H139154   4.455   6.129   0.497 -0.3538  0.0331 -3.1807
 5865TIP3    H239155   4.385   6.053   0.608  3.5029 -0.5873 -0.9632
 5866TIP3   OH239156   6.396   1.442   0.510 -0.1556  0.0769  0.7241
 5866TIP3    H139157   6.313   1.489   0.508 -0.0179  0.3043  0.4271
 5866TIP3    H239158   6.453   1.491   0.452  0.4840  0.4683  1.6500
 5867TIP3   OH239159   4.153   5.242   6.795  0.1765 -0.1236  0.2088
 5867TIP3    H139160   4.108   5.239   6.711  0.3684 -0.5053  0.1162
 5867TIP3    H239161   4.238   5.200   6.779  0.6496  0.7527  0.3350
 5868TIP3   OH239162   6.718   3.280   7.510  0.6267  0.2017  1.0449
 5868TIP3    H139163   6.764   3.244   7.435 -0.2259  0.5264  0.3485
 5868TIP3    H239164   6.630   3.244   7.504  0.5765  0.1406  1.9636
 5869TIP3   OH239165   3.175   3.278   0.006  0.3264 -0.4719 -0.4822
 5869TIP3    H139166   3.170   3.182   0.006  0.1620 -0.4826  0.6366
 5869TIP3    H239167   3.223   3.299   0.086 -1.0170  0.4233  0.1302
 5870TIP3   OH239168   5.731   4.506   0.013  0.1075  0.1698 -0.1677
 5870TIP3    H139169   5.705   4.480  -0.075 -1.6970 -0.8699  0.6169
 5870TIP3    H239170   5.772   4.428   0.050 -1.2423 -0.1848  0.6615
 5871TIP3   OH239171   3.175   3.851   6.396 -0.0620  0.0835  0.0371
 5871TIP3    H139172   3.197   3.878   6.307 -1.2888 -0.2309 -0.3798
 5871TIP3    H239173   3.217   3.765   6.406  2.1063  1.1451  0.6432
 5872TIP3   OH239174   2.405   4.605   1.292  0.6819  0.2576  0.3950
 5872TIP3    H139175   2.495   4.627   1.270  0.2067  1.4268 -0.4963
 5872TIP3    H239176   2.383   4.532   1.234  0.3064  1.5629 -1.1822
 5873TIP3   OH239177   4.835   3.271   1.261 -0.1337  0.3347 -0.1359
 5873TIP3    H139178   4.746   3.235   1.263 -0.4781  1.1932  0.3120
 5873TIP3    H239179   4.891   3.194   1.253 -0.7804 -0.4346  2.0137
 5874TIP3   OH239180   6.341   4.002   1.655 -0.1439 -0.0623 -0.2236
 5874TIP3    H139181   6.386   4.030   1.735  0.9045  0.4865 -0.9736
 5874TIP3    H239182   6.400   3.936   1.617 -1.8434 -2.2585  0.7339
 5875TIP3   OH239183   4.689   6.001   5.791 -0.5609  0.0854  0.4514
 5875TIP3    H139184   4.746   5.959   5.726 -2.2033  0.4499 -1.3269
 5875TIP3    H239185   4.647   5.928   5.836 -2.5576 -0.3496 -1.8573
 5876TIP3   OH239186   0.724   6.935   1.522  0.4676  0.0621  0.0164
 5876TIP3    H139187   0.713   6.863   1.583  0.6220  0.0648  0.0491
 5876TIP3    H239188   0.635   6.957   1.493  0.5072 -1.0000 -0.9941
 5877TIP3   OH239189   3.939   5.883   1.224  0.6772 -0.0662  0.6083
 5877TIP3    H139190   3.927   5.964   1.173 -0.6782 -1.0815 -0.7603
 5877TIP3    H239191   4.029   5.890   1.258  1.8778  0.4824 -2.3369
 5878TIP3   OH239192   5.347   3.802   0.346 -0.0701 -0.7779  0.2131
 5878TIP3    H139193   5.382   3.766   0.427  0.9800 -2.1564 -0.7919
 5878TIP3    H239194   5.252   3.808   0.360  0.1672 -0.3340  1.7528
 5879TIP3   OH239195   4.776   6.225   0.823  0.0851  0.0669  0.0818
 5879TIP3    H139196   4.799   6.291   0.888  0.0121 -1.3777  1.6670
 5879TIP3    H239197   4.685   6.244   0.801  0.0868  0.5487  0.4649
 5880TIP3   OH239198   3.696   2.048   7.235 -0.1923 -0.0204  0.2844
 5880TIP3    H139199   3.656   1.965   7.208  3.0506 -1.4330 -0.7152
 5880TIP3    H239200   3.730   2.031   7.323 -0.8153  0.7777  0.6886
 5881TIP3   OH239201   1.504   3.151   0.308 -0.0771 -0.4242  0.4090
 5881TIP3    H139202   1.567   3.093   0.264  2.9182  1.1132  2.2980
 5881TIP3    H239203   1.446   3.092   0.356  1.4931 -1.9361  0.5528
 5882TIP3   OH239204   2.038   5.846   7.612  0.2973  0.0151  0.4593
 5882TIP3    H139205   2.083   5.881   7.535 -0.3997  2.3898  1.0457
 5882TIP3    H239206   2.078   5.893   7.686 -0.9557 -0.1409  1.2633
 5883TIP3   OH239207   1.731   4.131   1.088 -0.1424 -0.1181  0.0389
 5883TIP3    H139208   1.774   4.152   1.171 -1.2718 -1.1591  0.9273
 5883TIP3    H239209   1.801   4.101   1.031  0.6777  0.7918  0.5466
 5884TIP3   OH239210   5.293   6.666   6.903 -0.1369  0.2326 -0.2602
 5884TIP3    H139211   5.386   6.680   6.883  0.3099 -1.0114  0.8124
 5884TIP3    H239212   5.247   6.704   6.828  1.2549  0.1988 -1.1792
 5885TIP3   OH239213   6.932   3.563   1.399 -0.1552  0.5568  0.1099
 5885TIP3    H139214   7.003   3.614   1.358  0.2365  1.3249  1.6680
 5885TIP3    H239215   6.854   3.587   1.350  0.3462  1.1817 -0.4072
 5886TIP3   OH239216   4.165   1.892   2.131 -0.0184 -0.8193 -0.0143
 5886TIP3    H139217   4.110   1.867   2.204  0.1484  1.3588  0.9205
 5886TIP3    H239218   4.109   1.945   2.075  0.4615 -0.6234 -0.3185
 5887TIP3   OH239219   4.689   1.198   1.164 -0.0157  0.8690 -0.3723
 5887TIP3    H139220   4.594   1.209   1.171 -0.0404  0.4481  0.0341
 5887TIP3    H239221   4.722   1.221   1.251 -0.1460 -2.8225  0.8211
 5888TIP3   OH239222   6.443   3.617   6.942  0.0423 -0.0777 -0.1648
 5888TIP3    H139223   6.366   3.567   6.917  0.4946 -0.5495 -0.6433
 5888TIP3    H239224   6.516   3.568   6.905  0.4755  1.1596 -1.0202
 5889TIP3   OH239225   0.268   5.635   6.882  0.5907 -0.2355 -0.4075
 5889TIP3    H139226   0.263   5.638   6.786 -3.8546 -0.0721 -0.3941
 5889TIP3    H239227   0.234   5.549   6.905 -0.5036  0.5307  0.9928
 5890TIP3   OH239228   0.741   2.259   6.057 -0.2924 -0.1010 -0.0697
 5890TIP3    H139229   0.761   2.352   6.067  1.0586 -0.5420  2.2092
 5890TIP3    H239230   0.692   2.236   6.136  1.0809 -1.6709  0.4019
 5891TIP3   OH239231   5.258   1.153   7.910  0.3301 -0.6294 -0.2686
 5891TIP3    H139232   5.353   1.141   7.903  0.2822 -0.7882 -0.6934
 5891TIP3    H239233   5.228   1.080   7.964  0.1872 -1.8234 -1.8772
 5892TIP3   OH239234   6.532   0.975   1.085 -0.1612  0.5999  0.2249
 5892TIP3    H139235   6.608   1.032   1.076  0.5551 -0.4017 -0.2679
 5892TIP3    H239236   6.547   0.927   1.167  0.8082 -1.0769 -0.8671
 5893TIP3   OH239237   4.563   4.926   0.389  0.2641  0.0192 -0.1304
 5893TIP3    H139238   4.494   4.986   0.417 -0.2019 -0.7473  0.4134
 5893TIP3    H239239   4.598   4.889   0.470  0.0932 -0.9222 -0.4723
 5894TIP3   OH239240   4.704   4.920   7.066  0.3441 -0.4513  0.2328
 5894TIP3    H139241   4.792   4.895   7.095  1.3730  0.6200 -1.7908
 5894TIP3    H239242   4.685   5.001   7.115 -0.1406 -1.3946  1.6817
 5895TIP3   OH239243   6.947   2.211   0.146 -0.5622  0.2647  0.2234
 5895TIP3    H139244   7.002   2.272   0.096 -0.5821  0.5190  0.5065
 5895TIP3    H239245   6.859   2.222   0.110 -0.7813  1.2038  0.9888
 5896TIP3   OH239246   0.374   4.583   6.379 -0.1672  0.7966 -0.1968
 5896TIP3    H139247   0.332   4.654   6.330  0.1124  1.6010  0.6894
 5896TIP3    H239248   0.421   4.628   6.450  2.2541 -0.0384 -1.1741
 5897TIP3   OH239249   0.356   3.533   7.838 -0.4145  0.8014  0.3971
 5897TIP3    H139250   0.319   3.619   7.815 -0.3884  1.6687  3.1438
 5897TIP3    H239251   0.368   3.538   7.933  0.2667 -2.0224  0.5304
 5898TIP3   OH239252   2.856   3.069   7.205 -0.0619  0.1290 -0.1256
 5898TIP3    H139253   2.836   3.163   7.213  2.6044  0.9950 -2.1960
 5898TIP3    H239254   2.946   3.060   7.236 -1.1725 -2.4003  2.8686
 5899TIP3   OH239255   6.003   1.023   0.898  0.9110 -0.0892 -0.1640
 5899TIP3    H139256   5.996   1.091   0.964 -0.0033  0.2791 -0.6302
 5899TIP3    H239257   6.094   1.031   0.866  0.4101  1.9772 -1.3072
 5900TIP3   OH239258   7.085   4.876   7.962  0.3626  0.5728 -0.2594
 5900TIP3    H139259   7.005   4.827   7.945  0.2416  0.7148 -0.0934
 5900TIP3    H239260   7.117   4.900   7.875 -0.4863  1.6689 -0.2867
 5901TIP3   OH239261   3.975   5.117   5.865  0.0402  0.2577  0.4064
 5901TIP3    H139262   3.988   5.102   5.958 -0.1859 -2.5905  0.0808
 5901TIP3    H239263   4.064   5.124   5.829  0.1978 -0.4296  0.6357
 5902TIP3   OH239264   1.817   2.119   7.874  0.5463  0.5141  0.4184
 5902TIP3    H139265   1.867   2.081   7.801 -1.6848 -1.7640 -0.0897
 5902TIP3    H239266   1.835   2.213   7.869  2.7356  0.1013 -1.2232
 5903TIP3   OH239267   0.363   1.941   7.349  0.3850  0.0911 -0.2824
 5903TIP3    H139268   0.320   1.877   7.292  2.7239 -2.0761  0.1731
 5903TIP3    H239269   0.316   1.934   7.432  2.1099 -3.1234  0.5897
 5904TIP3   OH239270   3.879   6.813   0.892 -0.4809  0.5972 -0.1080
 5904TIP3    H139271   3.814   6.749   0.921  1.3761 -0.8446  1.0644
 5904TIP3    H239272   3.918   6.774   0.813 -0.0711  0.7822 -0.0006
 5905TIP3   OH239273   4.830   2.709   6.961  0.2036  0.6527  0.1810
 5905TIP3    H139274   4.895   2.766   6.920  0.9556  0.1558  0.6636
 5905TIP3    H239275   4.861   2.620   6.942 -2.3112  0.2281 -2.8805
 5906TIP3   OH239276   6.046   7.004   7.245 -0.0046 -0.0865 -0.1380
 5906TIP3    H139277   6.051   7.022   7.151 -0.1325 -0.4998 -0.2262
 5906TIP3    H239278   5.969   6.948   7.254  1.2827 -1.9396 -0.0913
 5907TIP3   OH239279   6.214   1.919   0.104  0.0477 -0.2474 -0.1371
 5907TIP3    H139280   6.139   1.861   0.095  0.4002 -0.4912 -2.2162
 5907TIP3    H239281   6.185   1.989   0.162 -1.5110 -0.7500 -0.2704
 5908TIP3   OH239282   4.101   0.129   6.062 -0.4036  0.2405  0.1002
 5908TIP3    H139283   4.118   0.053   6.007  2.9932  0.5707  0.5057
 5908TIP3    H239284   4.140   0.106   6.147 -1.3128  1.5855  0.9121
 5909TIP3   OH239285   0.534   5.275   7.901  0.6785 -0.4058 -0.7022
 5909TIP3    H139286   0.472   5.348   7.903  0.6950 -0.4071 -0.1412
 5909TIP3    H239287   0.570   5.277   7.812 -0.8850 -1.0666 -1.3792
 5910TIP3   OH239288   2.661   6.975   2.209  0.3305  0.2975 -0.0733
 5910TIP3    H139289   2.666   6.905   2.274  0.9754  0.0098 -0.4189
 5910TIP3    H239290   2.574   7.012   2.221 -0.3522 -1.1132 -0.4537
 5911TIP3   OH239291   5.362   1.032   6.605  0.0259 -0.4946 -0.2816
 5911TIP3    H139292   5.393   1.032   6.515 -0.8892  1.3529 -0.6408
 5911TIP3    H239293   5.273   1.066   6.600  0.6334  1.5846  1.5089
 5912TIP3   OH239294   1.563   2.897   0.668  0.1043 -0.0485 -0.2397
 5912TIP3    H139295   1.608   2.958   0.609 -1.3586  0.4109 -0.9042
 5912TIP3    H239296   1.600   2.917   0.754  3.6366 -1.9574 -1.0970
 5913TIP3   OH239297   5.414   6.232   7.417  0.6428 -0.1677 -0.5207
 5913TIP3    H139298   5.425   6.238   7.322 -0.1160  0.4406 -0.5843
 5913TIP3    H239299   5.322   6.256   7.432  0.7107 -0.4097  0.3525
 5914TIP3   OH239300   5.157   0.956   0.024 -0.4990 -0.5915  0.4421
 5914TIP3    H139301   5.139   0.894  -0.047 -0.7023  0.9031 -0.8722
 5914TIP3    H239302   5.114   0.919   0.100 -2.7245 -0.8749 -0.8761
 5915TIP3   OH239303   5.630   3.835   0.954 -0.4021 -0.4845  0.5026
 5915TIP3    H139304   5.631   3.842   0.859  1.9824 -0.4537  0.4700
 5915TIP3    H239305   5.665   3.919   0.985 -0.0030 -0.9532  1.3535
 5916TIP3   OH239306   6.010   4.657   0.916 -0.5486 -0.5849  0.4267
 5916TIP3    H139307   6.022   4.620   1.003 -0.6564 -0.9181  0.3018
 5916TIP3    H239308   6.013   4.752   0.929  1.0002 -0.6201  0.5778
 5917TIP3   OH239309   1.112   5.471   7.065  0.2054 -0.0194  0.1135
 5917TIP3    H139310   1.186   5.501   7.013 -0.3698 -0.7547 -1.1724
 5917TIP3    H239311   1.112   5.376   7.056 -1.0501 -0.0132 -0.1438
 5918TIP3   OH239312   7.091   4.585   7.881  0.0219 -0.2164 -0.3108
 5918TIP3    H139313   7.140   4.585   7.798  0.0465  1.3032 -0.3178
 5918TIP3    H239314   7.030   4.512   7.872 -0.4933  0.3776 -1.9822
 5919TIP3   OH239315   0.605   1.448   1.437  0.4782  0.0898  0.0682
 5919TIP3    H139316   0.669   1.415   1.374 -1.0302 -0.2991 -1.3352
 5919TIP3    H239317   0.597   1.541   1.418  0.0603 -0.0172 -0.2916
 5920TIP3   OH239318   2.671   0.951   8.031  0.7269  0.3345  0.3412
 5920TIP3    H139319   2.607   0.881   8.022  0.4878  0.5513  0.3523
 5920TIP3    H239320   2.652   0.991   8.116 -0.4346  1.6984 -0.5258
 5921TIP3   OH239321   5.036   0.568   6.732  0.0326  0.4641 -0.0897
 5921TIP3    H139322   5.038   0.663   6.727 -1.4237  0.6808  1.9996
 5921TIP3    H239323   4.951   0.548   6.772  0.8826 -1.6096  0.8065
 5922TIP3   OH239324   3.099   3.097   6.901 -0.0860  0.4598  0.0719
 5922TIP3    H139325   3.033   3.074   6.967 -0.5067  1.0550 -0.1239
 5922TIP3    H239326   3.066   3.059   6.819 -1.3193  2.4789 -0.4728
 5923TIP3   OH239327   6.171   2.234   0.068 -0.0752  0.1087  0.1132
 5923TIP3    H139328   6.211   2.296   0.007 -1.3579  0.3190 -0.5568
 5923TIP3    H239329   6.085   2.215   0.029 -0.7629 -0.0667  1.6473
 5924TIP3   OH239330   4.451   2.257   8.015  0.3403 -0.4213  0.0750
 5924TIP3    H139331   4.469   2.206   7.936 -0.3439  3.1087 -2.6129
 5924TIP3    H239332   4.356   2.270   8.013  0.4872  0.8645  0.6576
 5925TIP3   OH239333   6.691   6.675   6.466  0.0807 -0.3360 -0.7466
 5925TIP3    H139334   6.654   6.611   6.406 -0.9050 -0.5304  0.0398
 5925TIP3    H239335   6.754   6.626   6.519 -1.0054 -0.8037  0.1672
 5926TIP3   OH239336   6.257   0.020   7.233 -0.3712 -0.1001 -0.0843
 5926TIP3    H139337   6.218   0.098   7.272 -0.6205  0.7152 -1.8692
 5926TIP3    H239338   6.188  -0.046   7.238 -0.4074 -0.0093  0.7887
 5927TIP3   OH239339   3.053   4.401   0.375 -0.3266 -0.2192  0.0169
 5927TIP3    H139340   3.103   4.412   0.456 -0.1365  1.7550 -0.3077
 5927TIP3    H239341   2.984   4.467   0.381  0.8044  1.3038 -2.2165
 5928TIP3   OH239342   3.513   2.675   6.156  0.4192 -0.1257 -0.0816
 5928TIP3    H139343   3.565   2.622   6.096  1.4221  2.6444 -1.8360
 5928TIP3    H239344   3.574   2.702   6.224  0.1875 -0.3445  0.2153
 5929TIP3   OH239345   5.898   3.343   1.088 -0.6263 -0.4281  0.3758
 5929TIP3    H139346   5.827   3.341   1.153  0.3420  2.3323  1.6799
 5929TIP3    H239347   5.889   3.428   1.045  0.3578 -1.1153 -1.2807
 5930TIP3   OH239348   3.088   5.683   0.077  0.5434  0.1979  0.4719
 5930TIP3    H139349   3.049   5.599   0.056 -1.1335 -0.0241  3.8235
 5930TIP3    H239350   3.142   5.666   0.154 -0.8992  2.3130  2.0833
 5931TIP3   OH239351   0.931   5.984   1.555 -0.6093  0.1029  0.3548
 5931TIP3    H139352   0.952   6.005   1.646  0.1666  0.2265  0.1533
 5931TIP3    H239353   0.944   6.066   1.507 -0.7533 -0.0272  0.0900
 5932TIP3   OH239354   6.348   3.729   5.420 -0.6174 -0.7629 -0.2305
 5932TIP3    H139355   6.261   3.699   5.394 -1.3263  0.3584  0.7940
 5932TIP3    H239356   6.375   3.666   5.487 -0.5361 -1.2272 -0.6882
 5933TIP3   OH239357   3.922   7.144   1.668  0.3561  0.0481 -0.3476
 5933TIP3    H139358   3.873   7.131   1.749 -1.4522 -0.4354 -1.4523
 5933TIP3    H239359   3.942   7.055   1.638  1.1984  0.2296 -0.3426
 5934TIP3   OH239360   6.545   1.326   7.934  0.3484  0.3079  0.8819
 5934TIP3    H139361   6.515   1.323   8.025 -1.8318  0.0411  0.2128
 5934TIP3    H239362   6.536   1.235   7.903 -1.4690  0.8155 -0.2906
 5935TIP3   OH239363   0.533   0.431   6.674 -0.3544  0.4439  0.0453
 5935TIP3    H139364   0.523   0.424   6.769  0.0573 -1.6001 -0.0118
 5935TIP3    H239365   0.465   0.374   6.639 -0.4071  1.0704 -0.8918
 5936TIP3   OH239366   2.342   0.400   0.992 -0.1995  0.5857 -0.4158
 5936TIP3    H139367   2.354   0.483   1.038  2.3864  0.1893 -0.2265
 5936TIP3    H239368   2.311   0.340   1.060  0.7376  0.7258  0.1595
 5937TIP3   OH239369   6.346   3.640   6.204 -0.0868  0.3867  0.6682
 5937TIP3    H139370   6.433   3.662   6.170  0.4075  0.4595  1.9248
 5937TIP3    H239371   6.342   3.544   6.199  0.2161  0.3574  0.9332
 5938TIP3   OH239372   6.623   4.965   6.865  0.0032 -0.3658  0.1337
 5938TIP3    H139373   6.602   5.019   6.788 -1.1314  1.2561  1.4871
 5938TIP3    H239374   6.628   4.876   6.831 -0.0143  0.3418 -1.8883
 5939TIP3   OH239375   4.062   0.916   1.427  0.0468 -0.0669  0.5977
 5939TIP3    H139376   4.136   0.977   1.434 -1.4946  1.8984  0.6504
 5939TIP3    H239377   3.988   0.965   1.462 -2.0758 -0.5213 -2.7620
 5940TIP3   OH239378   0.596   2.688   7.629 -0.0806 -0.0673  0.2717
 5940TIP3    H139379   0.670   2.670   7.687 -0.5036 -3.0164  0.0490
 5940TIP3    H239380   0.523   2.638   7.667 -1.7357  1.9758 -0.0545
 5941TIP3   OH239381   1.105   6.787   7.391  0.0524  0.3206 -0.1216
 5941TIP3    H139382   1.083   6.726   7.461  0.2771 -0.3956 -0.6631
 5941TIP3    H239383   1.059   6.753   7.314  2.5124 -0.9464 -1.1777
 5942TIP3   OH239384   4.306   0.728   0.486  0.0840  0.2558  0.0743
 5942TIP3    H139385   4.238   0.710   0.421 -0.6192  0.7423  0.6547
 5942TIP3    H239386   4.355   0.646   0.492 -0.7261 -0.2527 -0.0369
 5943TIP3   OH239387   5.817   6.179   2.099 -0.4413 -0.0913  0.6623
 5943TIP3    H139388   5.785   6.090   2.108 -1.0080  0.2195  2.0411
 5943TIP3    H239389   5.903   6.170   2.058 -0.1389 -1.3465  1.5044
 5944TIP3   OH239390   1.196   5.980   5.912  0.6622 -0.8042  0.5290
 5944TIP3    H139391   1.262   5.911   5.907 -0.2512 -1.6350 -0.6938
 5944TIP3    H239392   1.182   6.006   5.821 -0.0931 -0.0531  0.8472
 5945TIP3   OH239393   4.170   1.048   0.580  0.4244 -0.2796 -0.3128
 5945TIP3    H139394   4.232   1.120   0.594 -1.0788  0.8466  0.9124
 5945TIP3    H239395   4.170   1.035   0.486  2.5226 -0.3395 -0.3591
 5946TIP3   OH239396   0.149   0.826   7.115 -0.6743  0.4759 -0.0241
 5946TIP3    H139397   0.229   0.824   7.167 -0.9427 -1.0088  0.3727
 5946TIP3    H239398   0.137   0.736   7.085 -1.1991  1.0417 -1.6481
 5947TIP3   OH239399   4.875   5.722   0.477  0.1823 -0.3362 -0.3846
 5947TIP3    H139400   4.959   5.702   0.517  0.0945 -0.0926 -0.0655
 5947TIP3    H239401   4.838   5.638   0.452 -1.1742 -0.8932  2.9117
 5948TIP3   OH239402   1.386   3.746   7.400 -0.0785  0.1843 -0.1003
 5948TIP3    H139403   1.329   3.798   7.457 -0.1221 -0.6211  0.6151
 5948TIP3    H239404   1.393   3.661   7.444  2.0082  0.3840  0.0691
 5949TIP3   OH239405   6.797   6.924   0.414  0.2647  0.2572  0.5217
 5949TIP3    H139406   6.818   6.902   0.505 -1.2982  1.4794  1.2126
 5949TIP3    H239407   6.770   6.840   0.375  0.0323 -0.1169  1.4506
 5950TIP3   OH239408   7.144   2.563   0.562  0.1562 -0.2087  0.2352
 5950TIP3    H139409   7.164   2.586   0.471 -1.9843  0.4743 -0.1341
 5950TIP3    H239410   7.229   2.558   0.605  1.1497  1.0983 -1.4377
 5951TIP3   OH239411   4.062   6.391   0.816 -0.3862  0.0665  0.4232
 5951TIP3    H139412   4.097   6.450   0.883 -1.2017  0.9092  0.1486
 5951TIP3    H239413   4.124   6.398   0.743  0.6908 -1.1231  1.1968
 5952TIP3   OH239414   0.516   3.125   1.618  0.0751  0.0788 -0.1121
 5952TIP3    H139415   0.536   3.086   1.703  1.2221  0.3427 -0.2485
 5952TIP3    H239416   0.439   3.180   1.635 -0.2276 -0.5332  0.5610
 5953TIP3   OH239417   6.136   3.545   7.485  0.2338 -0.6233 -0.4406
 5953TIP3    H139418   6.190   3.565   7.408 -0.0929 -1.6604 -0.9594
 5953TIP3    H239419   6.047   3.536   7.450  0.0499 -0.9126  0.0857
 5954TIP3   OH239420   3.007   7.094   1.944 -0.7547  0.4666 -0.5973
 5954TIP3    H139421   3.088   7.058   1.980 -0.3882 -0.5508 -2.3249
 5954TIP3    H239422   3.027   7.186   1.926 -0.7553  0.8349  1.1093
 5955TIP3   OH239423   1.275   5.976   0.671  0.1410  0.0478 -0.0323
 5955TIP3    H139424   1.214   6.021   0.728 -1.0269 -1.8635  0.3067
 5955TIP3    H239425   1.350   5.955   0.727  1.1568  2.3478 -0.4364
 5956TIP3   OH239426   3.261   0.371   1.592  0.1680 -0.2090  0.1870
 5956TIP3    H139427   3.170   0.372   1.622 -0.1928 -1.0198 -0.8560
 5956TIP3    H239428   3.292   0.461   1.607 -1.1773  0.4022 -0.5906
 5957TIP3   OH239429   2.073   4.907   6.323 -0.1204  0.0334 -0.0739
 5957TIP3    H139430   2.048   4.901   6.230  1.5716 -1.2997 -0.4969
 5957TIP3    H239431   2.006   4.963   6.362  0.6252  2.9940 -2.6487
 5958TIP3   OH239432   5.013   1.110   7.324 -0.4782  0.2683  0.1996
 5958TIP3    H139433   5.062   1.128   7.405  0.3827 -0.5941 -0.1000
 5958TIP3    H239434   5.048   1.172   7.260 -0.0748 -0.0449  0.1072
 5959TIP3   OH239435   0.076   6.997   0.784 -0.4297 -0.4735 -0.0331
 5959TIP3    H139436  -0.015   7.007   0.758 -0.1001  0.4546 -0.9156
 5959TIP3    H239437   0.097   6.906   0.763 -1.0626 -0.6003 -0.1239
 5960TIP3   OH239438   5.042   3.372   0.400  0.1139 -0.1264  0.2453
 5960TIP3    H139439   5.003   3.432   0.464  0.8813 -1.5007  2.0861
 5960TIP3    H239440   4.968   3.326   0.362 -0.2915 -0.1198  1.0075
 5961TIP3   OH239441   4.478   2.087   7.758 -0.2673 -0.2861 -0.1169
 5961TIP3    H139442   4.459   2.076   7.665 -1.4697 -0.7101  0.1497
 5961TIP3    H239443   4.551   2.028   7.775  0.1022 -0.0418 -0.8331
 5962TIP3   OH239444   2.819   4.739   1.597  0.0910  0.3687  0.4439
 5962TIP3    H139445   2.762   4.768   1.668 -0.6906 -0.0425  0.0018
 5962TIP3    H239446   2.902   4.718   1.639  0.2710  1.9704  0.9570
 5963TIP3   OH239447   5.624   0.663   0.675 -0.1458 -0.2741 -0.4478
 5963TIP3    H139448   5.670   0.709   0.746  0.8226 -0.3711 -0.9837
 5963TIP3    H239449   5.636   0.720   0.599 -1.9454  0.2778 -0.3646
 5964TIP3   OH239450   1.369   5.573   0.644  0.3184 -0.5399  0.9497
 5964TIP3    H139451   1.310   5.579   0.720 -0.0549  2.6831  0.5468
 5964TIP3    H239452   1.311   5.556   0.570  0.1547  0.4125  0.8532
 5965TIP3   OH239453   6.492   6.511   0.333  0.2296 -0.3523 -0.4958
 5965TIP3    H139454   6.576   6.555   0.317  0.6594 -1.1239 -0.3856
 5965TIP3    H239455   6.498   6.429   0.284 -1.4908  0.7137 -2.6381
 5966TIP3   OH239456   1.728   4.285   1.493 -0.1119 -0.1487  0.2252
 5966TIP3    H139457   1.651   4.235   1.520  0.0699 -0.1187  0.8121
 5966TIP3    H239458   1.705   4.319   1.407 -0.6139 -0.4427  0.2374
 5967TIP3   OH239459   5.877   3.019   1.602 -0.7073 -0.1959 -0.9353
 5967TIP3    H139460   5.796   3.045   1.645 -0.4430  0.2239 -0.6900
 5967TIP3    H239461   5.933   2.985   1.672 -0.6536 -0.4542 -1.0976
 5968TIP3   OH239462   0.079   5.108   0.407  0.4230  0.0605  0.0227
 5968TIP3    H139463  -0.000   5.113   0.354 -0.3104 -1.2075  0.9389
 5968TIP3    H239464   0.047   5.101   0.497  1.6302  1.5496  0.6035
 5969TIP3   OH239465   5.363   1.455   7.291 -0.5485 -0.1528  0.0335
 5969TIP3    H139466   5.391   1.406   7.369 -0.2891 -0.4955 -0.2722
 5969TIP3    H239467   5.412   1.538   7.296 -0.5652 -0.1565  0.2560
 5970TIP3   OH239468   2.135   5.154   7.240  0.3851  0.1247  0.8418
 5970TIP3    H139469   2.198   5.130   7.172  0.9210 -1.0354  1.7114
 5970TIP3    H239470   2.057   5.181   7.192  1.3442  1.0511 -0.2538
 5971TIP3   OH239471   6.371   6.151   6.415  0.4160  0.0333  0.3205
 5971TIP3    H139472   6.377   6.244   6.437  0.4956 -0.4792  2.7717
 5971TIP3    H239473   6.289   6.142   6.367 -1.2818  0.9641  2.8428
 5972TIP3   OH239474   0.373   0.592   0.600  0.1019 -0.4803 -0.2431
 5972TIP3    H139475   0.331   0.585   0.686  1.1796 -3.8070  0.1724
 5972TIP3    H239476   0.424   0.672   0.604 -0.3615 -0.2371  1.9983
 5973TIP3   OH239477   4.686   4.577   6.112 -0.4221  0.1201 -0.2756
 5973TIP3    H139478   4.734   4.578   6.029  0.5324 -0.4270  0.2648
 5973TIP3    H239479   4.646   4.490   6.115  1.2248 -0.6380  0.7700
 5974TIP3   OH239480   4.186   0.958   7.663  0.2960  0.6265 -0.6738
 5974TIP3    H139481   4.278   0.953   7.686 -0.2446 -2.2654  1.4290
 5974TIP3    H239482   4.181   0.928   7.572  1.3073 -0.8235 -0.2777
 5975TIP3   OH239483   0.941   3.576   1.264 -0.2668 -0.6466 -0.0304
 5975TIP3    H139484   0.999   3.501   1.252 -2.2355 -2.1469 -0.6788
 5975TIP3    H239485   1.000   3.651   1.271  1.7377 -2.1115 -0.3456
 5976TIP3   OH239486   2.569   0.703   6.950 -0.0056 -0.0350  0.7558
 5976TIP3    H139487   2.578   0.742   7.037 -2.1328  2.4146  0.0202
 5976TIP3    H239488   2.486   0.656   6.954 -0.6296  0.9555 -0.2065
 5977TIP3   OH239489   5.693   3.020   0.116 -0.1268 -0.1893 -0.2593
 5977TIP3    H139490   5.693   3.115   0.127  0.3008 -0.0511 -1.2803
 5977TIP3    H239491   5.702   3.008   0.021  1.1500 -1.2655 -0.0149
 5978TIP3   OH239492   3.220   0.198   6.808 -0.0804 -0.1560  0.4327
 5978TIP3    H139493   3.144   0.213   6.753 -0.0335  0.1448  0.4480
 5978TIP3    H239494   3.215   0.267   6.875 -0.1765 -0.5595  0.8450
 5979TIP3   OH239495   0.810   7.097   1.872 -0.1783  0.2817 -0.0745
 5979TIP3    H139496   0.722   7.102   1.832  0.3435  1.7129 -1.1590
 5979TIP3    H239497   0.801   7.144   1.955 -0.5671 -0.0767  0.0914
 5980TIP3   OH239498   4.099   4.950   1.394  0.3066  0.5855 -0.0644
 5980TIP3    H139499   4.185   4.940   1.434 -0.2664 -0.0387  1.0820
 5980TIP3    H239500   4.085   4.869   1.345  0.3278  0.6262 -0.1368
 5981TIP3   OH239501   3.139   5.801   0.452 -0.1206 -0.1151  0.2474
 5981TIP3    H139502   3.150   5.891   0.481 -0.7767 -0.4350  1.5553
 5981TIP3    H239503   3.093   5.757   0.524 -2.6243 -0.7500 -1.6074
 5982TIP3   OH239504   7.024   2.256   7.075 -0.6012 -0.6735 -0.2497
 5982TIP3    H139505   6.931   2.266   7.059 -0.5310 -2.1044 -1.8452
 5982TIP3    H239506   7.032   2.252   7.170 -1.7519  2.5017  0.1009
 5983TIP3   OH239507   1.158   3.440   0.214 -0.2786  0.0483 -0.2938
 5983TIP3    H139508   1.202   3.359   0.241  0.3021  0.4453 -0.0098
 5983TIP3    H239509   1.199   3.462   0.130 -1.3393 -0.6232 -1.0068
 5984TIP3   OH239510   6.071   3.361   6.134  0.2307 -0.0874 -0.4613
 5984TIP3    H139511   5.988   3.315   6.147 -0.4875  1.0673 -0.8017
 5984TIP3    H239512   6.086   3.356   6.040  1.2287 -1.3779 -0.2712
 5985TIP3   OH239513   1.577   1.005   6.201  0.3151  0.4758 -0.3134
 5985TIP3    H139514   1.559   0.992   6.108  2.3064  2.6306 -1.0899
 5985TIP3    H239515   1.491   0.999   6.243 -0.7208  0.0983 -2.3521
 5986TIP3   OH239516   4.598   3.012   6.512 -0.3700 -0.3518 -0.1578
 5986TIP3    H139517   4.669   2.986   6.570 -0.2929  0.6962  0.2451
 5986TIP3    H239518   4.544   3.071   6.565 -0.1211  0.8838 -1.2342
 5987TIP3   OH239519   3.722   2.408   7.707  0.1375  0.2210 -0.3850
 5987TIP3    H139520   3.740   2.316   7.685 -0.4227  0.0642 -0.2185
 5987TIP3    H239521   3.788   2.430   7.773 -0.5040 -0.4641  0.5179
 5988TIP3   OH239522   0.038   3.035   2.387 -0.4470 -0.0222  0.4147
 5988TIP3    H139523   0.081   2.951   2.370  0.8857  0.8467 -0.6936
 5988TIP3    H239524  -0.041   3.033   2.333 -0.1633 -0.3655  0.0070
 5989TIP3   OH239525   6.300   5.202   6.857  0.0240 -0.7791 -0.4105
 5989TIP3    H139526   6.323   5.261   6.786  0.0456 -0.0580  0.1836
 5989TIP3    H239527   6.300   5.257   6.935 -0.0016 -1.5553  0.1509
 5990TIP3   OH239528   1.350   5.929   6.440  0.0653  0.0710 -0.1005
 5990TIP3    H139529   1.305   6.005   6.404  0.1735  0.3424  0.3244
 5990TIP3    H239530   1.395   5.890   6.365 -1.6228 -0.7593 -0.7147
 5991TIP3   OH239531   4.407   0.212   0.513 -0.2390 -0.3965  0.0283
 5991TIP3    H139532   4.469   0.145   0.542  0.2339 -0.2853 -0.7052
 5991TIP3    H239533   4.451   0.255   0.439 -0.0658  1.4150  1.1059
 5992TIP3   OH239534   6.242   4.004   7.532  0.1137  0.0695 -0.0271
 5992TIP3    H139535   6.237   3.930   7.594 -0.4466  1.2126  1.3603
 5992TIP3    H239536   6.197   3.973   7.454  0.5811 -1.3291  0.2339
 5993TIP3   OH239537   2.039   0.305   6.580  0.3118  0.0264  0.2200
 5993TIP3    H139538   2.107   0.288   6.645  0.8536  2.4316  0.3783
 5993TIP3    H239539   1.990   0.379   6.616 -2.0751 -1.2459 -0.1738
 5994TIP3   OH239540   5.255   6.933   7.920 -0.0609  0.1947  0.4666
 5994TIP3    H139541   5.236   6.839   7.922  0.2723  0.0270 -1.9397
 5994TIP3    H239542   5.202   6.969   7.991 -1.6364 -1.5568  0.2615
 5995TIP3   OH239543   3.041   3.025   1.278 -0.2273 -0.5365 -0.1002
 5995TIP3    H139544   3.034   2.939   1.319  2.6839 -0.2431  1.2673
 5995TIP3    H239545   3.026   3.087   1.350 -0.1628  0.0757 -0.6050
 5996TIP3   OH239546   3.091   2.357   8.022 -0.0407  0.2747 -0.0210
 5996TIP3    H139547   3.126   2.360   7.933  0.0895  0.9419  0.0459
 5996TIP3    H239548   3.168   2.345   8.078  0.2745  2.9056  0.2143
 5997TIP3   OH239549   0.667   0.546   6.311  0.0490  0.6360 -0.0712
 5997TIP3    H139550   0.737   0.553   6.247 -1.4567  0.5460 -1.8196
 5997TIP3    H239551   0.711   0.537   6.396  2.2056 -2.6204 -1.3624
 5998TIP3   OH239552   5.697   0.794   0.049  0.7106 -0.3428 -0.0038
 5998TIP3    H139553   5.759   0.725   0.074  0.2768 -0.1743  1.6147
 5998TIP3    H239554   5.673   0.836   0.131 -0.7619  0.2736 -0.7164
 5999TIP3   OH239555   0.494   3.113   1.921  0.1046 -0.4682 -0.0763
 5999TIP3    H139556   0.407   3.078   1.942  0.3089 -2.5360 -2.2775
 5999TIP3    H239557   0.484   3.208   1.928 -2.1394 -0.6816  0.3423
 6000TIP3   OH239558   6.319   3.519   5.581 -0.1012  0.1001 -0.2235
 6000TIP3    H139559   6.260   3.541   5.653 -1.4106 -1.1086 -0.8673
 6000TIP3    H239560   6.348   3.430   5.600  2.0349  0.8682  0.3722
 6001TIP3   OH239561   6.470   0.672   0.347  0.6050  0.3258 -0.1438
 6001TIP3    H139562   6.542   0.635   0.398  1.7482  0.9992 -1.2069
 6001TIP3    H239563   6.439   0.599   0.294  1.1361  0.2530 -0.3610
 6002TIP3   OH239564   2.579   3.392   7.732  0.2277 -0.1911  0.7087
 6002TIP3    H139565   2.485   3.399   7.748  0.4549  1.5930  1.5447
 6002TIP3    H239566   2.613   3.342   7.806  0.1494  0.7777  1.4253
 6003TIP3   OH239567   4.137   1.381   6.446 -0.2994  0.2423  0.0520
 6003TIP3    H139568   4.064   1.426   6.403 -0.5350 -0.7629 -0.6187
 6003TIP3    H239569   4.159   1.438   6.520 -1.4161  0.8256 -0.0429
 6004TIP3   OH239570   2.322   6.180   0.815  0.4678  0.1298  0.0115
 6004TIP3    H139571   2.319   6.191   0.720 -0.5164 -0.0676  0.0073
 6004TIP3    H239572   2.261   6.109   0.833  0.7328  0.0832  0.7857
 6005TIP3   OH239573   6.202   2.023   1.790 -0.4193  0.2589 -0.0828
 6005TIP3    H139574   6.190   1.951   1.852 -1.1055  0.7201  0.3399
 6005TIP3    H239575   6.120   2.026   1.741  0.1729 -0.1863 -1.1174
 6006TIP3   OH239576   1.687   4.260   6.618 -0.2664  0.1860 -0.1930
 6006TIP3    H139577   1.652   4.180   6.579  1.3051 -1.6792  1.9925
 6006TIP3    H239578   1.694   4.242   6.711  1.4418  2.3660  0.2130
 6007TIP3   OH239579   0.285   5.752   7.988 -0.4373  0.5268 -0.5532
 6007TIP3    H139580   0.198   5.723   8.012 -0.0936  0.8102  1.1841
 6007TIP3    H239581   0.340   5.729   8.062  1.0278  0.1741 -1.6890
 6008TIP3   OH239582   0.777   6.037   6.429  0.6583  0.7131 -0.3042
 6008TIP3    H139583   0.794   6.118   6.381  2.0987 -0.6071 -2.1472
 6008TIP3    H239584   0.707   5.994   6.381  0.2082  0.6330  0.4046
 6009TIP3   OH239585   3.204   3.236   7.607 -0.0140  0.8064 -0.2940
 6009TIP3    H139586   3.160   3.309   7.564 -1.1331 -0.2456 -0.9560
 6009TIP3    H239587   3.139   3.201   7.668 -0.4461 -1.2871 -1.8790
 6010TIP3   OH239588   3.430   2.716   7.244 -0.0474 -0.0160 -0.4388
 6010TIP3    H139589   3.513   2.756   7.272 -1.0828  1.4277  0.7364
 6010TIP3    H239590   3.363   2.767   7.289 -1.6187 -0.7471 -1.8613
 6011TIP3   OH239591   3.813   6.475   0.708  0.6832 -0.2663 -0.5256
 6011TIP3    H139592   3.871   6.538   0.665  0.3284  0.3654 -0.0989
 6011TIP3    H239593   3.865   6.396   0.716  0.9377 -0.2330 -1.6260
 6012TIP3   OH239594   0.690   1.166   7.629  0.0770  0.1372 -0.2981
 6012TIP3    H139595   0.737   1.100   7.577 -1.6363 -2.4493  1.2337
 6012TIP3    H239596   0.616   1.191   7.574 -0.4761 -0.9116 -0.0680
 6013TIP3   OH239597   2.934   5.040   6.451  0.0757  0.8801  0.9092
 6013TIP3    H139598   2.971   5.013   6.535  0.3390  0.9248  0.8103
 6013TIP3    H239599   2.942   4.963   6.395 -0.6466  0.6667  1.1024
 6014TIP3   OH239600   5.169   4.184   0.377 -0.0190  0.1657  0.1987
 6014TIP3    H139601   5.235   4.251   0.355  0.5974 -0.6541 -0.5090
 6014TIP3    H239602   5.174   4.121   0.305 -2.9445  1.0505 -0.9191
 6015TIP3   OH239603   7.127   0.877   6.322  0.3042  0.5230  0.0880
 6015TIP3    H139604   7.053   0.816   6.332 -0.0981  0.9099 -0.4984
 6015TIP3    H239605   7.092   0.948   6.269 -0.3982  3.2296  3.8070
 6016TIP3   OH239606   4.195   2.379   0.068  0.4817 -0.2984 -0.3581
 6016TIP3    H139607   4.158   2.317   0.131 -2.3729  1.5455 -0.0055
 6016TIP3    H239608   4.250   2.436   0.120  0.6498 -0.6732 -0.1212
 6017TIP3   OH239609   4.878   6.360   7.401 -0.2882  0.6093  0.4160
 6017TIP3    H139610   4.835   6.404   7.328 -1.0342  0.8451  0.9898
 6017TIP3    H239611   4.814   6.363   7.472 -0.2277 -1.1194  0.5678
 6018TIP3   OH239612   3.182   1.701   6.479  0.3909  0.1197  0.3717
 6018TIP3    H139613   3.196   1.794   6.464 -0.5584  0.0660 -1.0440
 6018TIP3    H239614   3.087   1.691   6.483  0.4847 -0.7691  0.5958
 6019TIP3   OH239615   1.456   3.250   7.698 -0.0488  0.4554 -0.1628
 6019TIP3    H139616   1.422   3.304   7.627 -1.6545 -0.4412 -0.1328
 6019TIP3    H239617   1.545   3.228   7.671 -0.4447  0.5592 -1.6476
 6020TIP3   OH239618   0.686   4.093   8.018  0.2543  0.9933 -0.1874
 6020TIP3    H139619   0.601   4.089   7.974  0.7051 -0.2424 -1.0066
 6020TIP3    H239620   0.722   4.005   8.008  1.4404  1.3762  0.5351
 6021TIP3   OH239621   0.763   0.774   0.948  0.0056 -0.6319  0.2009
 6021TIP3    H139622   0.854   0.802   0.953  0.2119 -0.9517 -1.3058
 6021TIP3    H239623   0.759   0.720   0.869 -2.0656  1.5998 -1.3504
 6022TIP3   OH239624   2.744   6.717   7.167 -0.4777 -0.2033  0.0637
 6022TIP3    H139625   2.718   6.780   7.235 -2.0771 -2.2723  1.4924
 6022TIP3    H239626   2.836   6.696   7.188  0.1074  1.6425 -0.4851
 6023TIP3   OH239627   5.043   2.497   7.927  0.0377  0.1573  0.8938
 6023TIP3    H139628   5.025   2.476   7.836 -0.3318 -3.3547  1.6352
 6023TIP3    H239629   4.959   2.527   7.962 -0.0867  0.4563  0.3548
 6024TIP3   OH239630   0.336   1.820   1.438  0.2162  1.0379  0.0414
 6024TIP3    H139631   0.279   1.746   1.460  1.9316 -0.5498 -0.6122
 6024TIP3    H239632   0.315   1.840   1.346  2.7238 -1.6123 -1.2565
 6025TIP3   OH239633   3.260   6.874   0.179 -0.6165  0.1380  0.4652
 6025TIP3    H139634   3.341   6.922   0.162 -0.4100  0.7280  2.7669
 6025TIP3    H239635   3.287   6.785   0.201 -0.6223  0.2140  0.7847
 6026TIP3   OH239636   0.222   4.085   0.564 -0.3071 -0.1298  0.2750
 6026TIP3    H139637   0.169   4.164   0.576 -1.3043 -0.9726  1.7187
 6026TIP3    H239638   0.306   4.106   0.604  0.1094  0.8179 -1.0166
 6027TIP3   OH239639   5.920   1.688   1.336 -0.0121 -1.4372 -0.7661
 6027TIP3    H139640   5.844   1.631   1.345 -1.2151  0.4279  2.2430
 6027TIP3    H239641   5.892   1.772   1.372  3.6794 -0.8681  1.2041
 6028TIP3   OH239642   0.094   0.089   7.949 -0.4362 -0.0685 -0.2424
 6028TIP3    H139643   0.133   0.005   7.925 -1.1318 -0.5452  0.2261
 6028TIP3    H239644   0.168   0.145   7.970  0.0528 -0.4601 -0.9016
 6029TIP3   OH239645   7.009   2.581   6.156  0.1055 -0.5594  0.6304
 6029TIP3    H139646   6.977   2.492   6.168  0.9998 -1.4325 -2.5101
 6029TIP3    H239647   7.040   2.583   6.065  0.2012  2.9356  0.6178
 6030TIP3   OH239648   6.189   3.749   7.680  0.1042  0.0355 -0.4911
 6030TIP3    H139649   6.196   3.671   7.625 -2.8107 -1.4498  0.9885
 6030TIP3    H239650   6.099   3.780   7.666  0.2218  1.3339  1.2474
 6031TIP3   OH239651   5.891   5.394   1.486 -0.2957  0.3482  0.7193
 6031TIP3    H139652   5.866   5.450   1.559  1.6591  2.3236 -0.0214
 6031TIP3    H239653   5.926   5.454   1.420  0.9119 -1.6547 -0.5737
 6032TIP3   OH239654   0.309   5.459   7.865 -0.1139 -0.2864  0.4533
 6032TIP3    H139655   0.276   5.443   7.777  0.6060 -0.7397  0.2551
 6032TIP3    H239656   0.270   5.542   7.891  0.4963  0.3912 -0.7135
 6033TIP3   OH239657   6.863   3.670   5.891 -0.3092 -0.3917 -0.3754
 6033TIP3    H139658   6.838   3.747   5.840 -0.6287 -0.3894 -0.2155
 6033TIP3    H239659   6.873   3.703   5.981 -2.2388 -0.8753  0.0529
 6034TIP3   OH239660   4.029   6.367   7.895 -0.4034 -0.1927 -0.4402
 6034TIP3    H139661   4.124   6.356   7.898 -0.3831 -0.6078 -1.9508
 6034TIP3    H239662   4.016   6.462   7.891 -0.1005 -0.0990  0.4953
 6035TIP3   OH239663   5.527   0.310   7.513 -0.5908  0.5307 -0.2248
 6035TIP3    H139664   5.443   0.267   7.526 -1.4125  1.8886 -0.8615
 6035TIP3    H239665   5.566   0.312   7.600 -0.9101 -0.6774 -0.0299
 6036TIP3   OH239666   3.738   5.847   0.198  0.1082 -0.0485  0.5992
 6036TIP3    H139667   3.731   5.911   0.127  0.4995  2.4462  2.6542
 6036TIP3    H239668   3.787   5.774   0.160 -0.2717  0.8655 -1.8369
 6037TIP3   OH239669   3.369   4.257   7.987  0.0393  0.0867  0.4781
 6037TIP3    H139670   3.316   4.300   7.919  0.0147  1.6254  1.4159
 6037TIP3    H239671   3.460   4.273   7.959  0.0388  1.1592  1.0217
 6038TIP3   OH239672   6.143   6.262   7.831 -0.0931 -0.0275 -0.1587
 6038TIP3    H139673   6.151   6.226   7.742 -1.0202  0.1404 -0.3170
 6038TIP3    H239674   6.081   6.334   7.822  0.4495  0.5313  0.4794
 6039TIP3   OH239675   6.191   5.978   0.676  0.6955 -0.4052 -0.1854
 6039TIP3    H139676   6.203   5.954   0.584  1.4503  1.3536 -0.5852
 6039TIP3    H239677   6.224   6.068   0.682 -0.8813  0.1230  1.4591
 6040TIP3   OH239678   6.028   1.954   7.706  0.0229 -0.2829  0.2575
 6040TIP3    H139679   6.097   1.959   7.772 -0.6450  1.5664  0.8754
 6040TIP3    H239680   6.059   2.012   7.636 -0.7420  0.3542  0.4267
 6041TIP3   OH239681   1.072   1.515   6.301 -0.0730 -0.3803 -0.1833
 6041TIP3    H139682   1.148   1.461   6.281  0.8410  0.5816  0.5827
 6041TIP3    H239683   1.000   1.474   6.253  0.8969 -1.3781 -0.8292
 6042TIP3   OH239684   3.688   4.987   6.205 -0.0430 -0.1555  0.8310
 6042TIP3    H139685   3.668   4.965   6.296  1.7412  0.2056  1.3464
 6042TIP3    H239686   3.765   5.044   6.211 -0.0037  0.0168 -0.8996
 6043TIP3   OH239687   5.958   6.621   1.615 -0.1950 -0.4530  0.0323
 6043TIP3    H139688   6.012   6.574   1.551  1.3316  3.1627 -1.5923
 6043TIP3    H239689   5.876   6.639   1.569 -0.9649 -1.7516  0.8148
 6044TIP3   OH239690   3.267   4.687   6.668  0.4224  0.2717  0.6921
 6044TIP3    H139691   3.298   4.727   6.587 -0.5946 -2.4919 -1.2064
 6044TIP3    H239692   3.313   4.603   6.672  0.4452  0.3265  3.0428
 6045TIP3   OH239693   4.638   4.271   0.783  0.2961 -0.4279  0.1848
 6045TIP3    H139694   4.714   4.262   0.840 -1.1294 -0.2426  2.2217
 6045TIP3    H239695   4.563   4.265   0.842 -1.3192 -1.6220 -1.8641
 6046TIP3   OH239696   6.069   1.201   0.621 -1.0460  0.0339 -0.2450
 6046TIP3    H139697   6.145   1.186   0.564 -0.6192 -1.2946  0.6475
 6046TIP3    H239698   6.107   1.223   0.706 -1.6781  0.6054 -0.1042
 6047TIP3   OH239699   4.994   5.254   1.953 -1.0473  0.3793 -0.1731
 6047TIP3    H139700   5.089   5.250   1.947 -1.1051  0.7021 -1.7183
 6047TIP3    H239701   4.976   5.340   1.992 -0.7160 -0.0257  0.9307
 6048TIP3   OH239702   5.666   2.748   1.259 -0.5254  0.0382  0.2104
 6048TIP3    H139703   5.701   2.819   1.312 -0.8084 -0.4572  1.0805
 6048TIP3    H239704   5.635   2.791   1.179  0.2731  0.7390  0.2642
 6049TIP3   OH239705   7.064   5.344   5.908  0.9422 -0.4895  0.2485
 6049TIP3    H139706   6.979   5.385   5.897  2.0053  1.6800 -0.4987
 6049TIP3    H239707   7.055   5.291   5.987 -0.8882  0.2081  0.5548
 6050TIP3   OH239708   2.761   2.672   7.561 -0.0217  0.3308  0.1147
 6050TIP3    H139709   2.758   2.760   7.525 -0.7020  1.1479  2.0585
 6050TIP3    H239710   2.805   2.620   7.493  0.6831  2.2004 -0.9378
 6051TIP3   OH239711   4.123   4.895   6.739 -0.4526  0.0396  0.0276
 6051TIP3    H139712   4.188   4.946   6.787  0.0600 -0.9474  0.4073
 6051TIP3    H239713   4.144   4.909   6.647  0.5593 -0.6084  0.1556
 6052TIP3   OH239714   5.240   0.625   5.892  0.3801 -0.6371  0.0631
 6052TIP3    H139715   5.321   0.656   5.933  0.0697  1.6803 -0.9182
 6052TIP3    H239716   5.243   0.529   5.902  2.6024 -0.5181  1.1528
 6053TIP3   OH239717   6.164   6.673   5.801  0.0075  0.0425 -0.1624
 6053TIP3    H139718   6.193   6.645   5.888  1.5408  0.2855 -0.5771
 6053TIP3    H239719   6.114   6.598   5.767  1.5814 -1.0823 -0.0880
 6054TIP3   OH239720   2.234   4.819   1.199 -0.2088  0.7869  0.0268
 6054TIP3    H139721   2.278   4.739   1.225  1.8049  1.2095 -1.7901
 6054TIP3    H239722   2.147   4.791   1.171  0.8094 -0.9939 -1.6096
 6055TIP3   OH239723   3.007   2.390   7.698  0.4409 -0.2878 -0.2226
 6055TIP3    H139724   2.917   2.358   7.692  0.8214 -1.3130 -0.6686
 6055TIP3    H239725   3.009   2.468   7.642 -0.3327  0.1413  0.3374
 6056TIP3   OH239726   1.506   3.862   1.578  0.1593  0.1401  0.5572
 6056TIP3    H139727   1.508   3.837   1.486  1.6506  0.8694  0.3584
 6056TIP3    H239728   1.522   3.781   1.626  1.8300  0.1397  0.0515
 6057TIP3   OH239729   0.648   2.414   6.978 -0.3378  0.5063 -0.0656
 6057TIP3    H139730   0.728   2.433   6.928  0.1898 -2.1125 -0.4159
 6057TIP3    H239731   0.590   2.372   6.915 -0.3351 -1.3095  1.0614
 6058TIP3   OH239732   4.073   5.493   2.019  0.0884  0.4749  0.2250
 6058TIP3    H139733   3.998   5.436   2.034  1.7840 -1.8207  0.5298
 6058TIP3    H239734   4.063   5.564   2.082 -1.4458 -0.1395  0.7109
 6059TIP3   OH239735   6.495   6.597   1.853  0.5895  0.4232  0.1895
 6059TIP3    H139736   6.580   6.554   1.849 -0.3000 -1.5836  1.1388
 6059TIP3    H239737   6.436   6.529   1.885 -1.5406  1.5081 -1.2104
 6060TIP3   OH239738   6.903   5.268   1.036 -0.1068 -0.4527  0.1320
 6060TIP3    H139739   6.865   5.184   1.012  2.4915 -1.2469 -1.7422
 6060TIP3    H239740   6.950   5.251   1.117 -1.6967 -0.0911  1.1536
 6061TIP3   OH239741   2.378   0.634   0.707 -0.1308  0.3937  0.5224
 6061TIP3    H139742   2.329   0.674   0.635 -1.1390 -0.8464  0.4865
 6061TIP3    H239743   2.470   0.640   0.680 -0.2881  2.0811  0.2488
 6062TIP3   OH239744   2.007   0.848   7.671 -0.6169 -0.1455  0.2227
 6062TIP3    H139745   1.932   0.799   7.703 -1.3998 -0.6285 -2.1559
 6062TIP3    H239746   1.970   0.912   7.610  0.6550  1.6659  1.2354
 6063TIP3   OH239747   6.292   1.312   7.507  0.4490 -0.0852  0.0912
 6063TIP3    H139748   6.198   1.308   7.493  0.1429  0.8875  1.6852
 6063TIP3    H239749   6.327   1.349   7.426 -0.4297 -1.1175 -0.7974
 6064TIP3   OH239750   2.149   7.066   5.526 -0.3456  0.7299 -0.4326
 6064TIP3    H139751   2.215   7.115   5.478 -0.1007 -0.3464 -1.2187
 6064TIP3    H239752   2.117   7.127   5.592  1.6878  1.1650  0.2208
 6065TIP3   OH239753   4.100   4.135   0.538 -0.4635  0.0751 -0.2654
 6065TIP3    H139754   4.070   4.111   0.625  0.5125 -0.5913 -0.1016
 6065TIP3    H239755   4.040   4.090   0.478 -0.9966  0.3534  0.0512
 6066TIP3   OH239756   3.800   2.028   7.518 -0.8650 -0.0414 -0.0537
 6066TIP3    H139757   3.806   1.940   7.553  0.2555  0.3353  0.7772
 6066TIP3    H239758   3.843   2.083   7.584  0.6733  0.7900 -1.6542
 6067TIP3   OH239759   5.716   2.003   6.478  0.3723  0.9827 -0.3194
 6067TIP3    H139760   5.738   1.941   6.408  0.3439  1.1171 -0.4475
 6067TIP3    H239761   5.799   2.042   6.503  0.3648  1.0299 -0.3681
 6068TIP3   OH239762   4.822   3.509   0.045 -0.5908 -0.6679  0.3143
 6068TIP3    H139763   4.836   3.423   0.085  0.3957  0.8818  3.6709
 6068TIP3    H239764   4.782   3.561   0.114 -1.9277  1.4158 -1.8789
 6069TIP3   OH239765   3.069   0.066   7.586 -0.1744 -0.4260 -0.1163
 6069TIP3    H139766   3.151   0.096   7.546 -0.0057 -0.5201  0.1483
 6069TIP3    H239767   3.053  -0.020   7.546 -0.3723 -0.2180 -0.4825
 6070TIP3   OH239768   3.269   0.734   0.909  0.0761  0.0695  0.3347
 6070TIP3    H139769   3.354   0.760   0.874  0.0753 -1.8236 -1.1861
 6070TIP3    H239770   3.207   0.753   0.838 -0.7740  1.1340  1.3123
 6071TIP3   OH239771   0.413   4.389   7.633  0.4165  0.0914  0.2303
 6071TIP3    H139772   0.356   4.313   7.618 -1.4644  1.7662 -1.8733
 6071TIP3    H239773   0.499   4.360   7.603 -0.1074 -1.4032  0.0533
 6072TIP3   OH239774   6.765   4.023   5.554  0.0000 -0.2685  0.0769
 6072TIP3    H139775   6.704   4.096   5.549  0.4613  0.1041 -0.1828
 6072TIP3    H239776   6.757   3.978   5.470 -0.3997 -0.6127  0.2977
 6073TIP3   OH239777   6.308   4.279   7.069 -0.0746  0.7086 -0.4762
 6073TIP3    H139778   6.294   4.362   7.115  0.4474  0.4740  0.1192
 6073TIP3    H239779   6.390   4.246   7.105 -0.0474  0.1536 -1.0435
 6074TIP3   OH239780   1.550   4.896   7.045 -0.1845  0.4084  0.2927
 6074TIP3    H139781   1.455   4.897   7.037 -0.2443 -0.4575  0.7629
 6074TIP3    H239782   1.571   4.974   7.096 -0.8249 -0.3762  1.8221
 6075TIP3   OH239783   2.262   0.292   1.445 -0.1181  0.8677 -0.3060
 6075TIP3    H139784   2.333   0.322   1.501 -0.3417 -0.2070  0.5655
 6075TIP3    H239785   2.214   0.373   1.422  0.5573  1.4285  0.2217
 6076TIP3   OH239786   1.802   1.899   0.091  0.0388  0.2832  0.1980
 6076TIP3    H139787   1.812   1.847   0.171 -1.2457 -1.3758 -0.6645
 6076TIP3    H239788   1.813   1.837   0.020 -0.1941  1.4700 -0.9176
 6077TIP3   OH239789   3.927   5.392   1.500 -0.4071 -0.0068 -0.1818
 6077TIP3    H139790   3.997   5.408   1.436 -0.8873  2.3331 -0.2085
 6077TIP3    H239791   3.956   5.314   1.548  0.4481 -1.2552 -2.5469
 6078TIP3   OH239792   7.064   6.736   7.213  0.2300  0.0228  0.4059
 6078TIP3    H139793   7.084   6.810   7.270  0.1883  0.9276 -0.7147
 6078TIP3    H239794   7.113   6.754   7.133 -0.6099 -0.6372 -0.2748
 6079TIP3   OH239795   0.470   7.142   7.725 -0.2028  0.3325 -0.5542
 6079TIP3    H139796   0.420   7.073   7.769  1.8382 -0.3774  0.7752
 6079TIP3    H239797   0.405   7.189   7.673 -2.0551 -1.1645  0.2967
 6080TIP3   OH239798   3.837   4.218   1.277 -0.0698 -0.2862 -0.1409
 6080TIP3    H139799   3.747   4.248   1.292 -0.2441 -0.5755 -0.5756
 6080TIP3    H239800   3.875   4.212   1.364 -0.2083  0.6479 -0.0021
 6081TIP3   OH239801   1.372   4.044   1.286 -0.0092  0.4550  0.5045
 6081TIP3    H139802   1.389   3.950   1.287  1.0361  0.5653 -1.7193
 6081TIP3    H239803   1.291   4.053   1.236  0.2598  0.7904  0.1318
 6082TIP3   OH239804   4.642   5.712   1.506 -0.4212 -0.6598 -0.0164
 6082TIP3    H139805   4.642   5.641   1.571  1.4186 -0.1668  0.5853
 6082TIP3    H239806   4.643   5.792   1.559 -2.1591 -0.1393 -0.6904
 6083TIP3   OH239807   3.257   4.348   7.060 -0.7510 -0.1744 -0.0339
 6083TIP3    H139808   3.298   4.420   7.108 -1.8440 -1.8024  3.7106
 6083TIP3    H239809   3.319   4.275   7.068 -0.5583 -0.3144 -2.0476
 6084TIP3   OH239810   5.733   4.423   6.458 -0.0967  0.3645 -0.0063
 6084TIP3    H139811   5.776   4.492   6.408 -1.2655  0.4999 -0.8681
 6084TIP3    H239812   5.798   4.354   6.465  1.2908  1.7248  1.3323
 6085TIP3   OH239813   6.472   3.219   0.484 -0.3190  0.5607 -0.7977
 6085TIP3    H139814   6.406   3.255   0.544 -1.7204  0.4751 -2.2123
 6085TIP3    H239815   6.543   3.191   0.541 -1.4006  0.8726  0.7859
 6086TIP3   OH239816   0.710   5.017   0.804  0.4740  0.2425  0.0237
 6086TIP3    H139817   0.723   4.950   0.871 -1.0031  1.2474  1.3657
 6086TIP3    H239818   0.617   5.011   0.781  0.3544  1.6892  0.0390
 6087TIP3   OH239819   3.985   4.133   7.480 -0.2944 -0.2606  0.0679
 6087TIP3    H139820   4.044   4.208   7.472  0.1271 -0.6259 -0.3687
 6087TIP3    H239821   4.028   4.064   7.430 -1.6275 -0.2077 -1.2376
 6088TIP3   OH239822   1.271   1.890   7.341  0.5196 -0.2433  1.0902
 6088TIP3    H139823   1.263   1.893   7.246 -0.7815 -0.5863  1.1635
 6088TIP3    H239824   1.277   1.982   7.367  0.6712 -0.1386  0.6938
 6089TIP3   OH239825   4.181   1.437   0.144 -0.3141  0.3955  0.5105
 6089TIP3    H139826   4.128   1.401   0.073 -0.5509  3.2346 -0.8963
 6089TIP3    H239827   4.166   1.532   0.139  2.0124  0.9549  2.4619
 6090TIP3   OH239828   3.927   4.480   7.511  0.0592  0.1885  0.6941
 6090TIP3    H139829   4.021   4.494   7.520  0.1074 -0.6232  1.6121
 6090TIP3    H239830   3.909   4.402   7.563 -0.9036 -0.4928 -0.6013
 6091TIP3   OH239831   4.331   1.279   0.691 -0.3101  0.5231  0.5072
 6091TIP3    H139832   4.276   1.307   0.618  1.1740 -0.1749 -0.9355
 6091TIP3    H239833   4.412   1.328   0.681  0.6297 -0.9635  0.5518
 6092TIP3   OH239834   5.635   3.832   0.669  0.2413  0.0471  0.5074
 6092TIP3    H139835   5.713   3.881   0.645  0.1341 -0.2269 -0.4710
 6092TIP3    H239836   5.624   3.769   0.597  0.0991 -1.0647  1.4817
 6093TIP3   OH239837   0.153   4.360   0.310 -0.1676 -0.0061  0.2383
 6093TIP3    H139838   0.093   4.414   0.259  1.7070  0.8093 -1.2058
 6093TIP3    H239839   0.097   4.295   0.353 -1.9744  0.1952 -1.6928
 6094TIP3   OH239840   1.003   4.611   7.635 -0.4187 -0.0124 -0.0250
 6094TIP3    H139841   1.060   4.619   7.712  0.3010  3.0956 -0.7450
 6094TIP3    H239842   0.917   4.636   7.667 -0.7279 -1.3537  0.2869
 6095TIP3   OH239843   2.979   6.689   7.305 -1.0810  0.0923 -0.0543
 6095TIP3    H139844   2.991   6.693   7.400  0.8231  1.4882 -0.2786
 6095TIP3    H239845   3.061   6.650   7.272 -2.2414 -1.6215 -1.0789
 6096TIP3   OH239846   4.327   1.424   7.814  0.1245 -0.0839  0.4531
 6096TIP3    H139847   4.333   1.518   7.832 -2.0671 -0.0532  1.2613
 6096TIP3    H239848   4.376   1.383   7.885  2.8648  0.4031 -0.9769
 6097TIP3   OH239849   1.615   5.313   6.676  0.7416  0.6865  0.0044
 6097TIP3    H139850   1.555   5.275   6.612  3.2963 -1.0300 -1.5958
 6097TIP3    H239851   1.625   5.404   6.648 -1.2662  1.0946  0.4956
 6098TIP3   OH239852   3.605   4.202   7.852 -0.0321  0.0022 -0.4578
 6098TIP3    H139853   3.596   4.108   7.832 -1.0551 -0.4618  1.8480
 6098TIP3    H239854   3.558   4.246   7.781 -2.9448 -1.4731  0.3601
 6099TIP3   OH239855   0.845   6.280   6.585 -0.2972  0.5869  0.3998
 6099TIP3    H139856   0.818   6.273   6.494  1.1951 -1.9895  0.0741
 6099TIP3    H239857   0.791   6.215   6.631  0.8730 -0.1000  0.8344
 6100TIP3   OH239858   7.162   4.802   1.626 -0.6626 -0.7863  0.9148
 6100TIP3    H139859   7.108   4.782   1.550  2.0765 -2.9555 -0.6683
 6100TIP3    H239860   7.149   4.895   1.642 -2.0276 -0.4572 -1.6415
 6101TIP3   OH239861   0.674   1.625   1.680 -0.0141 -0.1967  0.8151
 6101TIP3    H139862   0.595   1.591   1.638  0.1819  0.3023  0.0221
 6101TIP3    H239863   0.737   1.634   1.608  0.2920  0.7901  1.1948
 6102TIP3   OH239864   4.959   5.320   7.751 -0.4326  0.3241 -0.6247
 6102TIP3    H139865   4.920   5.378   7.816 -0.4506 -0.7725  0.3770
 6102TIP3    H239866   5.051   5.345   7.747  0.0248 -0.8714  1.3146
 6103TIP3   OH239867   4.346   5.905   7.650 -0.0139 -0.0621 -0.7895
 6103TIP3    H139868   4.399   5.832   7.617  0.4201 -0.8372  1.4159
 6103TIP3    H239869   4.407   5.979   7.654  0.6292 -0.6331  0.5906
 6104TIP3   OH239870   0.524   5.408   0.540  0.2686 -0.6553  0.3776
 6104TIP3    H139871   0.508   5.329   0.489  1.0096 -1.1846  0.9569
 6104TIP3    H239872   0.605   5.444   0.504 -0.6184  0.4683 -0.6257
 6105TIP3   OH239873   1.077   1.923   0.996  0.6739  0.1372  0.4025
 6105TIP3    H139874   1.120   1.975   1.064  2.1617 -1.4281  0.7430
 6105TIP3    H239875   1.148   1.894   0.939 -0.4723  0.9291 -1.5428
 6106TIP3   OH239876   1.200   0.815   6.960  0.0768 -0.5716  0.7189
 6106TIP3    H139877   1.201   0.816   7.055  1.3830  3.3720  0.8266
 6106TIP3    H239878   1.113   0.847   6.936  0.9083  2.0256  0.8189
 6107TIP3   OH239879   2.543   5.625   7.692  0.5906  0.0308 -0.5670
 6107TIP3    H139880   2.483   5.553   7.710  0.5603  0.2064  0.0670
 6107TIP3    H239881   2.586   5.601   7.610  0.2933 -0.5149 -0.5680
 6108TIP3   OH239882   6.059   1.120   7.060 -0.1046 -0.7322 -0.3236
 6108TIP3    H139883   6.044   1.036   7.104 -1.3839  0.8022  2.4730
 6108TIP3    H239884   6.152   1.137   7.070 -0.0297 -1.3321  0.0228
 6109TIP3   OH239885   5.523   2.002   7.618  0.1095 -0.1668  0.4848
 6109TIP3    H139886   5.465   1.996   7.693  0.1708  1.5454  0.7128
 6109TIP3    H239887   5.479   2.062   7.558  0.2470 -1.1922 -0.6879
 6110TIP3   OH239888   3.774   4.414   0.671  0.7649 -0.1269  0.4671
 6110TIP3    H139889   3.765   4.495   0.722  0.4596  0.0621  0.1189
 6110TIP3    H239890   3.862   4.419   0.635  0.5456  0.3297 -0.0189
 6111TIP3   OH239891   6.667   6.443   2.134  0.2897  0.3780 -0.3980
 6111TIP3    H139892   6.602   6.373   2.144 -0.7331  1.3789  0.1962
 6111TIP3    H239893   6.658   6.496   2.213  1.5688  0.7742 -0.4903
 6112TIP3   OH239894   5.100   3.584   0.205 -0.5257 -0.6423 -0.3315
 6112TIP3    H139895   5.062   3.508   0.248  0.4079 -1.2698 -0.5966
 6112TIP3    H239896   5.115   3.646   0.277 -0.0901 -1.2137  0.0816
 6113TIP3   OH239897   5.973   7.085   6.980 -0.4200 -0.4006  0.4192
 6113TIP3    H139898   5.967   7.042   6.895 -1.7263  1.6539 -0.5716
 6113TIP3    H239899   6.013   7.170   6.962  1.2156 -0.6990  2.2061
 6114TIP3   OH239900   0.379   0.937   0.858 -0.1483  0.1302 -0.6804
 6114TIP3    H139901   0.410   0.911   0.771 -0.1171 -2.1976 -0.0256
 6114TIP3    H239902   0.379   0.857   0.909  0.6424  1.5971  1.7718
 6115TIP3   OH239903   3.596   2.679   1.627  0.3787  0.0779  0.5265
 6115TIP3    H139904   3.554   2.616   1.686  0.1126 -1.4784 -1.2359
 6115TIP3    H239905   3.632   2.746   1.686  0.7199 -1.7210  2.5132
 6116TIP3   OH239906   2.066   1.677   1.272 -0.1980 -0.3687  0.0146
 6116TIP3    H139907   2.137   1.639   1.220 -0.8291  0.4988 -1.5393
 6116TIP3    H239908   2.111   1.734   1.335  0.5661 -1.1940  0.2402
 6117TIP3   OH239909   4.471   2.823   0.740  0.3424 -1.2027  0.7957
 6117TIP3    H139910   4.546   2.776   0.777  0.6929 -1.1638  0.1462
 6117TIP3    H239911   4.422   2.853   0.816  1.2774 -0.7609  1.2377
 6118TIP3   OH239912   2.822   1.150   0.509 -0.0808 -0.1280 -0.5025
 6118TIP3    H139913   2.907   1.121   0.477  0.0049 -1.5239  0.8999
 6118TIP3    H239914   2.821   1.245   0.492  2.4671  0.2501  0.9827
 6119TIP3   OH239915   5.279   0.675   6.950 -0.6110 -0.1600  0.8484
 6119TIP3    H139916   5.256   0.676   7.043 -0.4671  1.8027  0.8996
 6119TIP3    H239917   5.216   0.615   6.910 -0.7604 -0.9250  2.1745
 6120TIP3   OH239918   6.820   0.914   6.794 -0.0560 -0.0703  0.4054
 6120TIP3    H139919   6.825   0.855   6.869 -0.8355 -0.5674  0.0726
 6120TIP3    H239920   6.732   0.903   6.760  0.4840 -0.3201 -0.9803
 6121TIP3   OH239921   0.576   5.126   7.256  0.1236  0.1994  0.2584
 6121TIP3    H139922   0.525   5.138   7.176 -0.1239  0.7690  0.4954
 6121TIP3    H239923   0.647   5.189   7.248 -0.5138  1.0237  0.9797
 6122TIP3   OH239924   6.468   0.659   6.593 -0.5302  0.5609 -0.1595
 6122TIP3    H139925   6.392   0.673   6.536  0.2547  0.8623 -1.1695
 6122TIP3    H239926   6.526   0.732   6.572  0.1771  0.1567  0.3758
 6123TIP3   OH239927   6.833   5.053   1.522  0.6291  0.5073  0.1441
 6123TIP3    H139928   6.825   5.124   1.586  0.3677  0.6984 -0.0937
 6123TIP3    H239929   6.808   5.094   1.439  0.5881  0.1654 -0.0130
 6124TIP3   OH239930   1.866   5.680   7.751  0.0285 -0.2511 -0.2903
 6124TIP3    H139931   1.921   5.744   7.705 -0.0562  0.1856  0.2005
 6124TIP3    H239932   1.847   5.614   7.686 -1.4946  1.2057 -1.3956
 6125TIP3   OH239933   4.950   1.182   7.974  0.5541 -0.1462 -0.9743
 6125TIP3    H139934   5.040   1.152   7.961  1.0507  1.9223 -2.9450
 6125TIP3    H239935   4.958   1.257   8.033 -0.1869 -1.2155  0.5629
 6126TIP3   OH239936   3.303   1.990   0.333  0.1514  0.6663  0.0624
 6126TIP3    H139937   3.320   2.048   0.407  0.9277 -0.9152  1.1745
 6126TIP3    H239938   3.209   1.972   0.338  0.0350  1.2495  0.1118
 6127TIP3   OH239939   4.710   2.377   0.703 -0.1011 -0.4551 -0.3702
 6127TIP3    H139940   4.780   2.405   0.644  0.5770 -2.2638 -0.4893
 6127TIP3    H239941   4.685   2.290   0.672 -2.2561  0.0197 -0.1571
 6128TIP3   OH239942   5.816   6.061   0.979  0.0311  0.1242 -0.5251
 6128TIP3    H139943   5.853   6.035   1.063  0.7259  1.0609 -0.5200
 6128TIP3    H239944   5.731   6.098   1.000  0.0935  0.1179 -0.2584
 6129TIP3   OH239945   4.054   3.789   2.040 -0.0966  0.0906 -0.0492
 6129TIP3    H139946   4.005   3.731   1.981  0.0980 -0.8107  0.6501
 6129TIP3    H239947   4.084   3.731   2.110  0.5107  0.9626  0.4212
 6130TIP3   OH239948   1.064   6.588   6.745  0.0890 -0.1075 -0.3931
 6130TIP3    H139949   1.111   6.572   6.663 -2.5672 -0.5949 -1.9225
 6130TIP3    H239950   1.124   6.558   6.813  0.8865 -3.5405 -2.3573
 6131TIP3   OH239951   6.697   6.341   2.434  0.4758  0.0133  0.1279
 6131TIP3    H139952   6.781   6.340   2.387  0.6356  0.8006  0.3974
 6131TIP3    H239953   6.646   6.272   2.391  0.5352  0.8645 -1.3778
 6132TIP3   OH239954   6.021   0.361   0.093  0.5754 -0.4880  0.1425
 6132TIP3    H139955   5.986   0.397   0.175 -1.4201 -1.0588 -0.4084
 6132TIP3    H239956   5.980   0.413   0.025  3.1154  0.7629 -0.5515
 6133TIP3   OH239957   0.626   6.532   0.990 -0.0781 -0.2406 -0.5348
 6133TIP3    H139958   0.613   6.459   1.049 -0.4847 -0.2031 -0.5730
 6133TIP3    H239959   0.635   6.492   0.903 -0.1610 -0.2564 -0.5366
 6134TIP3   OH239960   5.461   4.462   7.851  0.0916 -0.3884  0.4877
 6134TIP3    H139961   5.448   4.380   7.898 -0.5268  0.0749  1.1680
 6134TIP3    H239962   5.541   4.450   7.801  0.8504 -0.8720  1.7656
 6135TIP3   OH239963   7.030   1.393   7.099 -0.2640  0.9137  0.1698
 6135TIP3    H139964   7.061   1.307   7.071 -3.6587 -0.2292 -0.5334
 6135TIP3    H239965   7.105   1.452   7.084  1.8808 -1.7001 -0.1388
 6136TIP3   OH239966   1.186   2.911   6.935 -0.1610 -0.4843  0.1426
 6136TIP3    H139967   1.134   2.988   6.960  0.3883  0.1502 -0.6280
 6136TIP3    H239968   1.264   2.947   6.892  0.2226 -1.4652 -0.0074
 6137TIP3   OH239969   4.316   2.704   0.923 -0.4856  0.2073  0.3056
 6137TIP3    H139970   4.268   2.784   0.944 -3.1813 -1.2659  0.3404
 6137TIP3    H239971   4.276   2.673   0.841  1.3038 -0.5200 -0.3442
 6138TIP3   OH239972   6.520   6.381   6.796  0.0644 -0.3934 -0.5668
 6138TIP3    H139973   6.605   6.389   6.753 -0.7706 -0.3710 -2.3167
 6138TIP3    H239974   6.487   6.295   6.768 -1.9947  1.0301 -2.9563
 6139TIP3   OH239975   7.064   4.960   7.280  0.4350  0.1423  0.3399
 6139TIP3    H139976   7.023   4.909   7.210  0.9030 -0.1974  0.3046
 6139TIP3    H239977   6.995   5.018   7.311  0.3855  0.7174 -0.7970
 6140TIP3   OH239978   2.124   6.182   6.198 -0.1425  0.0031 -0.5020
 6140TIP3    H139979   2.166   6.140   6.123  3.0166  3.6028 -1.0387
 6140TIP3    H239980   2.145   6.275   6.188 -2.5399  1.1171  3.0785
 6141TIP3   OH239981   6.920   2.542   1.102  0.3514  0.0968 -0.1117
 6141TIP3    H139982   6.971   2.619   1.125 -1.2854  1.7223 -1.5910
 6141TIP3    H239983   6.830   2.575   1.092 -0.4702 -2.0685 -0.5103
 6142TIP3   OH239984   3.973   0.356   6.383  0.8370 -0.5003  0.3931
 6142TIP3    H139985   4.002   0.347   6.292  1.5854 -0.3508  0.6076
 6142TIP3    H239986   4.049   0.330   6.435  0.4204 -0.5668  0.9776
 6143TIP3   OH239987   3.885   0.437   1.204 -0.1750  0.0792  0.4239
 6143TIP3    H139988   3.943   0.408   1.133 -1.6294  0.1365 -0.8194
 6143TIP3    H239989   3.889   0.367   1.269  1.7182  0.3405  0.6485
 6144TIP3   OH239990   2.061   1.315   1.239 -0.3151 -0.2082  0.1621
 6144TIP3    H139991   2.056   1.259   1.317 -0.6837  1.6036  1.5169
 6144TIP3    H239992   2.147   1.296   1.202 -0.0446 -0.9914  1.1276
 6145TIP3   OH239993   0.600   2.405   0.658  0.2488 -0.0665 -0.2794
 6145TIP3    H139994   0.564   2.328   0.703  0.8799 -1.3197 -1.8353
 6145TIP3    H239995   0.694   2.388   0.655  0.3768  0.7204 -0.7464
 6146TIP3   OH239996   0.321   6.996   1.025  0.7306 -0.7290 -0.5811
 6146TIP3    H139997   0.336   7.075   0.972  1.4281  0.1149  0.8088
 6146TIP3    H239998   0.233   6.968   1.001  0.4208  0.5455 -1.0268
 6147TIP3   OH239999   7.076   5.786   6.938 -0.5715 -0.8890  0.0313
 6147TIP3    H140000   7.088   5.812   6.847 -0.4598 -0.5064  0.1528
 6147TIP3    H240001   6.981   5.777   6.948 -0.5050 -2.8606 -0.6379
 6148TIP3   OH240002   4.558   1.832   7.385 -0.1150 -0.6351 -0.6127
 6148TIP3    H140003   4.500   1.803   7.314 -2.6040 -0.3493  1.2025
 6148TIP3    H240004   4.521   1.793   7.464  0.7467  1.5344  0.9571
 6149TIP3   OH240005   5.004   4.147   7.679  0.3622 -0.1786  0.3042
 6149TIP3    H140006   4.969   4.122   7.765 -1.4197  1.5538  0.1465
 6149TIP3    H240007   5.017   4.064   7.633 -1.2046 -1.0160  1.3032
 6150TIP3   OH240008   5.074   6.162   7.671  0.4516 -0.3137 -0.0378
 6150TIP3    H140009   5.155   6.137   7.627 -0.3010 -1.4234 -0.8233
 6150TIP3    H240010   5.063   6.255   7.649 -0.2727 -0.9885 -2.8559
 6151TIP3   OH240011   4.548   0.435   1.951  0.4287 -0.0812  0.4179
 6151TIP3    H140012   4.477   0.476   1.903  1.6250 -0.5917 -1.9597
 6151TIP3    H240013   4.601   0.508   1.984 -0.3021  0.2775  0.8087
 6152TIP3   OH240014   4.456   2.506   1.388 -0.4340  0.2399  0.1303
 6152TIP3    H140015   4.480   2.558   1.465 -0.2225  0.3473 -0.0050
 6152TIP3    H240016   4.398   2.563   1.338 -1.4116 -0.2154  0.7161
 6153TIP3   OH240017   3.948   5.386   6.912 -0.1420 -0.4279  0.1376
 6153TIP3    H140018   4.026   5.336   6.886 -0.3158 -1.4378  1.4266
 6153TIP3    H240019   3.950   5.464   6.857  3.5979  1.2784  2.2515
 6154TIP3   OH240020   4.433   1.360   0.022  0.0498 -0.1252  0.6831
 6154TIP3    H140021   4.496   1.316   0.078  1.1027 -0.4754 -0.7335
 6154TIP3    H240022   4.368   1.397   0.082  1.5362  0.1457  2.1575
 6155TIP3   OH240023   3.302   4.667   7.949  0.1285 -0.4210  0.4583
 6155TIP3    H140024   3.253   4.744   7.921 -0.3008 -0.7222  0.3739
 6155TIP3    H240025   3.288   4.603   7.878 -2.0438 -1.6650  1.8847
 6156TIP3   OH240026   4.919   6.424   1.142  0.0537  0.0470 -0.5061
 6156TIP3    H140027   4.870   6.342   1.139 -0.1432  0.0566  1.5194
 6156TIP3    H240028   4.853   6.492   1.156  0.3936  0.3478 -0.3400
 6157TIP3   OH240029   0.052   3.584   7.195 -0.3508  0.1912  0.4143
 6157TIP3    H140030  -0.028   3.567   7.147 -1.4206  1.7476  1.5419
 6157TIP3    H240031   0.024   3.591   7.287  1.4782 -1.8222  1.2045
 6158TIP3   OH240032   4.648   2.612   7.477  0.6734  0.2994 -0.1446
 6158TIP3    H140033   4.655   2.579   7.388  0.6686  1.4753 -0.5891
 6158TIP3    H240034   4.568   2.664   7.478  0.6562  0.2694  0.5537
 6159TIP3   OH240035   3.444   4.840   6.827 -0.3065 -0.7401 -0.0133
 6159TIP3    H140036   3.370   4.804   6.778 -1.1978  1.8792 -0.7123
 6159TIP3    H240037   3.461   4.925   6.787  1.7752 -0.3821  1.4644
 6160TIP3   OH240038   1.682   1.933   0.522  0.1483 -0.4492 -0.8895
 6160TIP3    H140039   1.707   2.021   0.493 -1.0845  0.3582  0.3909
 6160TIP3    H240040   1.591   1.941   0.550 -0.5191 -2.5217 -2.2078
 6161TIP3   OH240041   7.166   6.786   0.537  0.1979  0.0740  0.1601
 6161TIP3    H140042   7.205   6.782   0.449  1.9777  0.2623  0.9201
 6161TIP3    H240043   7.230   6.744   0.594 -0.7204  0.3824  1.4608
 6162TIP3   OH240044   1.142   7.159   7.099  0.3479  0.5367 -0.4564
 6162TIP3    H140045   1.139   7.186   7.007 -1.0226 -0.5993 -0.7785
 6162TIP3    H240046   1.063   7.197   7.137  1.2564  1.5734  0.4434
 6163TIP3   OH240047   0.219   4.019   0.864  0.0591 -0.0791 -0.5645
 6163TIP3    H140048   0.218   3.940   0.811 -0.8726 -0.3948 -0.1089
 6163TIP3    H240049   0.188   3.991   0.950 -0.7974  0.8628 -0.5366
 6164TIP3   OH240050   4.716   5.552   6.818  0.2206 -0.6213 -0.2788
 6164TIP3    H140051   4.621   5.551   6.810  0.2602  0.1623 -0.9310
 6164TIP3    H240052   4.745   5.623   6.761  1.1733 -0.5930  0.2098
 6165TIP3   OH240053   6.204   0.422   6.449 -0.0035 -0.5451 -0.0813
 6165TIP3    H140054   6.246   0.380   6.524 -0.3450 -0.3000  0.2537
 6165TIP3    H240055   6.142   0.356   6.417 -1.6440  0.1935  1.3751
 6166TIP3   OH240056   5.724   3.276   1.452 -0.0307  0.0979 -0.7135
 6166TIP3    H140057   5.676   3.320   1.522 -1.8260 -3.2530  0.3828
 6166TIP3    H240058   5.812   3.265   1.486 -0.8501 -1.3985  1.1355
 6167TIP3   OH240059   1.192   5.611   7.528  0.4627  0.0091  0.0781
 6167TIP3    H140060   1.196   5.608   7.623  2.0444 -1.2617  0.0050
 6167TIP3    H240061   1.227   5.697   7.505  0.1801  0.2725  0.6270
 6168TIP3   OH240062   2.791   6.647   1.971 -0.1451 -0.3054  0.1414
 6168TIP3    H140063   2.765   6.628   2.061  1.2508  0.1127  0.6516
 6168TIP3    H240064   2.781   6.742   1.963 -0.0809 -0.3165 -0.0843
 6169TIP3   OH240065   2.201   7.164   1.485 -0.1296  0.0805 -0.1875
 6169TIP3    H140066   2.288   7.177   1.523 -0.0284  0.3657 -0.5085
 6169TIP3    H240067   2.208   7.082   1.437 -0.4261 -0.5803  0.8773
 6170TIP3   OH240068   6.903   5.263   0.573  0.5718 -0.7818 -0.4529
 6170TIP3    H140069   6.862   5.335   0.524 -0.5812  0.2479  1.8385
 6170TIP3    H240070   6.932   5.304   0.655  0.3782 -2.8280  0.7018
 6171TIP3   OH240071   6.789   5.488   0.498  0.3938  0.5049  0.3354
 6171TIP3    H140072   6.749   5.556   0.551  0.4102  0.0416  0.9593
 6171TIP3    H240073   6.716   5.433   0.470  0.2571  1.3263 -1.0049
 6172TIP3   OH240074   4.910   1.298   6.368 -0.0987 -0.5793 -0.8743
 6172TIP3    H140075   4.894   1.393   6.370  2.5587 -0.0135 -1.6915
 6172TIP3    H240076   4.930   1.279   6.276 -0.8360 -2.0072 -0.7665
 6173TIP3   OH240077   1.090   7.144   1.906  0.6452  0.0375 -0.0691
 6173TIP3    H140078   1.009   7.094   1.899  0.0059  0.6335  2.1434
 6173TIP3    H240079   1.159   7.078   1.907 -0.0532 -0.7130  0.9315
 6174TIP3   OH240080   2.695   4.041   1.684 -0.0895 -0.3455  0.0939
 6174TIP3    H140081   2.615   4.090   1.663  0.7968 -0.2663 -3.8510
 6174TIP3    H240082   2.762   4.108   1.695  0.1253 -0.5142 -0.1913
 6175TIP3   OH240083   3.609   0.602   6.478  0.2106 -0.3257 -0.1603
 6175TIP3    H140084   3.663   0.670   6.517 -0.8528  1.1278 -1.0850
 6175TIP3    H240085   3.520   0.620   6.510  0.0997 -2.1637  0.6989
 6176TIP3   OH240086   3.253   5.681   7.580  0.0989 -0.3458 -0.7257
 6176TIP3    H140087   3.257   5.767   7.623  0.0516 -1.8826  2.6786
 6176TIP3    H240088   3.345   5.654   7.574  0.0323 -0.6594 -0.3776
 6177TIP3   OH240089   5.746   5.506   6.452 -0.1814  0.2777  0.2512
 6177TIP3    H140090   5.767   5.600   6.446  0.9345  0.0725  0.7024
 6177TIP3    H240091   5.738   5.489   6.545  0.0402 -0.1687  0.1897
 6178TIP3   OH240092   6.641   1.892   6.150 -0.6278  0.4412 -0.4333
 6178TIP3    H140093   6.631   1.831   6.224  0.2136  1.5787  0.6684
 6178TIP3    H240094   6.609   1.843   6.074 -3.3365 -0.1036  0.9418
 6179TIP3   OH240095   4.425   3.486   0.303 -0.1969  0.2568  0.1067
 6179TIP3    H140096   4.451   3.552   0.239 -1.5434  0.8858  0.1575
 6179TIP3    H240097   4.462   3.517   0.386 -0.6400  0.8627  0.0920
 6180TIP3   OH240098   5.442   1.248   0.282  0.0919 -0.1089 -0.3305
 6180TIP3    H140099   5.506   1.260   0.353  0.7049  0.1929 -0.9262
 6180TIP3    H240100   5.488   1.195   0.217 -0.9303 -1.5729  0.0855
 6181TIP3   OH240101   1.043   4.356   7.321 -0.4674  0.1410  0.1561
 6181TIP3    H140102   1.008   4.318   7.401 -0.8253  0.6125  0.2240
 6181TIP3    H240103   1.091   4.284   7.280 -0.5326 -0.1856  0.6400
 6182TIP3   OH240104   1.729   3.417   1.806  0.1130  0.0473  0.0658
 6182TIP3    H140105   1.821   3.444   1.817 -0.0345  0.5781  0.0182
 6182TIP3    H240106   1.735   3.328   1.770  0.6100  0.0501  0.1278
 6183TIP3   OH240107   0.872   6.599   7.775  0.3214  0.1136 -0.4711
 6183TIP3    H140108   0.935   6.532   7.801  0.3791  0.6734  0.8700
 6183TIP3    H240109   0.909   6.636   7.694  1.7560  0.4792  0.3185
 6184TIP3   OH240110   6.253   0.677   6.417  0.2337  0.6520 -0.0843
 6184TIP3    H140111   6.206   0.725   6.349  0.7126 -0.1502 -1.0315
 6184TIP3    H240112   6.228   0.585   6.401  1.3189  0.3292  0.0247
 6185TIP3   OH240113   0.075   6.925   6.783 -0.4330  0.5886  1.0506
 6185TIP3    H140114   0.077   7.004   6.729  0.7322 -0.8065 -1.0877
 6185TIP3    H240115  -0.008   6.883   6.759 -0.1307  0.1927  0.7030
 6186TIP3   OH240116   2.264   5.637   5.848 -0.1653 -0.3883  0.1338
 6186TIP3    H140117   2.207   5.713   5.831 -1.9875 -1.2055  2.1409
 6186TIP3    H240118   2.255   5.582   5.770 -1.3634 -0.0383  0.0099
 6187TIP3   OH240119   3.932   4.066   1.815  0.6761  0.5424 -0.2824
 6187TIP3    H140120   3.873   4.088   1.887 -0.2867  0.7113 -1.0936
 6187TIP3    H240121   4.017   4.050   1.857  0.2546  1.1110  0.8237
 6188TIP3   OH240122   2.884   0.993   0.727 -0.0218 -0.2097 -0.3221
 6188TIP3    H140123   2.855   1.062   0.666 -2.8590 -0.1193  0.9622
 6188TIP3    H240124   2.845   1.018   0.811  3.9831 -0.1820  1.7425
 6189TIP3   OH240125   0.163   3.344   7.162 -0.1372  0.1768 -0.4915
 6189TIP3    H140126   0.154   3.436   7.186 -0.4684  0.1762 -0.6033
 6189TIP3    H240127   0.122   3.338   7.075 -0.2092 -0.0944 -0.4400
 6190TIP3   OH240128   5.161   0.347   1.447  0.3690 -0.1873 -0.2305
 6190TIP3    H140129   5.220   0.274   1.429 -1.7115 -2.0793  0.3026
 6190TIP3    H240130   5.178   0.370   1.538  1.3092  0.3064 -0.5151
 6191TIP3   OH240131   0.243   5.943   0.346 -0.3918  0.4492  0.2691
 6191TIP3    H140132   0.286   5.859   0.361 -0.8700 -0.5238 -3.0569
 6191TIP3    H240133   0.149   5.923   0.346 -0.5189  1.0085 -0.3919
 6192TIP3   OH240134   4.299   7.052   6.161  0.0851 -0.4493 -0.2482
 6192TIP3    H140135   4.266   7.017   6.078 -1.6141  1.4225 -0.4453
 6192TIP3    H240136   4.348   7.130   6.135 -0.3436  0.0665  0.4640
 6193TIP3   OH240137   2.314   4.961   1.433 -0.0994  0.3606 -0.3203
 6193TIP3    H140138   2.297   4.945   1.340  2.6548 -0.7949 -0.7235
 6193TIP3    H240139   2.392   4.909   1.452  0.9140  2.5334  2.0156
 6194TIP3   OH240140   5.994   5.455   0.818  0.6012 -0.0515 -0.2782
 6194TIP3    H140141   6.055   5.464   0.892  0.7729 -0.9908 -0.2996
 6194TIP3    H240142   5.909   5.477   0.855  0.5958 -1.0881  0.3551
 6195TIP3   OH240143   5.294   1.873   0.795 -0.6052 -0.0344  0.0375
 6195TIP3    H140144   5.352   1.913   0.730 -3.2732  0.5961 -2.1303
 6195TIP3    H240145   5.260   1.947   0.846 -0.4939 -0.2692  0.4572
 6196TIP3   OH240146   0.317   1.519   6.866  0.3067  0.2757 -0.8240
 6196TIP3    H140147   0.355   1.560   6.944 -1.2439 -1.3964  0.9322
 6196TIP3    H240148   0.222   1.529   6.877  0.0112 -1.0413 -1.8656
 6197TIP3   OH240149   6.536   2.405   7.967  0.5961 -0.2824 -0.6401
 6197TIP3    H140150   6.442   2.405   7.981  0.8041 -2.2022  1.5289
 6197TIP3    H240151   6.550   2.458   7.889 -2.2496  0.1229 -0.9573
 6198TIP3   OH240152   1.767   1.182   1.048  0.0368 -0.0495  0.2167
 6198TIP3    H140153   1.853   1.198   1.008 -0.1327  0.8826  0.1957
 6198TIP3    H240154   1.720   1.130   0.983 -0.3763  1.7805 -1.0404
 6199TIP3   OH240155   6.413   7.042   7.934 -0.2831 -0.2397  0.4473
 6199TIP3    H140156   6.317   7.043   7.937 -0.3300 -1.6542  0.2941
 6199TIP3    H240157   6.436   7.109   7.870 -1.1164  0.8658  1.2760
 6200TIP3   OH240158   6.010   6.036   6.973 -0.3395 -0.2383 -0.0150
 6200TIP3    H140159   5.946   6.011   7.040 -0.4792  0.0149 -0.0519
 6200TIP3    H240160   5.967   6.019   6.890  0.6813 -2.8059 -0.1057
 6201TIP3   OH240161   6.490   5.644   7.977 -0.1491  0.0637 -0.2857
 6201TIP3    H140162   6.490   5.552   8.004 -0.5067  0.1265 -0.0581
 6201TIP3    H240163   6.515   5.642   7.885  1.0420 -0.1627  0.0310
 6202TIP3   OH240164   2.065   1.048   6.233  0.1489 -0.3736  0.3401
 6202TIP3    H140165   2.145   1.096   6.213 -1.4828  2.8652  0.9680
 6202TIP3    H240166   2.090   0.956   6.227  3.5753  0.4956 -0.6746
 6203TIP3   OH240167   4.058   5.032   6.106 -0.0353 -0.4083  0.0115
 6203TIP3    H140168   4.151   5.052   6.114 -0.6668  2.7489  0.8544
 6203TIP3    H240169   4.037   4.986   6.188  0.9333 -2.1979 -0.6852
 6204TIP3   OH240170   2.136   2.812   0.237 -0.2609  0.7663  0.3831
 6204TIP3    H140171   2.078   2.829   0.162 -0.2766 -0.5983  0.0505
 6204TIP3    H240172   2.206   2.758   0.201  3.1999  5.0305 -0.0114
 6205TIP3   OH240173   3.470   2.020   6.175 -0.0658 -0.0378 -0.0346
 6205TIP3    H140174   3.393   1.982   6.133  0.1780 -1.0890  0.4531
 6205TIP3    H240175   3.458   2.005   6.268 -0.1413  1.4417  0.2163
 6206TIP3   OH240176   3.969   6.216   0.481  0.4030  0.0106 -0.3422
 6206TIP3    H140177   4.027   6.162   0.427  0.2208 -2.0028  1.3380
 6206TIP3    H240178   3.907   6.153   0.518  0.0686  1.4204  1.5988
 6207TIP3   OH240179   6.955   4.860   1.000  0.1116  0.5201 -0.3284
 6207TIP3    H140180   6.994   4.827   0.919  0.4640  0.0442  0.0336
 6207TIP3    H240181   7.030   4.886   1.054 -0.1007  0.3376  0.0586
 6208TIP3   OH240182   7.075   0.741   7.967  0.4866  0.5643  0.9472
 6208TIP3    H140183   7.051   0.814   8.025  0.3069  1.7323 -0.5177
 6208TIP3    H240184   7.154   0.704   8.006  0.4385  1.3808  1.8692
 6209TIP3   OH240185   4.291   0.905   7.028  0.0513 -0.0827  0.4477
 6209TIP3    H140186   4.379   0.874   7.047 -0.5780 -0.9664  2.1058
 6209TIP3    H240187   4.248   0.831   6.986 -0.0455  0.1990  0.0424
 6210TIP3   OH240188   0.383   3.555   0.083  0.0859 -0.1700 -0.4331
 6210TIP3    H140189   0.325   3.502   0.137 -0.4905  1.1957  0.3493
 6210TIP3    H240190   0.367   3.645   0.112  1.6402  0.3616 -1.1205
 6211TIP3   OH240191   6.004   3.354   0.495 -0.3494  0.0473 -0.3313
 6211TIP3    H140192   5.987   3.275   0.445  0.2754  0.2847 -0.9258
 6211TIP3    H240193   6.065   3.405   0.441  0.6872  0.1068  0.8451
 6212TIP3   OH240194   1.889   4.835   7.142 -0.1178 -0.3705  0.5263
 6212TIP3    H140195   1.803   4.801   7.164 -0.7079  0.6329 -0.1483
 6212TIP3    H240196   1.930   4.854   7.227 -0.0582 -2.0195  0.8854
 6213TIP3   OH240197   7.147   4.456   5.980  0.1461 -0.4079 -0.1052
 6213TIP3    H140198   7.135   4.380   5.923 -1.0645  0.4218 -0.9903
 6213TIP3    H240199   7.085   4.443   6.051  2.0707 -1.7484  1.4537
 6214TIP3   OH240200   3.843   3.024   0.137 -0.2724 -0.2792 -0.4651
 6214TIP3    H140201   3.778   3.078   0.092 -2.3202  0.2517  2.8013
 6214TIP3    H240202   3.798   2.943   0.157  1.2336 -1.3192 -1.0852
 6215TIP3   OH240203   5.303   3.230   7.791  0.2995  0.0768 -0.2471
 6215TIP3    H140204   5.321   3.269   7.705 -0.2601 -0.9630 -0.8629
 6215TIP3    H240205   5.237   3.163   7.773  2.2937 -2.2256  0.4492
 6216TIP3   OH240206   5.538   4.807   7.468 -0.3304 -0.2530  0.2196
 6216TIP3    H140207   5.491   4.878   7.513 -1.4215 -1.4709  1.0468
 6216TIP3    H240208   5.620   4.798   7.517  0.2656  1.0434 -0.4751
 6217TIP3   OH240209   4.284   6.846   0.891  0.5004  0.2964  0.4745
 6217TIP3    H140210   4.190   6.832   0.876  0.4290  0.4764  0.7323
 6217TIP3    H240211   4.287   6.905   0.967  0.8371 -0.6497  1.2269
 6218TIP3   OH240212   4.243   2.953   1.059 -0.4744  0.2349 -0.6422
 6218TIP3    H140213   4.203   2.942   1.146  1.8704  2.2516  0.8108
 6218TIP3    H240214   4.201   3.030   1.023  1.5781  2.1312  0.7306
 6219TIP3   OH240215   2.869   2.970   1.681  0.3366  0.0565 -0.2651
 6219TIP3    H140216   2.891   3.018   1.602  2.2640 -0.9461 -0.3943
 6219TIP3    H240217   2.949   2.973   1.734 -0.2115 -1.1150  0.6752
 6220TIP3   OH240218   5.786   0.640   7.771 -0.4920 -0.1654  0.1099
 6220TIP3    H140219   5.739   0.560   7.745 -0.3346 -0.1375 -0.2631
 6220TIP3    H240220   5.718   0.708   7.772 -0.6476 -0.3257  0.5352
 6221TIP3   OH240221   0.868   6.404   6.885 -0.2623  0.1161 -0.5022
 6221TIP3    H140222   0.802   6.335   6.886  1.5754 -1.7413 -0.8487
 6221TIP3    H240223   0.907   6.399   6.798 -1.6186  3.2420 -1.4534
 6222TIP3   OH240224   1.256   1.065   5.964  0.5164 -0.3143  0.2948
 6222TIP3    H140225   1.343   1.097   5.940  0.5284  0.0484  0.8274
 6222TIP3    H240226   1.198   1.101   5.896  0.8544 -1.0454 -0.4082
 6223TIP3   OH240227   6.867   1.451   1.989  0.0309  0.0980  0.5422
 6223TIP3    H140228   6.825   1.389   2.048  0.4424 -0.9210 -0.1968
 6223TIP3    H240229   6.931   1.398   1.940  1.1906  1.3152  0.6686
 6224TIP3   OH240230   5.123   2.344   1.188  0.2677 -0.2887  0.1515
 6224TIP3    H140231   5.097   2.358   1.097  0.2108  0.4044  0.2746
 6224TIP3    H240232   5.118   2.249   1.200 -1.2618 -0.2551 -0.1037
 6225TIP3   OH240233   2.305   6.258   1.417  0.1165 -0.0911 -0.2899
 6225TIP3    H140234   2.368   6.225   1.482 -1.3363  0.1003  1.2840
 6225TIP3    H240235   2.237   6.300   1.469 -0.3232  1.4956 -2.0507
 6226TIP3   OH240236   4.178   5.090   6.479 -0.6471 -0.1990 -0.0251
 6226TIP3    H140237   4.146   5.179   6.468  0.4032  0.0579 -1.1890
 6226TIP3    H240238   4.143   5.043   6.403 -1.3565 -0.8372  0.6822
 6227TIP3   OH240239   5.470   7.058   0.993 -0.4860  0.0940  0.0029
 6227TIP3    H140240   5.444   7.044   1.084  1.6573  2.7058  1.1404
 6227TIP3    H240241   5.391   7.090   0.950 -0.8313  1.5998  1.6951
 6228TIP3   OH240242   0.179   5.994   0.010 -0.2990 -0.1787  0.8348
 6228TIP3    H140243   0.086   5.975   0.020 -0.3933 -1.1034 -1.3079
 6228TIP3    H240244   0.217   5.913  -0.024  1.0609  0.5917  0.4341
 6229TIP3   OH240245   6.505   5.177   5.793  0.3833 -0.0977 -0.6722
 6229TIP3    H140246   6.535   5.151   5.706 -0.3029 -2.1767 -0.3528
 6229TIP3    H240247   6.413   5.148   5.796  0.7687 -1.3265  1.1741
 6230TIP3   OH240248   3.891   7.084   1.274  0.9836 -0.0377 -0.8304
 6230TIP3    H140249   3.815   7.123   1.318  0.3518  0.0752 -1.9951
 6230TIP3    H240250   3.878   7.103   1.181  2.4007 -0.1053 -1.0611
 6231TIP3   OH240251   5.126   2.234   6.903 -0.5436 -0.2069 -0.1778
 6231TIP3    H140252   5.039   2.221   6.864 -0.4519 -2.8322  0.2577
 6231TIP3    H240253   5.187   2.221   6.830 -0.4877  0.5311 -0.2642
 6232TIP3   OH240254   0.520   5.970   7.365  0.1153 -1.5938 -0.2554
 6232TIP3    H140255   0.507   6.061   7.390 -0.9578 -1.4820 -1.1493
 6232TIP3    H240256   0.604   5.945   7.405 -0.2056 -0.6133  1.0654
 6233TIP3   OH240257   3.626   5.623   6.779 -0.5188 -0.0142  0.1369
 6233TIP3    H140258   3.684   5.689   6.817  1.1447 -0.5251 -1.4029
 6233TIP3    H240259   3.564   5.603   6.849  1.2238  0.4663  1.9068
 6234TIP3   OH240260   6.336   2.648   6.652  0.1566  0.7874 -0.0503
 6234TIP3    H140261   6.388   2.707   6.707 -0.6402  1.1688  0.3003
 6234TIP3    H240262   6.280   2.706   6.600  1.3230  0.4837 -1.7639
 6235TIP3   OH240263   2.297   2.582   6.675  0.6035  0.8269  0.4773
 6235TIP3    H140264   2.215   2.604   6.631  0.0431 -0.1270  1.0126
 6235TIP3    H240265   2.358   2.562   6.604 -0.1791 -0.3043  0.1082
 6236TIP3   OH240266   6.486   1.446   7.680 -0.0449 -0.0962 -0.1208
 6236TIP3    H140267   6.502   1.367   7.732  0.9121 -0.2191 -0.5828
 6236TIP3    H240268   6.424   1.417   7.612 -0.6021 -0.1539  0.4032
 6237TIP3   OH240269   5.215   0.444   0.183  0.1536  0.3949  0.2816
 6237TIP3    H140270   5.229   0.391   0.260 -1.5355 -1.3462 -0.5421
 6237TIP3    H240271   5.175   0.525   0.216 -1.1037 -0.5659  1.1994
 6238TIP3   OH240272   5.767   1.183   6.995 -0.1349  0.0209  0.7050
 6238TIP3    H140273   5.816   1.182   7.077 -1.3656  0.1685  1.4813
 6238TIP3    H240274   5.821   1.234   6.935  0.1753  1.0749  1.8311
 6239TIP3   OH240275   3.128   3.034   7.251 -0.7974  0.1664  0.6862
 6239TIP3    H140276   3.193   3.011   7.184 -2.7933  0.1864 -1.3768
 6239TIP3    H240277   3.136   2.965   7.317  0.5682 -0.4197 -0.0450
 6240TIP3   OH240278   5.375   6.140   1.317  0.2043 -0.3629  0.6254
 6240TIP3    H140279   5.291   6.181   1.298 -1.1333 -3.1574  0.1211
 6240TIP3    H240280   5.353   6.052   1.347  2.9214 -0.8217  1.5553
 6241TIP3   OH240281   0.564   5.899   0.505  0.4643 -0.3301 -0.4718
 6241TIP3    H140282   0.578   5.981   0.457  2.2040 -0.3038 -0.0018
 6241TIP3    H240283   0.546   5.835   0.436 -1.1749  0.4693 -0.8257
 6242TIP3   OH240284   0.831   4.093   7.157 -0.0167  0.4819 -0.2133
 6242TIP3    H140285   0.792   4.149   7.224  0.5106 -0.5872  1.0245
 6242TIP3    H240286   0.757   4.064   7.104 -0.1114  4.0919 -2.3684
 6243TIP3   OH240287   2.226   4.491   0.607  0.3387  0.4771  0.2146
 6243TIP3    H140288   2.139   4.452   0.619  0.0008  1.5921  1.5590
 6243TIP3    H240289   2.252   4.463   0.519 -0.9034 -0.7788  0.2131
 6244TIP3   OH240290   5.957   1.455   7.652  0.1339  0.3922  0.3180
 6244TIP3    H140291   5.907   1.454   7.734  0.4006  0.5328  0.4827
 6244TIP3    H240292   5.980   1.547   7.640  1.3313  0.1757  0.8324
 6245TIP3   OH240293   4.132   5.745   0.906  0.4681 -0.1834  0.0097
 6245TIP3    H140294   4.113   5.672   0.965  0.7393 -0.4806 -0.2635
 6245TIP3    H240295   4.197   5.797   0.953 -0.1280  0.1873  0.4385
 6246TIP3   OH240296   1.381   1.846   0.599 -0.1112  0.1987  0.6339
 6246TIP3    H140297   1.405   1.754   0.598 -0.7609 -0.0308  2.5043
 6246TIP3    H240298   1.290   1.848   0.568  0.1997  0.3358 -0.2985
 6247TIP3   OH240299   3.273   6.492   6.461 -0.8614  0.2405 -0.3159
 6247TIP3    H140300   3.305   6.544   6.535 -1.0253 -2.6934  1.9853
 6247TIP3    H240301   3.179   6.508   6.459 -0.9786 -0.3121  0.6661
 6248TIP3   OH240302   5.325   6.886   0.677  0.2336 -0.1300  0.0571
 6248TIP3    H140303   5.410   6.912   0.641 -0.0628 -0.3277 -0.7931
 6248TIP3    H240304   5.289   6.966   0.715  0.3383  0.1895 -0.5163
 6249TIP3   OH240305   0.891   1.357   7.544  0.3774 -0.2154  0.0115
 6249TIP3    H140306   0.894   1.276   7.493  0.3104 -0.0575 -0.2393
 6249TIP3    H240307   0.857   1.330   7.629 -1.3501 -0.1500 -0.6342
 6250TIP3   OH240308   4.519   6.586   1.627  0.4822 -0.0257  0.3688
 6250TIP3    H140309   4.517   6.588   1.722  0.6495 -0.7215  0.3884
 6250TIP3    H240310   4.426   6.582   1.601  0.3978  0.9530  0.4711
 6251TIP3   OH240311   1.480   2.240   0.689  0.2451 -0.5247 -0.1120
 6251TIP3    H140312   1.502   2.277   0.604 -0.2198  0.7309  0.2834
 6251TIP3    H240313   1.562   2.203   0.721  0.9409  0.8310 -0.2299
 6252TIP3   OH240314   1.381   1.454   6.527 -0.2194 -0.0023 -0.1336
 6252TIP3    H140315   1.388   1.386   6.594 -1.6041  0.5189  0.5793
 6252TIP3    H240316   1.471   1.465   6.495  0.1809 -1.4909  0.3905
 6253TIP3   OH240317   4.567   1.323   6.304  0.2420  0.3475 -0.1491
 6253TIP3    H140318   4.517   1.404   6.315 -1.0780 -0.4654  0.0401
 6253TIP3    H240319   4.610   1.332   6.220  1.3531  1.8841  0.5396
 6254TIP3   OH240320   3.748   4.716   7.432 -0.3126  0.2109  0.1067
 6254TIP3    H140321   3.788   4.629   7.429  0.8910  0.7470  0.1181
 6254TIP3    H240322   3.656   4.699   7.450  0.0457 -1.0297  0.9133
 6255TIP3   OH240323   0.989   6.565   7.256 -0.0238 -0.0527 -0.6512
 6255TIP3    H140324   0.915   6.592   7.311 -0.1529  0.5115 -1.0845
 6255TIP3    H240325   0.986   6.470   7.256  0.6209 -0.0967  1.1786
 6256TIP3   OH240326   1.629   1.010   7.087  0.1593  0.1683  0.6400
 6256TIP3    H140327   1.533   1.009   7.080  0.2609  0.7823 -1.3112
 6256TIP3    H240328   1.647   1.078   7.152 -0.6996  2.1020 -1.0278
 6257TIP3   OH240329   4.919   4.006   5.943  0.3686  0.0504 -0.4862
 6257TIP3    H140330   4.861   4.042   6.010  1.5371  1.1703 -0.0357
 6257TIP3    H240331   4.868   4.011   5.863 -0.4821  0.1947  0.0485
 6258TIP3   OH240332   1.903   3.666   0.814  0.3552  0.1438  0.9005
 6258TIP3    H140333   1.851   3.686   0.891 -0.8866 -0.8579  0.3769
 6258TIP3    H240334   1.988   3.707   0.829 -0.1351  0.6321  2.4222
 6259TIP3   OH240335   4.750   6.823   0.378  0.0680  0.0363 -0.0134
 6259TIP3    H140336   4.754   6.730   0.358  0.0483  0.1983 -0.8292
 6259TIP3    H240337   4.762   6.829   0.473  2.5615 -0.6213 -0.2298
 6260TIP3   OH240338   5.473   5.311   5.671  0.3454 -0.1735  0.0405
 6260TIP3    H140339   5.395   5.254   5.675 -0.7156  1.0534 -1.7680
 6260TIP3    H240340   5.540   5.256   5.632 -0.1554 -0.6924 -0.1068
 6261TIP3   OH240341   2.227   0.763   0.498  0.0565  0.1337 -0.5135
 6261TIP3    H140342   2.164   0.833   0.515 -0.3951 -0.6888  1.4408
 6261TIP3    H240343   2.294   0.804   0.444 -0.6116  1.8426 -0.1070
 6262TIP3   OH240344   2.238   6.048   5.957 -0.0870 -0.4596  0.8319
 6262TIP3    H140345   2.215   5.978   5.896  0.6050 -2.4915  2.7381
 6262TIP3    H240346   2.332   6.038   5.972  0.1518  1.2753  0.7377
 6263TIP3   OH240347   5.022   1.061   6.884  0.0797  0.1315  0.0906
 6263TIP3    H140348   4.933   1.098   6.883  0.5652  1.3580  0.1086
 6263TIP3    H240349   5.027   1.011   6.966 -0.6140 -0.0122  0.0518
 6264TIP3   OH240350   2.641   0.755   1.252 -0.0968 -0.5616  0.0952
 6264TIP3    H140351   2.625   0.820   1.320 -2.5402 -0.7859 -0.2019
 6264TIP3    H240352   2.635   0.671   1.297  1.0578 -0.6748  0.0850
 6265TIP3   OH240353   3.306   0.323   7.211  0.2775 -0.0448  0.5252
 6265TIP3    H140354   3.382   0.372   7.242  2.1190 -1.9671 -0.7176
 6265TIP3    H240355   3.278   0.270   7.285  0.5369  0.2184  0.8105
 6266TIP3   OH240356   0.984   7.153   7.356 -0.0798 -0.2454 -0.7058
 6266TIP3    H140357   1.021   7.186   7.437 -0.8133  0.0069 -0.4620
 6266TIP3    H240358   0.943   7.230   7.315  0.3687 -0.3467 -1.3697
 6267TIP3   OH240359   1.450   5.094   1.424 -0.2141  0.2173 -0.5593
 6267TIP3    H140360   1.506   5.140   1.487  0.2446 -2.2054  0.9265
 6267TIP3    H240361   1.413   5.164   1.370  1.4504  2.1917  0.6941
 6268TIP3   OH240362   1.360   1.051   7.106  0.4039 -0.5753  0.0121
 6268TIP3    H140363   1.319   1.037   7.191 -0.1051 -0.7895 -0.2690
 6268TIP3    H240364   1.294   1.024   7.042  0.7161 -0.2471 -0.4555
 6269TIP3   OH240365   7.028   5.290   1.782 -0.0392  0.1733 -0.2025
 6269TIP3    H140366   6.947   5.256   1.819 -0.3374  0.4788 -0.5719
 6269TIP3    H240367   7.064   5.347   1.850 -0.4772  0.5618 -0.2884
 6270TIP3   OH240368   2.760   0.830   5.931 -0.7762  0.3915 -0.3986
 6270TIP3    H140369   2.778   0.876   6.013  0.2485 -0.2234 -0.2508
 6270TIP3    H240370   2.673   0.860   5.904 -1.4183  0.0813  1.2580
 6271TIP3   OH240371   0.918   3.073   6.310  0.4455 -0.2567  0.4543
 6271TIP3    H140372   0.884   3.158   6.338  2.0563  0.4132  0.4975
 6271TIP3    H240373   0.945   3.030   6.391  0.1449 -0.5849  0.3828
 6272TIP3   OH240374   2.063   1.102   7.940  0.4745 -0.1625 -0.7491
 6272TIP3    H140375   1.974   1.109   7.907 -0.0048 -0.9470  0.3147
 6272TIP3    H240376   2.110   1.175   7.900 -0.9576  1.0166 -0.3400
 6273TIP3   OH240377   6.101   4.146   6.162  0.3464  0.4801 -0.0843
 6273TIP3    H140378   6.059   4.067   6.129  0.9444  0.5740 -1.1044
 6273TIP3    H240379   6.039   4.216   6.142  1.1448  0.6932 -2.0638
 6274TIP3   OH240380   4.875   5.409   0.774  0.2426  0.4424 -0.4282
 6274TIP3    H140381   4.801   5.349   0.786  0.2619  0.2378 -1.2564
 6274TIP3    H240382   4.938   5.357   0.724  0.3781  1.0648 -0.9060
 6275TIP3   OH240383   6.021   6.778   6.809 -0.2178 -0.0902  0.0147
 6275TIP3    H140384   6.056   6.721   6.878 -0.5486  0.5144  0.7005
 6275TIP3    H240385   6.098   6.827   6.778  0.1588 -1.2226 -0.9164
 6276TIP3   OH240386   2.940   0.419   0.214 -0.0358  0.0941 -0.2524
 6276TIP3    H140387   2.865   0.478   0.218 -0.3984 -0.4215  0.7159
 6276TIP3    H240388   2.902   0.333   0.198  0.4744  0.0632 -1.3941
 6277TIP3   OH240389   3.840   3.395   8.020  0.5485 -0.2563  0.4253
 6277TIP3    H140390   3.770   3.332   8.039 -0.8521  0.6458 -1.4711
 6277TIP3    H240391   3.920   3.350   8.046 -0.6080 -1.8758  1.3560
 6278TIP3   OH240392   3.072   5.595   1.630  0.5516 -0.7354  0.2860
 6278TIP3    H140393   2.987   5.554   1.648 -0.2117  0.6630 -0.0430
 6278TIP3    H240394   3.114   5.601   1.715 -0.4612  0.2415  0.7371
 6279TIP3   OH240395   2.781   6.399   6.504 -0.5560  0.2855  0.3286
 6279TIP3    H140396   2.711   6.346   6.467 -0.8735  1.1207 -0.3090
 6279TIP3    H240397   2.810   6.351   6.581  1.2951 -2.4346 -1.8653
 6280TIP3   OH240398   0.158   5.672   7.286  0.0616  0.4719  0.2326
 6280TIP3    H140399   0.207   5.739   7.335 -0.4337  1.9640 -1.2437
 6280TIP3    H240400   0.134   5.714   7.204 -1.5299 -1.0585 -0.1558
 6281TIP3   OH240401   6.697   5.662   0.938  0.0008  1.0890  0.0449
 6281TIP3    H140402   6.646   5.725   0.989  1.8869  2.4885  0.3386
 6281TIP3    H240403   6.783   5.662   0.979  0.6887 -0.0711 -1.2991
 6282TIP3   OH240404   2.404   1.375   6.660  0.2340 -0.2197 -0.0140
 6282TIP3    H140405   2.467   1.343   6.725  1.5153  1.6760 -0.2562
 6282TIP3    H240406   2.372   1.458   6.696 -1.6711 -0.8196 -0.2129
 6283TIP3   OH240407   0.394   0.548   6.116 -0.9519  0.3779  0.0721
 6283TIP3    H140408   0.340   0.520   6.042 -1.2726  1.2481 -0.0366
 6283TIP3    H240409   0.404   0.643   6.103  0.7990  0.2089 -0.0364
 6284TIP3   OH240410   0.809   3.707   6.281  0.3976  0.0158  0.3376
 6284TIP3    H140411   0.833   3.759   6.204  2.1924 -0.2412  0.6972
 6284TIP3    H240412   0.767   3.771   6.339  1.5671  0.8605  0.3042
 6285TIP3   OH240413   5.486   2.624   0.682 -0.0624  0.6556  0.6702
 6285TIP3    H140414   5.542   2.662   0.615  1.8884 -1.6797  0.8061
 6285TIP3    H240415   5.542   2.620   0.760 -0.3953 -1.5943  0.8736
 6286TIP3   OH240416   6.413   6.077   7.498  0.0552  0.4076 -0.0464
 6286TIP3    H140417   6.349   6.078   7.570  0.0666  0.5833 -0.0406
 6286TIP3    H240418   6.359   6.069   7.419 -0.0550  1.9313 -0.1452
 6287TIP3   OH240419   5.511   4.096   6.716  0.6316  0.0847  0.3298
 6287TIP3    H140420   5.459   4.046   6.778  0.5275 -1.5363 -1.0107
 6287TIP3    H240421   5.601   4.089   6.748  0.7618 -1.8073 -0.3071
 6288TIP3   OH240422   3.940   5.166   1.290  0.4843  0.3410 -0.0109
 6288TIP3    H140423   3.990   5.115   1.354  0.3227 -0.8167 -0.7732
 6288TIP3    H240424   3.854   5.178   1.332 -0.7169 -3.0950 -1.1406
 6289TIP3   OH240425   0.988   5.989   6.582  0.3159  0.5223 -0.2367
 6289TIP3    H140426   0.916   6.024   6.531  0.1315 -0.2272 -0.5092
 6289TIP3    H240427   1.064   5.994   6.523  0.5051  1.3287  0.0569
 6290TIP3   OH240428   1.102   4.029   0.299 -0.4910  0.3761 -0.4393
 6290TIP3    H140429   1.113   3.964   0.368  3.1168  2.8077  1.6207
 6290TIP3    H240430   1.013   4.062   0.311 -0.6297 -0.6317  1.8119
 6291TIP3   OH240431   6.538   7.075   1.243  0.2465 -0.5443 -0.0253
 6291TIP3    H140432   6.548   7.103   1.334  0.0741 -0.3248 -0.0713
 6291TIP3    H240433   6.594   6.998   1.235  1.6064  0.4040 -0.1718
 6292TIP3   OH240434   2.153   0.805   2.037  0.5002  0.3701 -0.5370
 6292TIP3    H140435   2.139   0.753   2.116 -0.9862  1.8788  0.2497
 6292TIP3    H240436   2.247   0.820   2.034  0.6671 -0.3351  0.5213
 6293TIP3   OH240437   5.757   3.501   0.497 -0.2142 -0.4769  0.0599
 6293TIP3    H140438   5.847   3.472   0.485 -0.5153 -0.8274 -1.6282
 6293TIP3    H240439   5.715   3.429   0.545  0.4595 -0.1656  1.1463
 6294TIP3   OH240440   2.458   5.413   0.487  0.0863 -0.1910 -0.7115
 6294TIP3    H140441   2.501   5.343   0.536 -0.8573  0.4394  1.1012
 6294TIP3    H240442   2.506   5.493   0.510 -0.0067  0.0448 -1.2932
 6295TIP3   OH240443   0.936   0.219   1.793  0.4412  0.2314 -0.0673
 6295TIP3    H140444   0.995   0.168   1.850  0.2599  0.7438  0.5949
 6295TIP3    H240445   0.849   0.205   1.830 -0.1016 -1.6869 -1.8887
 6296TIP3   OH240446   3.105   1.602   6.995  0.5093  0.1486  0.4449
 6296TIP3    H140447   3.198   1.589   7.008  0.3709 -0.2585  1.0924
 6296TIP3    H240448   3.064   1.532   7.046 -0.1029 -0.8880 -1.3769
 6297TIP3   OH240449   5.363   6.592   7.308  0.3157 -0.3460 -0.5302
 6297TIP3    H140450   5.416   6.641   7.371 -0.2884  0.2516 -0.4713
 6297TIP3    H240451   5.273   6.611   7.333  0.0651 -0.3628 -1.3827
 6298TIP3   OH240452   0.927   4.874   6.000  0.3874 -0.0423 -0.9934
 6298TIP3    H140453   0.926   4.950   6.058  0.5079 -1.0194  0.3509
 6298TIP3    H240454   0.839   4.870   5.964 -0.5608 -0.9129  1.2394
 6299TIP3   OH240455   4.861   3.826   1.539  0.3941  0.1790  0.5328
 6299TIP3    H140456   4.885   3.865   1.623  0.3693  0.2116  0.5250
 6299TIP3    H240457   4.943   3.791   1.504  0.5005  0.6199  0.3348
 6300TIP3   OH240458   4.148   1.480   1.238  1.2690 -0.2123 -0.3442
 6300TIP3    H140459   4.124   1.511   1.325  0.0424  0.2394 -0.8311
 6300TIP3    H240460   4.237   1.446   1.249  0.6368 -1.4445  1.3942
 6301TIP3   OH240461   3.645   1.186   1.716  0.2518 -0.1373 -0.1038
 6301TIP3    H140462   3.558   1.165   1.752 -0.2127  1.9466  0.1467
 6301TIP3    H240463   3.704   1.178   1.791 -0.3742  2.0682  0.7178
 6302TIP3   OH240464   0.973   6.573   1.629  0.0221  0.4831 -0.3015
 6302TIP3    H140465   0.924   6.627   1.690  0.3278  0.4994 -0.0638
 6302TIP3    H240466   0.934   6.486   1.637  1.5075 -0.0865  1.6400
 6303TIP3   OH240467   0.481   4.990   1.466  0.0500 -0.2665 -0.2471
 6303TIP3    H140468   0.481   4.963   1.558  0.3476  0.0665 -0.1493
 6303TIP3    H240469   0.527   4.919   1.421  1.0434  0.1765  0.0450
 6304TIP3   OH240470   3.312   3.694   0.680  0.1010  0.2696  0.6409
 6304TIP3    H140471   3.327   3.653   0.595  2.2159  1.5899  0.2785
 6304TIP3    H240472   3.261   3.772   0.660 -2.8291 -1.3947  1.1672
 6305TIP3   OH240473   5.630   3.957   7.045  0.1342 -0.2669 -0.4498
 6305TIP3    H140474   5.670   4.039   7.074 -1.2106  0.6307 -1.0294
 6305TIP3    H240475   5.536   3.976   7.040 -0.1895 -1.7933 -0.7639
 6306TIP3   OH240476   4.940   2.816   0.884 -0.0916 -0.4053  0.6256
 6306TIP3    H140477   4.847   2.794   0.893 -0.6945  0.2737 -2.6386
 6306TIP3    H240478   4.985   2.733   0.898 -1.1654 -0.7823  2.1428
 6307TIP3   OH240479   2.413   1.641   0.793  0.1604 -0.0938  0.8574
 6307TIP3    H140480   2.500   1.676   0.810  1.2465 -2.2104 -0.0488
 6307TIP3    H240481   2.392   1.670   0.704  1.3817 -2.2221 -0.1867
 6308TIP3   OH240482   2.166   2.057   6.919  0.2037 -0.0295 -0.5108
 6308TIP3    H140483   2.189   2.100   6.836 -0.2762 -0.7138 -1.0034
 6308TIP3    H240484   2.152   1.966   6.896 -2.2217  0.1911 -0.1108
 6309TIP3   OH240485   0.408   2.173   0.769 -0.4655 -0.2399  0.0754
 6309TIP3    H140486   0.500   2.155   0.789 -1.0467 -1.9438  1.5166
 6309TIP3    H240487   0.394   2.136   0.682  0.3387  0.6303 -0.4483
 6310TIP3   OH240488   0.172   2.777   1.238 -0.5014  0.0932  0.0022
 6310TIP3    H140489   0.089   2.737   1.265 -0.8528  0.9648  0.2600
 6310TIP3    H240490   0.149   2.869   1.222  0.1346  0.0540 -1.2308
 6311TIP3   OH240491   2.447   3.607   7.165  0.5531  0.4003 -0.7466
 6311TIP3    H140492   2.457   3.527   7.112  1.2816  0.6643 -1.0206
 6311TIP3    H240493   2.398   3.666   7.109  0.8115  0.4673 -0.9069
 6312TIP3   OH240494   4.142   0.377   6.184  0.2864  0.6966  0.2987
 6312TIP3    H140495   4.134   0.327   6.103  0.5150 -0.1123  0.7616
 6312TIP3    H240496   4.159   0.466   6.156 -0.6232  0.6128 -0.5589
 6313TIP3   OH240497   5.416   3.832   6.592  0.4845 -0.2262 -0.1576
 6313TIP3    H140498   5.373   3.918   6.586 -1.4869 -1.2214 -1.3660
 6313TIP3    H240499   5.387   3.785   6.514 -0.3993 -2.8335  1.6105
 6314TIP3   OH240500   4.037   1.172   0.221 -0.4093  0.5328  0.3210
 6314TIP3    H140501   3.963   1.121   0.188 -0.4752  0.1954  0.9779
 6314TIP3    H240502   4.051   1.239   0.154 -0.9311  0.2419 -0.0922
 6315TIP3   OH240503   4.557   0.088   0.244 -0.1081 -0.0359 -0.5519
 6315TIP3    H140504   4.583  -0.002   0.223 -1.6566 -1.0627  1.6269
 6315TIP3    H240505   4.619   0.117   0.310 -1.0889 -0.4737  0.5989
 6316TIP3   OH240506   6.947   4.128   1.450 -0.4257  0.1248 -0.0403
 6316TIP3    H140507   6.884   4.057   1.457 -0.8732  0.4767 -0.3716
 6316TIP3    H240508   6.958   4.160   1.540 -1.8230  0.9850 -0.1515
 6317TIP3   OH240509   5.106   1.143   6.633  0.1899 -0.0545 -0.1645
 6317TIP3    H140510   5.038   1.093   6.587  0.8395 -0.7973 -0.3491
 6317TIP3    H240511   5.083   1.135   6.725 -1.2709  1.6660 -0.3219
 6318TIP3   OH240512   6.675   5.147   0.699 -0.2616  0.3318  0.3335
 6318TIP3    H140513   6.632   5.223   0.740 -1.8175  0.3050 -1.1227
 6318TIP3    H240514   6.758   5.181   0.667 -0.2427  1.0278  1.0925
 6319TIP3   OH240515   3.474   2.113   1.398  0.3884  0.8196 -0.2890
 6319TIP3    H140516   3.432   2.036   1.436 -1.1802  0.8273 -1.8796
 6319TIP3    H240517   3.487   2.172   1.473 -0.9669  0.1443  0.5207
 6320TIP3   OH240518   4.507   2.776   1.216  0.5615 -0.2742 -0.0595
 6320TIP3    H140519   4.423   2.822   1.214  0.2493 -0.7868  0.6107
 6320TIP3    H240520   4.541   2.793   1.304  1.3660  0.2777 -0.4653
 6321TIP3   OH240521   1.749   5.525   7.551 -0.2081  0.4041 -0.2214
 6321TIP3    H140522   1.697   5.489   7.478 -0.3617 -1.3444  0.6972
 6321TIP3    H240523   1.689   5.525   7.625  0.3470  0.8382  0.2330
 6322TIP3   OH240524   1.385   1.813   6.443  0.1491  0.0507  0.3905
 6322TIP3    H140525   1.480   1.818   6.456  0.3711 -1.1491 -0.5408
 6322TIP3    H240526   1.376   1.778   6.354 -1.1413 -1.3363  1.0394
 6323TIP3   OH240527   2.768   4.163   7.081  0.0165  0.2803 -0.0443
 6323TIP3    H140528   2.732   4.107   7.150 -0.9622  0.1872 -0.6041
 6323TIP3    H240529   2.849   4.119   7.055 -0.1328 -0.2427  0.3409
 6324TIP3   OH240530   5.148   4.173   7.365  0.4951  0.2103 -0.0524
 6324TIP3    H140531   5.135   4.248   7.423 -0.2223  0.2622 -0.2771
 6324TIP3    H240532   5.126   4.097   7.419  0.0210  0.2449 -0.1989
 6325TIP3   OH240533   0.467   0.930   1.296 -0.2758  0.4286 -0.3371
 6325TIP3    H140534   0.462   0.953   1.203  0.3274  1.2776 -0.1747
 6325TIP3    H240535   0.408   0.992   1.339  1.9532  2.3092  0.1974
 6326TIP3   OH240536   1.214   2.349   1.130  0.3106  0.1316 -0.3375
 6326TIP3    H140537   1.303   2.319   1.148 -0.2370 -0.5602  1.3923
 6326TIP3    H240538   1.188   2.300   1.051  0.8195 -1.0589  0.2146
 6327TIP3   OH240539   4.041   2.574   7.445  0.3065 -0.3794  0.3144
 6327TIP3    H140540   4.116   2.633   7.439  0.2960 -0.3642  0.3292
 6327TIP3    H240541   3.987   2.613   7.514 -0.1907  0.1500 -0.3644
 6328TIP3   OH240542   2.362   3.376   0.136 -0.3327 -0.0227  0.3438
 6328TIP3    H140543   2.404   3.348   0.217 -0.1743  1.2692  0.7315
 6328TIP3    H240544   2.368   3.300   0.078 -0.3645 -0.9320  1.4973
 6329TIP3   OH240545   5.652   2.420   7.875 -0.2479 -0.0578 -0.1903
 6329TIP3    H140546   5.732   2.391   7.833  0.4294  0.2119  0.8667
 6329TIP3    H240547   5.669   2.510   7.900 -0.1051 -0.5864  1.8047
 6330TIP3   OH240548   6.339   0.400   7.082  0.5576 -0.0692 -0.2188
 6330TIP3    H140549   6.363   0.354   7.162 -0.0082  0.5899  0.3389
 6330TIP3    H240550   6.385   0.484   7.087 -1.3508  0.9989  0.6198
 6331TIP3   OH240551   5.265   0.450   1.162  0.4315 -0.5135  0.2950
 6331TIP3    H140552   5.269   0.462   1.257 -0.4209 -1.1886  0.4240
 6331TIP3    H240553   5.243   0.358   1.150  0.7377 -0.4819 -0.5680
 6332TIP3   OH240554   4.771   5.737   0.150  1.3128 -0.0524 -0.2920
 6332TIP3    H140555   4.793   5.822   0.189 -1.2828  0.7314 -0.3162
 6332TIP3    H240556   4.767   5.677   0.225  1.2926  0.3012 -0.0046
 6333TIP3   OH240557   4.953   1.666   6.534  0.1031  0.0816  0.0174
 6333TIP3    H140558   5.006   1.746   6.542  1.3378 -0.8139  1.1073
 6333TIP3    H240559   4.910   1.675   6.449  1.0310  1.4331 -0.3469
 6334TIP3   OH240560   3.353   5.559   7.253 -0.4567  0.3007  0.0401
 6334TIP3    H140561   3.366   5.483   7.311  2.0496 -0.3206 -1.2239
 6334TIP3    H240562   3.423   5.619   7.277  0.7810 -0.0641 -2.4054
 6335TIP3   OH240563   4.139   5.420   1.319  0.2487  0.5032  0.0152
 6335TIP3    H140564   4.227   5.443   1.349  0.7865  0.5860 -1.5253
 6335TIP3    H240565   4.148   5.330   1.288 -0.8285 -0.3909  2.0877
 6336TIP3   OH240566   3.332   3.888   5.678 -0.4227 -0.1882  0.5215
 6336TIP3    H140567   3.410   3.921   5.633 -0.5665  0.5465  0.8039
 6336TIP3    H240568   3.317   3.950   5.749 -0.4480 -1.0919  1.3283
 6337TIP3   OH240569   1.405   5.277   7.243 -0.2450 -0.5236 -0.4525
 6337TIP3    H140570   1.354   5.232   7.175  2.1332 -2.0236 -1.3640
 6337TIP3    H240571   1.466   5.210   7.275 -0.1603  0.6327  2.0063
 6338TIP3   OH240572   5.830   5.683   6.735 -0.4777  0.1562  0.0296
 6338TIP3    H140573   5.839   5.770   6.695 -1.1886  0.6995  1.0191
 6338TIP3    H240574   5.854   5.697   6.826  0.0021 -0.8318  0.0623
 6339TIP3   OH240575   6.082   1.679   8.030 -0.1541 -0.2882 -0.0924
 6339TIP3    H140576   6.026   1.647   7.959 -0.9831  1.7294 -0.4200
 6339TIP3    H240577   6.023   1.732   8.084  1.1699  0.9476  0.1959
 6340TIP3   OH240578   6.717   5.706   7.267 -0.2282 -0.3495 -0.0463
 6340TIP3    H140579   6.796   5.684   7.217  1.5206  1.0236  1.9593
 6340TIP3    H240580   6.701   5.798   7.247  1.6880  0.8519  3.2061
 6341TIP3   OH240581   5.971   4.389   5.479  0.3951 -0.4029 -0.9195
 6341TIP3    H140582   5.893   4.410   5.531  0.3008 -3.0505  0.1802
 6341TIP3    H240583   6.042   4.383   5.544  0.7834 -1.3883 -1.4185
 6342TIP3   OH240584   4.623   3.306   6.395  0.6886 -0.2566  0.5252
 6342TIP3    H140585   4.567   3.248   6.447 -0.6046 -0.2340 -0.7523
 6342TIP3    H240586   4.601   3.394   6.426 -0.0304 -0.2477  0.0325
 6343TIP3   OH240587   5.353   2.712   1.159 -0.1243  0.2302 -0.4135
 6343TIP3    H140588   5.431   2.656   1.164  0.4069  0.9933  0.0610
 6343TIP3    H240589   5.336   2.735   1.251  0.2754  1.6634 -0.6821
 6344TIP3   OH240590   6.764   3.460   6.507  0.8336 -0.1580  0.5944
 6344TIP3    H140591   6.789   3.374   6.473  1.3144 -0.0369  0.6323
 6344TIP3    H240592   6.842   3.515   6.492  0.7020  0.1414  1.0142
 6345TIP3   OH240593   4.149   0.247   5.805  0.5508  0.1911 -0.4553
 6345TIP3    H140594   4.158   0.165   5.756 -1.6115  0.1468 -0.8619
 6345TIP3    H240595   4.126   0.219   5.893  1.5557  0.3538 -0.1225
 6346TIP3   OH240596   2.500   6.137   6.417 -0.0147 -0.2781 -0.4209
 6346TIP3    H140597   2.512   6.134   6.512  1.6579  1.0789 -0.5405
 6346TIP3    H240598   2.425   6.080   6.401  0.6981 -1.9207  1.5284
 6347TIP3   OH240599   5.525   6.011   0.332  0.0807 -0.4080 -0.0337
 6347TIP3    H140600   5.524   6.107   0.340 -0.5663 -0.5827  3.7272
 6347TIP3    H240601   5.610   5.986   0.367  0.4167 -1.2345 -1.3965
 6348TIP3   OH240602   2.437   6.901   6.050 -0.2801 -0.1089  0.8377
 6348TIP3    H140603   2.368   6.837   6.033  0.6847 -1.1161  0.5130
 6348TIP3    H240604   2.475   6.918   5.964  0.3595 -0.1661  1.1015
 6349TIP3   OH240605   5.037   5.067   1.700  0.0344 -0.5688  0.2246
 6349TIP3    H140606   5.066   5.045   1.789  0.6219  1.4756  0.6076
 6349TIP3    H240607   4.965   5.006   1.682 -0.0890 -1.0451  2.0966
 6350TIP3   OH240608   5.023   4.918   6.830  0.3146  1.1682  0.5547
 6350TIP3    H140609   5.089   4.915   6.760 -0.0545 -0.7618  0.2460
 6350TIP3    H240610   4.967   4.842   6.814 -0.0014  0.8773  2.7451
 6351TIP3   OH240611   3.696   4.580   1.164  0.3674  0.3659  0.1484
 6351TIP3    H140612   3.712   4.643   1.234 -1.7843  1.1575 -0.0063
 6351TIP3    H240613   3.602   4.562   1.169  0.5341 -1.0980 -1.2763
 6352TIP3   OH240614   2.673   6.828   6.593  0.0465 -0.4044  0.3806
 6352TIP3    H140615   2.744   6.883   6.559 -0.0636 -0.4617  0.0505
 6352TIP3    H240616   2.633   6.790   6.515 -0.3653 -0.3525  0.5635
 6353TIP3   OH240617   3.733   4.382   6.978 -0.6554  0.3573  0.1985
 6353TIP3    H140618   3.701   4.473   6.970 -1.8979 -0.0649  0.0785
 6353TIP3    H240619   3.740   4.368   7.073  1.0693  1.0685  0.1977
 6354TIP3   OH240620   0.303   3.840   0.672 -0.3961  0.2557  0.2789
 6354TIP3    H140621   0.305   3.899   0.597  0.3559 -0.7709 -0.5392
 6354TIP3    H240622   0.391   3.848   0.710 -0.2982 -0.2903  0.1778
 6355TIP3   OH240623   0.979   4.310   7.591 -0.1872  0.2722  0.3597
 6355TIP3    H140624   0.975   4.405   7.601 -0.2055  0.2255  0.7753
 6355TIP3    H240625   1.054   4.283   7.643 -1.2559 -0.1440  1.7620
 6356TIP3   OH240626   0.149   5.806   7.052 -0.2690 -0.4585  0.4261
 6356TIP3    H140627   0.065   5.815   7.007 -0.0779  0.0739  0.1618
 6356TIP3    H240628   0.203   5.756   6.992 -0.0891  0.0486  0.1589
 6357TIP3   OH240629   3.845   1.407   6.580  0.1218 -0.6091  0.3523
 6357TIP3    H140630   3.757   1.438   6.601 -0.1621 -1.1381 -0.0223
 6357TIP3    H240631   3.861   1.438   6.490  0.7287  0.3556  0.7778
 6358TIP3   OH240632   6.776   4.526   6.906  0.7824 -0.3174 -0.0285
 6358TIP3    H140633   6.693   4.527   6.858  0.2049 -1.1942  0.9148
 6358TIP3    H240634   6.761   4.582   6.983  1.3699  0.2469 -0.3080
 6359TIP3   OH240635   2.710   6.103   0.024  0.0111 -0.4192 -0.6096
 6359TIP3    H140636   2.649   6.175   0.034 -0.2615 -0.4957 -1.6543
 6359TIP3    H240637   2.775   6.117   0.093  0.1892  1.0551 -1.0332
 6360TIP3   OH240638   5.302   6.006   7.591 -0.1632 -0.4788 -0.1123
 6360TIP3    H140639   5.354   5.928   7.611  0.1966 -0.6031 -1.4657
 6360TIP3    H240640   5.353   6.053   7.525 -0.6986  0.5633  0.2014
 6361TIP3   OH240641   4.592   2.490   0.018 -0.1189  0.8334  0.0980
 6361TIP3    H140642   4.571   2.397   0.013  1.6908  0.3669  0.3898
 6361TIP3    H240643   4.520   2.528   0.069 -1.8741 -0.0205 -1.6031
 6362TIP3   OH240644   6.219   2.842   1.009  0.3214 -0.0691  0.0585
 6362TIP3    H140645   6.148   2.831   0.945 -2.0184  1.4102  2.2275
 6362TIP3    H240646   6.184   2.903   1.074  2.7917 -0.9970  2.4603
 6363TIP3   OH240647   4.342   4.804   1.440  0.3273 -0.0153 -0.3195
 6363TIP3    H140648   4.333   4.716   1.478  0.3421  0.9743  2.1786
 6363TIP3    H240649   4.437   4.817   1.433  0.3385  0.0050 -0.1439
 6364TIP3   OH240650   5.146   2.386   7.652 -0.4028  0.4844 -0.1589
 6364TIP3    H140651   5.126   2.293   7.662 -1.1349  0.8247  2.1482
 6364TIP3    H240652   5.240   2.393   7.669 -0.4205  0.2133  0.0459
 6365TIP3   OH240653   0.172   1.132   1.126  0.4280 -0.2076 -0.4302
 6365TIP3    H140654   0.202   1.042   1.137  1.1588 -0.4003 -3.2906
 6365TIP3    H240655   0.247   1.178   1.089 -0.3652  1.2764 -0.2666
 6366TIP3   OH240656   2.963   4.950   7.378  0.3496 -0.1854 -0.9877
 6366TIP3    H140657   3.058   4.949   7.395  0.1404 -0.0986  0.2878
 6366TIP3    H240658   2.944   5.041   7.356  0.0725  0.5823  2.0150
 6367TIP3   OH240659   0.553   0.564   1.663 -0.1994 -0.5190  0.4344
 6367TIP3    H140660   0.522   0.489   1.715 -1.6068 -0.9406 -0.9468
 6367TIP3    H240661   0.589   0.524   1.584 -1.1088  0.2522 -0.3901
 6368TIP3   OH240662   2.107   3.578   7.005 -0.1403 -0.0014  0.0128
 6368TIP3    H140663   2.151   3.598   6.923 -3.0826  0.9857 -1.4836
 6368TIP3    H240664   2.167   3.607   7.073  0.9399  2.4843 -1.8604
 6369TIP3   OH240665   4.702   0.698   6.113 -0.3796 -1.0671 -0.6165
 6369TIP3    H140666   4.648   0.765   6.072 -0.0104 -0.6489 -0.4264
 6369TIP3    H240667   4.791   0.734   6.112 -0.0315 -1.9201 -1.3019
 6370TIP3   OH240668   0.821   2.673   1.032  0.0838  0.0238  0.5247
 6370TIP3    H140669   0.819   2.760   0.991 -1.4990 -0.2146  0.0743
 6370TIP3    H240670   0.784   2.688   1.119 -0.5766 -0.2682  0.2973
 6371TIP3   OH240671   4.799   3.819   6.827  0.4054  0.1762  0.0721
 6371TIP3    H140672   4.743   3.809   6.904  0.1005  0.4102 -0.1226
 6371TIP3    H240673   4.751   3.877   6.769 -0.2349 -1.4957 -1.1250
 6372TIP3   OH240674   0.151   7.049   7.663  0.1513 -0.5563  0.1408
 6372TIP3    H140675   0.072   7.092   7.695  0.5383  0.4698 -0.2566
 6372TIP3    H240676   0.181   6.996   7.736 -0.2142  0.0202  0.7135
 6373TIP3   OH240677   4.544   2.463   0.907  0.0434  0.3137 -0.1602
 6373TIP3    H140678   4.551   2.557   0.926  0.1745  0.3024 -0.1473
 6373TIP3    H240679   4.609   2.448   0.838  1.0635 -0.0362  0.8352
 6374TIP3   OH240680   5.662   1.787   1.980 -0.5237 -0.2471 -0.5386
 6374TIP3    H140681   5.646   1.706   1.931 -2.2432  1.3241 -2.7751
 6374TIP3    H240682   5.582   1.799   2.031 -0.4019  0.1816 -0.4498
 6375TIP3   OH240683   0.099   4.215   7.705  0.2898 -0.6583 -0.1613
 6375TIP3    H140684   0.087   4.295   7.755  1.0247 -0.4172 -0.3558
 6375TIP3    H240685   0.033   4.219   7.636 -0.1827 -0.5971  0.2904
 6376TIP3   OH240686   1.023   1.526   0.454  0.6219 -0.2565 -0.0933
 6376TIP3    H140687   1.067   1.442   0.465 -0.1977 -0.7177 -0.2173
 6376TIP3    H240688   1.012   1.535   0.359  2.5491  0.9861 -0.2383
 6377TIP3   OH240689   5.513   2.260   6.937  0.4891  0.0552 -0.3410
 6377TIP3    H140690   5.437   2.268   6.879  0.9717 -0.2428 -1.0284
 6377TIP3    H240691   5.539   2.351   6.953  1.0665  0.1277 -1.5666
 6378TIP3   OH240692   1.522   0.399   6.449 -0.2712 -0.4399 -0.0481
 6378TIP3    H140693   1.492   0.461   6.515 -2.4145  0.2329 -1.5358
 6378TIP3    H240694   1.597   0.442   6.407 -0.9445  0.5877 -0.2210
 6379TIP3   OH240695   1.096   1.868   1.383  0.4026  0.3299  0.0271
 6379TIP3    H140696   1.173   1.818   1.409  0.2385 -0.1736 -0.4376
 6379TIP3    H240697   1.023   1.826   1.429  0.3363  0.4835  0.0636
 6380TIP3   OH240698   2.116   0.546   0.795 -0.1057 -0.0884 -0.2342
 6380TIP3    H140699   2.104   0.454   0.820 -0.2003 -0.3587 -1.2185
 6380TIP3    H240700   2.205   0.549   0.760 -0.1506  0.1678 -0.3213
 6381TIP3   OH240701   6.340   0.873   7.207 -0.2839  0.1257 -0.3475
 6381TIP3    H140702   6.407   0.811   7.179 -1.8910 -1.5435 -0.6964
 6381TIP3    H240703   6.376   0.959   7.184  1.8450 -0.6764 -0.2044
 6382TIP3   OH240704   4.321   7.000   6.707 -0.3538  0.2184 -0.2768
 6382TIP3    H140705   4.344   6.976   6.618  1.2459  0.3421  0.0720
 6382TIP3    H240706   4.226   7.016   6.704  0.1353  3.5770 -2.7225
 6383TIP3   OH240707   2.920   1.392   7.426 -0.3896  0.1902  0.7346
 6383TIP3    H140708   2.870   1.433   7.355  0.5324  0.0583 -0.0040
 6383TIP3    H240709   2.952   1.466   7.477  0.4565  0.3692 -0.0373
 6384TIP3   OH240710   2.700   6.346   0.835  0.1856  0.5296 -0.5710
 6384TIP3    H140711   2.659   6.291   0.902 -1.4445  2.8217  0.4292
 6384TIP3    H240712   2.689   6.436   0.867  0.0894  1.6783 -3.5208
 6385TIP3   OH240713   3.054   5.532   7.658 -0.6044  0.2973 -0.3275
 6385TIP3    H140714   3.133   5.573   7.622  1.0575 -2.1841  0.2578
 6385TIP3    H240715   3.072   5.522   7.751 -1.9315  0.3021 -0.0478
 6386TIP3   OH240716   6.516   1.778   0.978 -0.6923  0.1335 -0.1619
 6386TIP3    H140717   6.432   1.805   0.941  0.4166  2.9048 -0.9231
 6386TIP3    H240718   6.494   1.708   1.040 -3.4695  0.4451 -0.6688
 6387TIP3   OH240719   5.380   0.614   7.840 -0.0109 -0.1858 -0.4614
 6387TIP3    H140720   5.365   0.620   7.934 -0.3769 -0.7556 -0.4803
 6387TIP3    H240721   5.370   0.521   7.820  2.8529 -0.5646 -0.5909
 6388TIP3   OH240722   6.041   0.714   1.170 -0.0677 -0.1920  0.2576
 6388TIP3    H140723   6.087   0.630   1.168 -0.2045 -0.2573 -1.2632
 6388TIP3    H240724   5.955   0.693   1.207 -0.9605 -1.2231 -2.2068
 6389TIP3   OH240725   2.996   5.696   1.384  1.0064  0.7625 -0.5777
 6389TIP3    H140726   3.042   5.707   1.468  0.5066  2.0397 -0.4479
 6389TIP3    H240727   2.924   5.759   1.388  0.4267  0.1866 -1.6009
 6390TIP3   OH240728   0.394   1.428   7.903 -0.2672  0.0022 -0.1497
 6390TIP3    H140729   0.315   1.381   7.931 -0.3838  0.5785  0.4849
 6390TIP3    H240730   0.415   1.389   7.818 -0.4233 -1.1279  0.3122
 6391TIP3   OH240731   3.011   6.797   0.124 -0.0177 -0.1292  0.0559
 6391TIP3    H140732   2.975   6.791   0.036  1.2278 -0.2103 -0.4625
 6391TIP3    H240733   3.105   6.809   0.111  0.2018 -0.2764  1.3739
 6392TIP3   OH240734   5.116   3.342   1.535 -0.5264 -0.3435 -0.2254
 6392TIP3    H140735   5.144   3.296   1.456 -0.2590 -0.8246  0.1426
 6392TIP3    H240736   5.179   3.413   1.545  0.1975 -1.0222  0.2261
 6393TIP3   OH240737   0.076   1.221   0.190 -0.5021 -0.5453  0.2968
 6393TIP3    H140738   0.131   1.203   0.266  0.6606  1.4142 -0.0130
 6393TIP3    H240739  -0.012   1.193   0.217 -0.4617  1.5173  3.0185
 6394TIP3   OH240740   6.088   6.671   1.849 -0.2554  0.4624  0.0984
 6394TIP3    H140741   6.023   6.729   1.889 -0.6653  0.2172 -0.2005
 6394TIP3    H240742   6.039   6.625   1.781  0.3982  0.7573 -0.5777
 6395TIP3   OH240743   6.950   0.399   6.176 -0.0127  0.1142  0.0170
 6395TIP3    H140744   7.039   0.392   6.142  0.9519  3.0200  1.5473
 6395TIP3    H240745   6.954   0.359   6.263 -0.0798  0.6058  0.2506
 6396TIP3   OH240746   6.089   0.393   1.110  0.9448 -0.0936  0.2434
 6396TIP3    H140747   6.016   0.414   1.168  1.0069 -1.0680  0.6970
 6396TIP3    H240748   6.160   0.367   1.168  0.7238 -1.9712 -0.2715
 6397TIP3   OH240749   5.561   5.972   7.304  0.3776  0.5192 -0.7205
 6397TIP3    H140750   5.500   5.926   7.246  1.2237  0.8735 -1.9433
 6397TIP3    H240751   5.512   6.047   7.336 -0.2924 -0.0069 -0.5007
 6398TIP3   OH240752   7.156   0.214   0.441 -0.2160 -0.5889  0.5606
 6398TIP3    H140753   7.067   0.227   0.474 -0.8891 -1.3067 -0.8731
 6398TIP3    H240754   7.163   0.119   0.431 -0.0967 -0.4056 -1.3955
 6399TIP3   OH240755   5.875   1.433   1.071  0.1158  0.0828 -0.0303
 6399TIP3    H140756   5.796   1.404   1.116 -0.2051 -0.3669 -0.8671
 6399TIP3    H240757   5.932   1.356   1.069  0.9503  0.6327  1.3314
 6400TIP3   OH240758   4.775   0.573   7.211 -0.2862  0.0449  0.2273
 6400TIP3    H140759   4.817   0.607   7.291 -0.6251 -0.3306  0.5727
 6400TIP3    H240760   4.716   0.505   7.243 -0.6818  0.1298 -0.3156
 6401TIP3   OH240761   2.553   5.952   7.536  0.6408 -0.3268 -0.0839
 6401TIP3    H140762   2.495   5.979   7.608  1.3422  0.8996  0.0600
 6401TIP3    H240763   2.619   5.896   7.578  0.6708 -0.1431  0.1176
 6402TIP3   OH240764   4.330   3.213   6.913  0.5465  1.0645 -0.4024
 6402TIP3    H140765   4.299   3.137   6.962  0.6024  2.3131  1.7022
 6402TIP3    H240766   4.424   3.198   6.903  1.2665  2.2758  3.0268
 6403TIP3   OH240767   3.758   4.789   0.300 -0.0329  0.7296 -0.3347
 6403TIP3    H140768   3.746   4.877   0.264 -1.0938  1.0430  0.7303
 6403TIP3    H240769   3.708   4.789   0.382  0.2715 -0.7448 -0.1160
 6404TIP3   OH240770   2.670   2.684   0.204 -0.0743 -0.2636  0.2430
 6404TIP3    H140771   2.718   2.656   0.282 -0.0463  0.7253  0.5917
 6404TIP3    H240772   2.654   2.602   0.156  0.3363 -0.8285  1.0304
 6405TIP3   OH240773   1.061   3.345   0.843  0.0476 -0.2090 -0.7237
 6405TIP3    H140774   1.145   3.353   0.890 -0.5154  2.5730  0.0414
 6405TIP3    H240775   1.050   3.430   0.800 -1.9338 -0.8556 -1.6063
 6406TIP3   OH240776   5.082   0.704   0.515 -0.5098  0.3735  0.6117
 6406TIP3    H140777   5.172   0.681   0.536 -0.6309 -0.2751  0.4658
 6406TIP3    H240778   5.083   0.798   0.498  0.2341  0.2790  0.1172
 6407TIP3   OH240779   2.748   6.584   1.223  0.8349 -0.5326 -0.1520
 6407TIP3    H140780   2.762   6.573   1.317 -1.3352  1.0716  0.4477
 6407TIP3    H240781   2.662   6.545   1.207  0.1872  1.1006 -0.9813
 6408TIP3   OH240782   4.258   4.555   1.561  0.1218 -0.4963 -0.1305
 6408TIP3    H140783   4.173   4.526   1.593  0.4356 -2.6390 -1.0542
 6408TIP3    H240784   4.320   4.491   1.595  1.1783  0.2058 -0.6537
 6409TIP3   OH240785   0.822   6.829   7.648  0.2425  0.2213  0.2356
 6409TIP3    H140786   0.856   6.904   7.696  2.1908 -0.4617 -0.0102
 6409TIP3    H240787   0.829   6.756   7.710 -0.3472 -0.0321  0.0150
 6410TIP3   OH240788   5.926   2.516   7.345 -0.0217 -0.1902 -0.1595
 6410TIP3    H140789   6.016   2.489   7.364 -0.4135 -0.9238  0.7090
 6410TIP3    H240790   5.901   2.568   7.422 -0.5785 -0.5921 -0.0675
 6411TIP3   OH240791   1.755   5.491   0.311  0.4041 -0.4192  0.2597
 6411TIP3    H140792   1.771   5.425   0.379  0.7368  0.1395  0.7264
 6411TIP3    H240793   1.667   5.523   0.330  1.2793  1.2916  1.7948
 6412TIP3   OH240794   7.124   4.727   6.134 -0.5284  0.1262 -0.3250
 6412TIP3    H140795   7.069   4.795   6.095 -0.3013 -0.1459 -1.1518
 6412TIP3    H240796   7.165   4.684   6.059  0.8074  0.3146  0.2649
 6413TIP3   OH240797   3.444   4.342   2.202  0.1627  0.4329  0.0369
 6413TIP3    H140798   3.538   4.360   2.207  0.4007 -1.1167  2.4048
 6413TIP3    H240799   3.439   4.250   2.177 -0.7164  0.3143  0.6231
 6414TIP3   OH240800   4.301   4.968   6.902 -0.4026  0.0475 -0.1049
 6414TIP3    H140801   4.372   5.021   6.866 -1.4003  0.9975 -0.7673
 6414TIP3    H240802   4.277   5.013   6.983 -0.1527 -0.3550  0.1931
 6415TIP3   OH240803   6.757   4.169   5.930 -0.0251 -0.0996  0.6993
 6415TIP3    H140804   6.766   4.262   5.952 -0.1137  0.3094 -0.8612
 6415TIP3    H240805   6.668   4.161   5.894  0.9540 -0.1151 -1.9757
 6416TIP3   OH240806   5.108   6.803   6.726  0.5925 -0.1640  0.4179
 6416TIP3    H140807   5.135   6.784   6.636  0.3111 -0.4706  0.3985
 6416TIP3    H240808   5.014   6.786   6.727  0.6852 -0.6644  0.9022
 6417TIP3   OH240809   1.850   6.653   7.798 -0.4904  0.2535 -0.2084
 6417TIP3    H140810   1.945   6.638   7.798 -0.2335  1.6073  1.0421
 6417TIP3    H240811   1.826   6.658   7.706  0.6418 -0.1868 -0.5459
 6418TIP3   OH240812   5.213   4.841   7.209  0.4366 -0.5236 -0.4964
 6418TIP3    H140813   5.161   4.921   7.204 -0.4992 -1.1030 -0.3841
 6418TIP3    H240814   5.304   4.871   7.212  0.0901  0.5419 -0.1611
 6419TIP3   OH240815   1.297   2.831   2.313 -0.3748 -0.1290 -0.4764
 6419TIP3    H140816   1.339   2.903   2.360 -2.5905  0.1694  1.2176
 6419TIP3    H240817   1.301   2.856   2.221  1.2808  0.8083 -0.1920
 6420TIP3   OH240818   3.400   3.421   7.624  0.7841 -0.3971 -0.7865
 6420TIP3    H140819   3.339   3.347   7.621 -1.7795  1.2312  3.0908
 6420TIP3    H240820   3.477   3.387   7.670  0.1577 -0.9881 -0.1514
 6421TIP3   OH240821   4.545   4.234   1.982  0.4312 -0.1584  0.3026
 6421TIP3    H140822   4.527   4.141   1.972  0.1081 -0.1407  0.7138
 6421TIP3    H240823   4.623   4.237   2.038  1.1571 -0.2080 -0.6810
 6422TIP3   OH240824   2.117   6.073   1.098 -0.1306 -0.1898  0.6238
 6422TIP3    H140825   2.024   6.071   1.074  0.7026  1.8877 -3.9179
 6422TIP3    H240826   2.128   6.157   1.143 -0.3629 -0.1327  0.5755
 6423TIP3   OH240827   1.682   5.769   6.471 -0.0030  0.4264 -0.0130
 6423TIP3    H140828   1.760   5.768   6.526  2.1160 -0.5369 -2.8196
 6423TIP3    H240829   1.686   5.853   6.424  0.3507 -0.3448 -1.4220
 6424TIP3   OH240830   0.145   2.953   0.908 -0.0906 -0.1892  0.2938
 6424TIP3    H140831   0.077   2.938   0.843 -0.0287 -1.8309  0.5585
 6424TIP3    H240832   0.227   2.933   0.862  0.2849  2.1112 -0.1265
 6425TIP3   OH240833   5.218   0.296   6.984  0.0032 -0.3223 -0.2121
 6425TIP3    H140834   5.276   0.221   6.971  1.1679  0.5881 -0.4214
 6425TIP3    H240835   5.208   0.334   6.897  0.5165  0.5408  0.0932
 6426TIP3   OH240836   2.709   0.627   6.453 -0.2513 -0.2860  0.1077
 6426TIP3    H140837   2.679   0.688   6.386  3.6215  1.2549 -0.4532
 6426TIP3    H240838   2.671   0.660   6.534  0.0562  1.6715 -0.4946
 6427TIP3   OH240839   3.299   0.796   0.281 -0.0740 -0.0946  0.0585
 6427TIP3    H140840   3.230   0.823   0.342  0.3089  0.0246  0.4382
 6427TIP3    H240841   3.378   0.840   0.312  0.2447 -0.4827 -0.1865
 6428TIP3   OH240842   5.254   4.893   7.775 -0.1936 -0.1922  0.2187
 6428TIP3    H140843   5.347   4.915   7.779 -0.4916  1.1685  0.0960
 6428TIP3    H240844   5.252   4.807   7.733  0.8921  0.7741 -1.9449
 6429TIP3   OH240845   3.939   5.916   0.402 -0.4820 -0.3597 -0.0003
 6429TIP3    H140846   3.891   5.939   0.322  0.1070 -2.8342 -1.1516
 6429TIP3    H240847   4.025   5.956   0.390 -0.5340 -0.3628 -0.4075
 6430TIP3   OH240848   0.294   5.329   0.099 -0.0608  0.1332  0.0150
 6430TIP3    H140849   0.199   5.329   0.085 -0.2010 -0.9053  0.8998
 6430TIP3    H240850   0.330   5.351   0.013 -1.1138  1.7875 -0.0616
 6431TIP3   OH240851   7.068   3.040   6.519 -0.1424 -0.1201 -0.0437
 6431TIP3    H140852   7.051   3.032   6.425 -0.3832  1.5732 -0.1665
 6431TIP3    H240853   7.162   3.024   6.528 -0.5317 -3.1656 -0.1586
 6432TIP3   OH240854   0.826   2.467   6.514  0.0846 -0.1443  0.2457
 6432TIP3    H140855   0.740   2.508   6.507 -1.0791 -2.3747  0.6810
 6432TIP3    H240856   0.883   2.521   6.459 -1.4395  1.7017  0.3786
 6433TIP3   OH240857   2.285   3.129   6.311  0.0265  0.2474 -0.0854
 6433TIP3    H140858   2.348   3.194   6.342 -0.5133  0.5962  0.3041
 6433TIP3    H240859   2.338   3.062   6.270  0.6135  0.8007 -0.2440
 6434TIP3   OH240860   3.148   5.178   5.870  0.3250  0.6761  0.2302
 6434TIP3    H140861   3.088   5.106   5.853  0.1729  1.1062 -1.1580
 6434TIP3    H240862   3.235   5.142   5.852  0.2625  0.7747 -0.2930
 6435TIP3   OH240863   6.969   4.625   0.103 -0.0529  0.2272  0.1381
 6435TIP3    H140864   7.019   4.616   0.022 -2.0663 -0.5782 -1.1017
 6435TIP3    H240865   6.983   4.715   0.130  1.4275  0.2364 -0.5565
 6436TIP3   OH240866   0.274   0.578   1.540 -0.6435  0.6357  0.2543
 6436TIP3    H140867   0.350   0.605   1.487 -1.1537  1.7428  0.0703
 6436TIP3    H240868   0.304   0.585   1.630  1.1200 -3.7427  0.2584
 6437TIP3   OH240869   4.150   0.010   0.521 -0.2007 -0.0209  0.3432
 6437TIP3    H140870   4.123  -0.012   0.610 -0.1384  0.3171  0.4483
 6437TIP3    H240871   4.246   0.003   0.522 -0.2970 -2.0518 -0.2519
 6438TIP3   OH240872   1.150   3.536   7.790 -0.1120  0.3423 -0.4488
 6438TIP3    H140873   1.176   3.530   7.882  1.6121  1.4636 -0.8007
 6438TIP3    H240874   1.232   3.555   7.744 -1.1223  0.9113 -2.0893
 6439TIP3   OH240875   0.059   0.589   0.171 -0.3762  0.5796  0.1233
 6439TIP3    H140876   0.122   0.655   0.140 -0.9703  0.8568 -0.5323
 6439TIP3    H240877   0.098   0.555   0.251  1.5663 -0.6459 -1.2531
 6440TIP3   OH240878   5.699   0.198   0.462  0.5808 -0.3515 -0.1157
 6440TIP3    H140879   5.615   0.166   0.495 -0.4407  0.4373 -1.7601
 6440TIP3    H240880   5.720   0.274   0.517 -1.3566  1.2833 -1.4599
 6441TIP3   OH240881   0.534   7.163   1.292  0.2254  0.0731 -0.6621
 6441TIP3    H140882   0.594   7.201   1.356  0.2188  0.1491 -0.7010
 6441TIP3    H240883   0.544   7.217   1.214  0.4775 -0.2160 -0.8351
 6442TIP3   OH240884   0.590   4.847   7.609 -0.4227 -0.1794  0.2123
 6442TIP3    H140885   0.530   4.905   7.563  0.4769  0.0269 -0.7483
 6442TIP3    H240886   0.649   4.905   7.657 -0.6106 -0.3614  0.6710
 6443TIP3   OH240887   2.950   6.742   5.822 -0.7077 -0.2140 -0.4462
 6443TIP3    H140888   3.005   6.819   5.811  0.2502 -1.1718 -3.5256
 6443TIP3    H240889   2.879   6.754   5.760 -1.0732 -1.3831 -0.2791
 6444TIP3   OH240890   6.963   6.034   7.830 -0.1026  0.4071 -0.2273
 6444TIP3    H140891   6.962   6.128   7.848 -0.6476  0.3701 -0.0454
 6444TIP3    H240892   6.998   6.028   7.741  0.1189  0.7665 -0.1695
 6445TIP3   OH240893   3.755   4.101   2.022 -0.3441 -0.0721  0.0081
 6445TIP3    H140894   3.709   4.029   2.065  1.9023 -2.0796 -0.7070
 6445TIP3    H240895   3.713   4.180   2.055 -2.3422 -1.6716  1.5333
 6446TIP3   OH240896   4.309   7.058   7.558  0.2444  0.0034  0.3835
 6446TIP3    H140897   4.343   7.142   7.588  1.1834 -0.1465 -0.2317
 6446TIP3    H240898   4.301   7.068   7.463 -2.3199  0.3392  0.5607
 6447TIP3   OH240899   5.995   4.210   6.998  0.5046 -0.0771 -0.2619
 6447TIP3    H140900   5.928   4.189   7.063  1.1493  1.5833  1.0082
 6447TIP3    H240901   6.074   4.167   7.031  0.8267  0.7454  0.0662
 6448TIP3   OH240902   4.110   5.559   1.094 -0.1237 -0.3999  0.5212
 6448TIP3    H140903   4.129   5.491   1.029 -1.2893 -0.9239  0.7120
 6448TIP3    H240904   4.117   5.515   1.178  0.8037  0.1429  0.7433
 6449TIP3   OH240905   4.112   5.251   1.005  0.3469  0.4730  0.5621
 6449TIP3    H140906   4.171   5.289   0.940 -0.5170  2.0736  0.6437
 6449TIP3    H240907   4.170   5.216   1.073  1.2202  0.3636 -0.2209
 6450TIP3   OH240908   4.625   4.309   7.288 -0.2784 -0.6140 -0.4785
 6450TIP3    H140909   4.639   4.229   7.237 -0.3303 -0.7763 -0.2402
 6450TIP3    H240910   4.632   4.380   7.224  1.4551 -0.6908 -0.4203
 6451TIP3   OH240911   3.727   4.397   0.395  0.2308 -0.3631  0.1236
 6451TIP3    H140912   3.726   4.440   0.480 -0.0079 -0.4426  0.1627
 6451TIP3    H240913   3.669   4.449   0.341 -0.7319 -1.1084  0.4114
 6452TIP3   OH240914   4.305   4.650   1.077 -0.4086  0.5589  0.1409
 6452TIP3    H140915   4.227   4.595   1.075  1.0421 -1.7300  1.4531
 6452TIP3    H240916   4.369   4.603   1.023  0.8222  1.0256  1.1360
 6453TIP3   OH240917   0.278   0.618   1.818  0.7711  0.7577 -0.1631
 6453TIP3    H140918   0.189   0.652   1.818 -0.0947 -1.3344 -0.2526
 6453TIP3    H240919   0.305   0.620   1.909 -0.3880 -0.9490  0.2648
 6454TIP3   OH240920   2.413   7.092   0.930 -0.3829  0.1145  0.4170
 6454TIP3    H140921   2.505   7.079   0.904  0.3714  1.6635  2.1183
 6454TIP3    H240922   2.372   7.129   0.851  0.8532  0.8944  0.0955
 6455TIP3   OH240923   4.191   1.964   0.526  0.0361  0.0064 -0.4751
 6455TIP3    H140924   4.229   1.881   0.495 -1.4548 -0.4642 -1.1255
 6455TIP3    H240925   4.249   2.031   0.490  0.4880 -0.6976 -1.0983
 6456TIP3   OH240926   3.526   1.623   6.380  0.2407  0.2499 -0.3777
 6456TIP3    H140927   3.580   1.700   6.398 -0.2578  0.9577 -1.7732
 6456TIP3    H240928   3.436   1.653   6.389  0.0342 -0.7317  1.1684
 6457TIP3   OH240929   4.187   6.088   1.521  0.1402  0.5315 -0.1108
 6457TIP3    H140930   4.162   6.121   1.607 -0.8966 -0.3575 -0.0489
 6457TIP3    H240931   4.282   6.085   1.522  0.1507  1.1724  0.7608
 6458TIP3   OH240932   2.089   0.613   7.855  0.0042 -0.4349  0.5302
 6458TIP3    H140933   2.007   0.662   7.866 -0.9089 -1.8212  0.0811
 6458TIP3    H240934   2.100   0.606   7.760  1.6769  1.3476  0.5133
 6459TIP3   OH240935   4.118   4.631   7.118  0.0597 -0.5864 -0.6682
 6459TIP3    H140936   4.099   4.541   7.091  0.6342 -0.6677 -0.8293
 6459TIP3    H240937   4.156   4.622   7.206  0.5758 -0.5496 -0.8834
 6460TIP3   OH240938   3.283   3.085   1.138 -0.8449 -0.0787 -0.4245
 6460TIP3    H140939   3.258   3.103   1.047 -0.0316 -0.8073 -0.8006
 6460TIP3    H240940   3.203   3.051   1.178 -1.1477  0.0346 -0.9203
 6461TIP3   OH240941   2.926   2.399   6.835 -0.2407  0.8214  0.1472
 6461TIP3    H140942   2.932   2.389   6.930 -0.4507  1.4812  0.2299
 6461TIP3    H240943   2.843   2.357   6.812  0.3840 -0.4349  0.0920
 6462TIP3   OH240944   2.660   3.586   0.925  0.0443 -0.2202  0.0551
 6462TIP3    H140945   2.610   3.604   1.006 -0.0533 -0.7793  0.1190
 6462TIP3    H240946   2.741   3.546   0.956 -0.3930 -1.2951 -0.1777
 6463TIP3   OH240947   1.316   2.820   1.276  0.4871 -0.3775 -0.2136
 6463TIP3    H140948   1.363   2.737   1.287 -1.7113 -1.8405 -1.1624
 6463TIP3    H240949   1.373   2.885   1.317  2.2927 -2.3391  0.5943
 6464TIP3   OH240950   5.873   1.100   1.540  0.4008 -0.2757  0.2463
 6464TIP3    H140951   5.801   1.162   1.535  0.5825 -0.1353 -1.4800
 6464TIP3    H240952   5.942   1.139   1.485  0.9213 -1.4707  0.0100
 6465TIP3   OH240953   6.589   2.669   7.517 -0.0892 -0.1007  0.3481
 6465TIP3    H140954   6.503   2.685   7.478 -0.0774 -0.9376 -0.0429
 6465TIP3    H240955   6.631   2.755   7.519 -1.0003  0.3498  0.7150
 6466TIP3   OH240956   6.662   6.938   6.407 -0.4089  0.1182 -0.1425
 6466TIP3    H140957   6.700   6.857   6.443 -0.5483  0.1788  0.1411
 6466TIP3    H240958   6.573   6.913   6.382 -0.9004  0.5039  1.1466
 6467TIP3   OH240959   0.280   5.454   6.294  0.1762 -0.3555  0.1462
 6467TIP3    H140960   0.202   5.492   6.253  0.7351  1.7410  0.9177
 6467TIP3    H240961   0.314   5.393   6.229 -2.0615 -1.2882 -0.2262
 6468TIP3   OH240962   6.206   3.853   6.310  0.1593  0.8914  0.5236
 6468TIP3    H140963   6.245   3.768   6.289  0.2361  0.6354  1.6404
 6468TIP3    H240964   6.173   3.886   6.227 -0.2131 -0.4095  0.1363
 6469TIP3   OH240965   5.450   5.298   7.709  0.4595  0.3613 -0.4096
 6469TIP3    H140966   5.443   5.355   7.786  1.4991 -2.6947  2.1608
 6469TIP3    H240967   5.359   5.278   7.687  0.1401  1.2921 -0.0013
 6470TIP3   OH240968   5.240   1.946   1.984 -0.0424 -0.3345 -0.2195
 6470TIP3    H140969   5.156   1.901   1.976 -0.3806  0.1094  0.7332
 6470TIP3    H240970   5.226   2.012   2.052  0.7652  0.4767 -0.8208
 6471TIP3   OH240971   3.592   6.234   6.260 -0.3367 -0.1432 -0.2097
 6471TIP3    H140972   3.499   6.230   6.237 -0.8188 -2.0082  1.7172
 6471TIP3    H240973   3.593   6.236   6.356  1.6007  0.0092 -0.1940
 6472TIP3   OH240974   2.675   5.211   1.640 -0.3929 -0.1450 -0.0736
 6472TIP3    H140975   2.711   5.280   1.697 -0.7612 -0.0408  0.0349
 6472TIP3    H240976   2.617   5.161   1.697  2.3355 -2.6413  0.7963
 6473TIP3   OH240977   1.514   0.503   7.999  0.0838 -0.6780  0.1734
 6473TIP3    H140978   1.549   0.469   7.917  0.8510 -1.9484  0.9993
 6473TIP3    H240979   1.584   0.560   8.033  0.9629 -2.3378  1.2734
 6474TIP3   OH240980   1.880   6.728   0.583 -0.3482  0.2404  0.5090
 6474TIP3    H140981   1.893   6.813   0.625  2.1541  0.2108 -0.0656
 6474TIP3    H240982   1.943   6.727   0.510 -0.0241 -2.2494  0.7424
 6475TIP3   OH240983   4.893   4.831   1.225 -0.0408 -0.3471 -0.4786
 6475TIP3    H140984   4.829   4.900   1.244  0.8237  0.4856 -0.5259
 6475TIP3    H240985   4.895   4.825   1.130 -1.1946 -1.4925 -0.4569
 6476TIP3   OH240986   5.963   2.950   0.469 -0.6452  0.0204 -0.7103
 6476TIP3    H140987   6.039   3.002   0.442 -0.2391  0.5328  1.3046
 6476TIP3    H240988   5.889   2.995   0.428  0.0123  0.0011 -2.0072
 6477TIP3   OH240989   2.135   5.302   6.845 -0.1345  0.0410  0.5769
 6477TIP3    H140990   2.061   5.291   6.785  0.7900  0.3225 -0.6575
 6477TIP3    H240991   2.095   5.317   6.930 -1.4924 -1.1529  0.1965
 6478TIP3   OH240992   4.440   6.152   6.255 -0.0828  0.5507 -0.4940
 6478TIP3    H140993   4.484   6.084   6.204 -0.2794  0.5344 -0.6417
 6478TIP3    H240994   4.352   6.157   6.218  0.0666  1.1943 -0.7837
 6479TIP3   OH240995   4.325   0.686   7.279  0.2142  0.1091 -0.6550
 6479TIP3    H140996   4.353   0.623   7.344 -0.6414  0.7031  0.3310
 6479TIP3    H240997   4.281   0.755   7.329  1.8167  1.9270 -1.5743
 6480TIP3   OH240998   3.532   3.739   0.265  0.3403  0.6273 -0.3860
 6480TIP3    H140999   3.489   3.808   0.315 -0.8592  1.4240 -2.4023
 6480TIP3    H241000   3.583   3.785   0.198 -0.4864 -0.3773 -1.7811
 6481TIP3   OH241001   1.928   3.952   0.918 -0.3508 -0.4901  0.1118
 6481TIP3    H141002   1.969   4.007   0.850 -1.9521 -0.2457 -0.6964
 6481TIP3    H241003   1.992   3.883   0.934 -0.1945 -0.9449 -2.1649
 6482TIP3   OH241004   4.176   6.638   6.970 -0.0525  0.2040  0.0222
 6482TIP3    H141005   4.223   6.720   6.953 -2.7686  1.9369  0.2114
 6482TIP3    H241006   4.193   6.619   7.063  2.5434 -0.8851 -0.5918
 6483TIP3   OH241007   2.959   6.426   1.135 -0.4630 -0.3018  0.1589
 6483TIP3    H141008   2.994   6.485   1.068  1.2219  0.1282  1.3585
 6483TIP3    H241009   2.886   6.475   1.173  0.2523  0.5930  0.4205
 6484TIP3   OH241010   4.567   2.161   2.370  0.0113  0.2449  0.8054
 6484TIP3    H141011   4.614   2.083   2.343 -0.8672 -0.7619  2.0591
 6484TIP3    H241012   4.511   2.182   2.295 -0.1348 -0.6527  0.6518
 6485TIP3   OH241013   0.178   6.054   1.129 -0.4782 -0.1992  1.0273
 6485TIP3    H141014   0.152   5.983   1.070 -0.6983  0.3160  0.5038
 6485TIP3    H241015   0.119   6.044   1.204 -0.1667 -0.8798  1.1926
 6486TIP3   OH241016   1.949   2.330   6.753 -0.4097 -0.6332  0.1630
 6486TIP3    H141017   1.921   2.374   6.673 -0.0777 -2.8535 -1.2516
 6486TIP3    H241018   2.010   2.262   6.723 -0.9951 -2.1349  2.1883
 6487TIP3   OH241019   4.055   6.389   1.725 -0.4355 -0.2374  0.0564
 6487TIP3    H141020   4.077   6.298   1.705  0.5917 -0.3296  1.4882
 6487TIP3    H241021   3.996   6.383   1.800 -0.4051  0.2937  0.1241
 6488TIP3   OH241022   4.198   5.685   0.485  0.4978  0.2280  0.0944
 6488TIP3    H141023   4.130   5.752   0.497 -1.5253 -1.5406 -0.9201
 6488TIP3    H241024   4.242   5.710   0.404  0.0392  0.5674 -0.0555
 6489TIP3   OH241025   2.788   2.541   0.391  0.3133 -0.5121  0.0283
 6489TIP3    H141026   2.821   2.618   0.437  0.4762 -1.1766  1.0702
 6489TIP3    H241027   2.866   2.503   0.350  0.4405 -0.7742  0.5084
 6490TIP3   OH241028   1.785   6.075   6.406 -0.3218 -0.0847  0.0493
 6490TIP3    H141029   1.782   6.159   6.361 -1.0553  0.1183  0.4644
 6490TIP3    H241030   1.862   6.081   6.463 -0.0552  0.0856 -0.3216
 6491TIP3   OH241031   5.155   3.648   7.224 -0.0808  0.4811 -0.0273
 6491TIP3    H141032   5.164   3.669   7.132  0.8295  1.5437  0.2828
 6491TIP3    H241033   5.244   3.654   7.259 -0.0831 -1.8184  0.5573
 6492TIP3   OH241034   6.513   5.140   1.228  0.9731  0.2067 -0.0127
 6492TIP3    H141035   6.516   5.135   1.324  1.2403  0.1750 -0.0213
 6492TIP3    H241036   6.422   5.120   1.206  0.9010  0.2526  0.2371
 6493TIP3   OH241037   1.171   6.967   1.489  0.0507  0.0955  0.8970
 6493TIP3    H141038   1.135   6.903   1.428  0.9203 -0.9441  1.4223
 6493TIP3    H241039   1.097   6.996   1.542 -0.6275  0.6932 -0.3578
 6494TIP3   OH241040   2.859   0.185   1.856 -0.2352 -0.5316 -0.0196
 6494TIP3    H141041   2.805   0.111   1.884 -0.0371 -0.1032  1.5688
 6494TIP3    H241042   2.819   0.262   1.898 -0.3742  0.2735 -1.5464
 6495TIP3   OH241043   1.510   1.174   7.818 -0.6155 -0.1680  0.1071
 6495TIP3    H141044   1.445   1.241   7.797 -0.4901  0.1824  0.7787
 6495TIP3    H241045   1.461   1.105   7.862 -0.9095 -0.9866 -1.4293
 6496TIP3   OH241046   1.707   2.321   1.669  0.2540  0.3636 -0.3040
 6496TIP3    H141047   1.772   2.289   1.731  0.2941 -1.5268 -1.2328
 6496TIP3    H241048   1.736   2.410   1.648  0.6807  0.7511  1.7287
 6497TIP3   OH241049   1.476   0.237   7.003 -0.3504  0.1700 -0.1024
 6497TIP3    H141050   1.399   0.210   6.953  1.3746 -0.8215 -2.3766
 6497TIP3    H241051   1.507   0.315   6.958  0.5167 -0.0032  0.1864
 6498TIP3   OH241052   5.721   5.113   5.615  0.7030  0.0882  0.1872
 6498TIP3    H141053   5.782   5.086   5.684 -0.3324 -2.3375  0.2564
 6498TIP3    H241054   5.770   5.101   5.533  0.2430 -2.4783  0.1942
 6499TIP3   OH241055   0.554   0.234   6.420 -0.0396  0.1309 -0.2505
 6499TIP3    H141056   0.606   0.250   6.498 -0.5407  0.4350  0.0278
 6499TIP3    H241057   0.579   0.147   6.391 -0.1149 -0.1318  0.4580
 6500TIP3   OH241058   6.255   1.563   0.211 -0.5650 -0.0823 -0.6169
 6500TIP3    H141059   6.252   1.635   0.274  0.6719  1.2519 -2.0290
 6500TIP3    H241060   6.165   1.528   0.210 -1.1489  1.3207  0.1978
 6501TIP3   OH241061   6.949   5.166   2.104  0.6481  0.5335 -0.2344
 6501TIP3    H141062   6.872   5.148   2.158  0.9687  1.1598  0.4506
 6501TIP3    H241063   6.943   5.103   2.032 -1.0604  1.2634 -0.7753
 6502TIP3   OH241064   2.616   4.882   7.874  0.4488 -0.9617  0.4236
 6502TIP3    H141065   2.679   4.858   7.942 -0.4269 -1.3989  1.1057
 6502TIP3    H241066   2.629   4.816   7.805  2.6612  0.5812 -0.7593
 6503TIP3   OH241067   5.801   1.113   7.990  0.0252  0.1453  0.1154
 6503TIP3    H141068   5.865   1.051   7.954 -0.9538 -0.9490  0.2061
 6503TIP3    H241069   5.812   1.106   8.085 -1.0146 -0.9590  0.1860
 6504TIP3   OH241070   5.309   6.610   0.301 -0.1207 -0.1567  0.4796
 6504TIP3    H141071   5.383   6.620   0.361  0.0817 -0.8547  0.3497
 6504TIP3    H241072   5.349   6.593   0.216 -0.2318  4.3550 -0.7332
 6505TIP3   OH241073   5.092   0.785   7.864 -0.5548  0.3695 -0.2335
 6505TIP3    H141074   5.162   0.788   7.799 -0.0248  0.7896  0.3439
 6505TIP3    H241075   5.012   0.770   7.813 -0.1007  0.3305 -0.9414
 6506TIP3   OH241076   0.276   4.182   5.869 -0.7079  0.0084  0.2485
 6506TIP3    H141077   0.189   4.199   5.834 -1.3604 -2.9143  0.1390
 6506TIP3    H241078   0.264   4.106   5.926  1.6121  0.1548  1.0512
 6507TIP3   OH241079   2.226   1.109   6.528  0.1831 -0.2461 -0.1054
 6507TIP3    H141080   2.221   1.204   6.532 -0.4626 -0.3023  0.5851
 6507TIP3    H241081   2.191   1.086   6.442 -1.6415  0.0259  0.5347
 6508TIP3   OH241082   6.977   5.664   1.006  0.4018  0.3184 -0.3662
 6508TIP3    H141083   7.016   5.577   1.009 -1.0173 -0.3646 -0.6282
 6508TIP3    H241084   7.001   5.704   1.089  0.8623 -0.4168 -0.1344
 6509TIP3   OH241085   5.055   5.609   0.646  0.2230  0.1372 -0.5388
 6509TIP3    H141086   5.063   5.688   0.700 -0.2498  0.9970 -1.6941
 6509TIP3    H241087   4.979   5.563   0.682  0.9491 -0.2025  0.6171
 6510TIP3   OH241088   6.169   3.002   7.166  0.3638  0.3217 -0.2796
 6510TIP3    H141089   6.172   2.910   7.191  0.4176 -0.0093 -1.4370
 6510TIP3    H241090   6.080   3.030   7.188 -0.4929 -0.6998 -2.1614
 6511TIP3   OH241091   0.259   4.258   6.341 -0.7145 -0.5562  0.2854
 6511TIP3    H141092   0.287   4.347   6.321  0.4140 -1.4721 -2.8342
 6511TIP3    H241093   0.167   4.255   6.315 -0.6007 -0.4223 -0.1460
 6512TIP3   OH241094   1.575   3.706   0.412  0.0606  0.1483  0.7434
 6512TIP3    H141095   1.665   3.680   0.398 -0.3595 -1.3938  0.7021
 6512TIP3    H241096   1.523   3.633   0.379 -1.1863  0.7160  1.3589
 6513TIP3   OH241097   4.251   2.574   1.190  0.2929 -0.2269 -0.2547
 6513TIP3    H141098   4.157   2.564   1.202  0.4685 -0.3164  1.2949
 6513TIP3    H241099   4.262   2.602   1.100 -1.3643  1.5902  0.0553
 6514TIP3   OH241100   1.905   3.762   6.334  0.2477  0.1505  0.0101
 6514TIP3    H141101   1.833   3.822   6.314  0.0392 -0.2996 -0.5995
 6514TIP3    H241102   1.893   3.741   6.426 -0.9885 -0.6943 -0.3182
 6515TIP3   OH241103   1.734   5.084   1.067  0.2298  0.4061 -0.0386
 6515TIP3    H141104   1.709   5.106   1.157 -0.3743 -0.3518 -0.0127
 6515TIP3    H241105   1.829   5.074   1.070  0.0651 -1.1155  0.8667
 6516TIP3   OH241106   0.035   6.602   7.788  0.5725  0.4512 -0.1407
 6516TIP3    H141107   0.086   6.538   7.738 -1.5966 -0.8186 -0.9111
 6516TIP3    H241108  -0.044   6.616   7.735 -1.8869 -0.9671  2.8127
 6517TIP3   OH241109   2.341   6.579   6.435 -0.5137  0.1760  0.5653
 6517TIP3    H141110   2.330   6.547   6.346 -1.0289 -0.3516  0.8166
 6517TIP3    H241111   2.429   6.617   6.436  0.2608 -1.5138  0.3514
 6518TIP3   OH241112   4.856   1.634   0.604 -0.1179  0.3252  0.2441
 6518TIP3    H141113   4.844   1.618   0.697 -1.8415 -0.1016 -0.0227
 6518TIP3    H241114   4.924   1.702   0.600  1.6987 -1.3015  1.6843
 6519TIP3   OH241115   1.496   5.622   0.315 -0.3330 -0.0188 -0.3063
 6519TIP3    H141116   1.455   5.584   0.237 -1.1852  0.2757 -0.0186
 6519TIP3    H241117   1.422   5.647   0.371  0.1580  2.5463 -0.7081
 6520TIP3   OH241118   6.778   1.580   7.858  0.0124 -0.3754 -0.0928
 6520TIP3    H141119   6.846   1.580   7.790  0.9488  0.5780  0.7896
 6520TIP3    H241120   6.825   1.604   7.938 -1.4399  0.7718  0.4661
 6521TIP3   OH241121   2.641   6.713   2.312  1.1583 -0.0470 -0.7716
 6521TIP3    H141122   2.640   6.627   2.270 -1.3367 -0.8831  0.8084
 6521TIP3    H241123   2.678   6.698   2.398 -3.1652 -0.6373  1.2504
 6522TIP3   OH241124   5.203   6.431   7.132  0.4558 -0.1762  0.2072
 6522TIP3    H141125   5.172   6.521   7.136 -0.9237 -0.5699 -0.6849
 6522TIP3    H241126   5.210   6.404   7.224  0.2440  0.6262  0.4676
 6523TIP3   OH241127   3.721   0.188   1.869 -0.4182 -0.4904 -0.2902
 6523TIP3    H141128   3.701   0.141   1.950 -0.2951  2.4334  1.5836
 6523TIP3    H241129   3.646   0.246   1.856  0.8532  1.1489 -0.6070
 6524TIP3   OH241130   4.189   3.966   7.100 -0.2168  0.2280  0.4784
 6524TIP3    H141131   4.259   4.031   7.107  2.6497 -2.6653  0.6821
 6524TIP3    H241132   4.173   3.938   7.190 -0.3781 -0.3618  0.2740
 6525TIP3   OH241133   1.501   6.470   1.177 -0.0161  0.1150  0.3795
 6525TIP3    H141134   1.566   6.420   1.227  0.6534 -0.1005 -0.6777
 6525TIP3    H241135   1.418   6.427   1.196  0.2469 -0.0859  1.1365
 6526TIP3   OH241136   2.320   3.245   1.406  0.4968 -0.1792  0.1894
 6526TIP3    H141137   2.408   3.258   1.442 -0.1947 -0.6840  2.2024
 6526TIP3    H241138   2.334   3.196   1.325  2.0883  0.0596  0.2968
 6527TIP3   OH241139   2.301   3.403   7.777  0.4184  0.0517  0.2576
 6527TIP3    H141140   2.224   3.411   7.721 -1.7172  1.1667  3.1227
 6527TIP3    H241141   2.284   3.326   7.830  0.8672  0.7435  1.4476
 6528TIP3   OH241142   6.942   2.869   1.067 -0.0197 -0.2845 -0.1763
 6528TIP3    H141143   6.869   2.921   1.100 -0.4052  0.1305 -1.6145
 6528TIP3    H241144   7.018   2.927   1.073 -0.0153 -0.3335  0.2786
 6529TIP3   OH241145   6.722   6.739   6.797  0.4554 -0.3174 -0.1403
 6529TIP3    H141146   6.777   6.667   6.766 -0.5704 -0.3275 -2.0680
 6529TIP3    H241147   6.773   6.818   6.776  0.9080 -0.4045  0.5868
 6530TIP3   OH241148   6.947   0.671   6.400 -0.2043 -0.3977 -0.0424
 6530TIP3    H141149   6.910   0.714   6.477 -1.5621 -0.3411 -0.7105
 6530TIP3    H241150   7.028   0.630   6.432  0.0987  0.9869  1.0368
 6531TIP3   OH241151   4.751   6.199   6.659 -0.1156  0.3946  0.0305
 6531TIP3    H141152   4.768   6.213   6.752  0.2169 -0.4571  0.1079
 6531TIP3    H241153   4.729   6.286   6.625 -0.7383  0.6336  1.0008
 6532TIP3   OH241154   1.253   1.276   7.607  0.8502  0.0443 -0.3618
 6532TIP3    H141155   1.273   1.311   7.520  1.7378 -1.4860 -0.8238
 6532TIP3    H241156   1.233   1.352   7.660 -0.2403  0.9993 -2.0347
 6533TIP3   OH241157   4.770   4.148   7.460 -0.4076 -0.6091  0.2726
 6533TIP3    H141158   4.690   4.195   7.433 -0.6150 -0.0861  1.7245
 6533TIP3    H241159   4.837   4.216   7.460  0.2232 -1.1695 -1.5517
 6534TIP3   OH241160   7.035   0.744   7.390  0.3501 -0.4124 -0.3396
 6534TIP3    H141161   6.942   0.747   7.366  0.4620  2.4112 -0.8578
 6534TIP3    H241162   7.036   0.717   7.482 -0.7178 -3.2390 -1.0748
 6535TIP3   OH241163   3.399   6.865   7.000  0.0081  0.5587 -0.1945
 6535TIP3    H141164   3.341   6.789   7.005  0.4233  0.2840  0.6747
 6535TIP3    H241165   3.352   6.928   6.945  0.4350 -0.9890 -2.4701
 6536TIP3   OH241166   3.943   0.503   0.498 -0.1922  0.1531 -0.0209
 6536TIP3    H141167   3.974   0.451   0.424  1.6603  1.0510  0.0516
 6536TIP3    H241168   3.900   0.441   0.556 -1.0157 -0.6883 -1.5023
 6537TIP3   OH241169   2.725   7.075   6.953 -0.3001  0.1994 -0.4882
 6537TIP3    H141170   2.642   7.112   6.925 -0.5223 -0.1273 -0.2691
 6537TIP3    H241171   2.721   6.983   6.928 -0.0938  0.1320 -0.2889
 6538TIP3   OH241172   4.728   0.348   7.547 -0.6323  0.4525 -0.0770
 6538TIP3    H141173   4.728   0.353   7.642  0.1869  1.3641 -0.1089
 6538TIP3    H241174   4.708   0.437   7.518 -1.0728  0.1430 -0.7611
 6539TIP3   OH241175   5.812   0.387   6.362 -0.1967 -0.1648 -0.7431
 6539TIP3    H141176   5.757   0.465   6.366  1.3838  0.9961 -0.7644
 6539TIP3    H241177   5.786   0.336   6.439 -0.0292  1.2550  0.2939
 6540TIP3   OH241178   6.763   3.285   1.018  0.6097  0.3342 -0.6702
 6540TIP3    H141179   6.844   3.292   0.968  0.8481 -0.3913 -0.3780
 6540TIP3    H241180   6.789   3.291   1.109  0.3359  0.0378 -0.5715
 6541TIP3   OH241181   3.926   0.809   0.261  0.3983  0.2381  0.5159
 6541TIP3    H141182   3.913   0.891   0.213  0.3526 -0.5366 -0.8360
 6541TIP3    H241183   3.854   0.752   0.232  1.9775 -1.2259 -0.6998
 6542TIP3   OH241184   3.561   0.349   7.289  0.3189  0.3412 -0.0582
 6542TIP3    H141185   3.653   0.326   7.302  0.1119  0.3287  1.5573
 6542TIP3    H241186   3.529   0.286   7.225  1.6209  0.8320 -1.2347
 6543TIP3   OH241187   6.011   4.236   1.270  0.0667  0.1839 -0.5342
 6543TIP3    H141188   5.998   4.143   1.248  0.5849 -0.3428  1.2162
 6543TIP3    H241189   6.099   4.256   1.238  0.3662 -0.2388  0.0128
 6544TIP3   OH241190   2.664   5.421   1.286  0.2673 -0.4177 -0.2959
 6544TIP3    H141191   2.734   5.410   1.350  2.7225  2.9441 -2.0959
 6544TIP3    H241192   2.619   5.502   1.313 -0.9495 -0.8678 -0.8854
 6545TIP3   OH241193   4.570   0.492   1.361  0.6870  0.5028 -0.4028
 6545TIP3    H141194   4.573   0.514   1.453  2.1106  1.5859 -0.6843
 6545TIP3    H241195   4.492   0.536   1.328  0.7252  0.9261  0.0746
 6546TIP3   OH241196   2.828   5.642   6.044  0.1609  0.1555  0.2722
 6546TIP3    H141197   2.749   5.599   6.079 -0.0969  1.8332  1.8833
 6546TIP3    H241198   2.831   5.614   5.952 -0.9767 -1.8269  0.7680
 6547TIP3   OH241199   6.333   3.677   0.225  0.2161  0.2061  0.3535
 6547TIP3    H141200   6.269   3.627   0.276 -1.3014  2.8729  1.2382
 6547TIP3    H241201   6.372   3.738   0.288  1.8529  0.3078 -0.7082
 6548TIP3   OH241202   5.364   3.876   0.669  0.2926  0.3653 -0.0593
 6548TIP3    H141203   5.453   3.884   0.703  0.1103  0.6418  0.3638
 6548TIP3    H241204   5.354   3.783   0.648 -0.2285 -0.2155  2.4654
 6549TIP3   OH241205   4.920   4.705   7.694 -0.2099 -0.1100  0.1218
 6549TIP3    H141206   4.989   4.695   7.629 -0.0219 -0.7823  0.4191
 6549TIP3    H241207   4.840   4.675   7.650  0.0041 -1.0440  0.3600
 6550TIP3   OH241208   4.052   2.931   6.377  0.5931  0.1143  0.1878
 6550TIP3    H141209   4.026   2.920   6.468 -1.3869 -0.1503 -0.3559
 6550TIP3    H241210   4.036   3.024   6.358 -0.5981 -0.1686 -0.3067
 6551TIP3   OH241211   4.020   6.053   6.427  0.1297 -0.3245 -0.3249
 6551TIP3    H141212   3.955   6.087   6.366  0.6530  0.2145 -0.5990
 6551TIP3    H241213   4.015   6.111   6.503  0.2427 -0.3234 -0.3178
 6552TIP3   OH241214   4.742   5.504   0.400  0.1875  0.2079 -0.1128
 6552TIP3    H141215   4.722   5.438   0.467  0.5583  0.5947  0.3856
 6552TIP3    H241216   4.669   5.499   0.339  0.2390 -0.7049 -0.1109
 6553TIP3   OH241217   5.161   2.108   6.432  0.1809 -0.2006  0.0013
 6553TIP3    H141218   5.211   2.180   6.472  1.1075 -1.0748  0.4461
 6553TIP3    H241219   5.157   2.131   6.339 -1.5458  1.5876  0.4448
 6554TIP3   OH241220   4.691   0.025   6.158 -0.0497 -0.0697 -0.4230
 6554TIP3    H141221   4.705  -0.064   6.127 -0.6822 -0.3461  0.0663
 6554TIP3    H241222   4.700   0.019   6.253 -0.3090  0.3463 -0.3695
 6555TIP3   OH241223   5.625   0.010   2.176  0.5063  0.1078 -0.4551
 6555TIP3    H141224   5.567  -0.009   2.103  1.7115  1.1815 -1.7435
 6555TIP3    H241225   5.603   0.099   2.203 -1.5770 -1.0482  2.1618
 6556TIP3   OH241226   5.802   4.114   0.388  0.1287 -0.1151  0.1212
 6556TIP3    H141227   5.822   4.065   0.467 -1.6938 -0.6185  0.3124
 6556TIP3    H241228   5.815   4.206   0.412 -1.0128 -0.2166  1.2288
 6557TIP3   OH241229   4.953   4.938   6.218  0.4134  0.4506 -0.5226
 6557TIP3    H141230   4.867   4.963   6.251 -0.2369 -2.7110  0.4354
 6557TIP3    H241231   4.951   4.961   6.125 -2.5844 -1.9828 -1.2065
 6558TIP3   OH241232   0.341   1.764   0.224 -0.1515  0.2715 -0.3141
 6558TIP3    H141233   0.393   1.842   0.206 -2.7632  1.8347 -1.7666
 6558TIP3    H241234   0.390   1.692   0.185  2.3006  1.1165  1.0023
 6559TIP3   OH241235   1.925   5.719   1.538  0.2699  0.2032  0.3347
 6559TIP3    H141236   1.936   5.751   1.627 -0.7562  2.4598 -0.2707
 6559TIP3    H241237   1.954   5.791   1.483 -0.3717 -0.6321 -1.1596
 6560TIP3   OH241238   3.495   2.636   0.768 -0.3342 -0.4226 -0.0565
 6560TIP3    H141239   3.590   2.647   0.767 -0.0164 -2.7265 -1.2534
 6560TIP3    H241240   3.480   2.554   0.721 -3.1008  1.1428 -2.2337
 6561TIP3   OH241241   5.524   6.451   7.136  0.4718  0.4360  0.2369
 6561TIP3    H141242   5.481   6.367   7.150  0.1528  0.7416  1.1460
 6561TIP3    H241243   5.467   6.515   7.180  0.4330  1.2059 -0.8753
 6562TIP3   OH241244   5.852   1.577   0.816 -0.4849 -0.3949 -0.5570
 6562TIP3    H141245   5.788   1.524   0.768 -0.6379 -0.3283 -0.4251
 6562TIP3    H241246   5.856   1.538   0.903 -1.3055  0.3903 -0.1557
 6563TIP3   OH241247   6.012   4.292   0.687 -0.0322 -0.6301  0.4317
 6563TIP3    H141248   5.982   4.381   0.672  0.6331 -0.6038 -0.9199
 6563TIP3    H241249   6.046   4.263   0.602  0.2799 -1.9688  0.9777
 6564TIP3   OH241250   4.944   0.228   0.766  0.1271 -0.5948 -0.7156
 6564TIP3    H141251   4.933   0.310   0.814 -2.1827  0.1162 -2.3114
 6564TIP3    H241252   5.016   0.184   0.811  0.4434  1.6078  1.1263
 6565TIP3   OH241253   2.659   6.227   0.580 -0.1633 -0.3526 -0.0533
 6565TIP3    H141254   2.651   6.277   0.661  0.4772 -1.0820  0.4784
 6565TIP3    H241255   2.571   6.228   0.542 -0.2121  0.9936  0.0330
 6566TIP3   OH241256   0.292   0.984   6.779 -0.0870 -0.2089 -0.0951
 6566TIP3    H141257   0.355   0.963   6.848  0.9519  1.2763 -0.5480
 6566TIP3    H241258   0.232   1.046   6.820  0.9344  1.2110 -0.6654
 6567TIP3   OH241259   0.316   6.696   6.485 -0.2401 -0.0730  0.2930
 6567TIP3    H141260   0.354   6.614   6.452 -1.2906  0.0433 -1.3390
 6567TIP3    H241261   0.392   6.749   6.510  0.5969 -0.5994 -0.9831
 6568TIP3   OH241262   1.015   0.906   0.808  0.0822  0.2577  0.2835
 6568TIP3    H141263   1.022   0.821   0.766  0.1187  0.2879  0.2282
 6568TIP3    H241264   1.037   0.969   0.739 -1.2040  0.3814 -0.0362
 6569TIP3   OH241265   2.216   0.142   1.737 -0.2050 -0.8176 -0.0938
 6569TIP3    H141266   2.175   0.094   1.665 -0.0919  1.5006 -1.7852
 6569TIP3    H241267   2.306   0.156   1.709  0.4947 -1.7832  1.5293
 6570TIP3   OH241268   0.041   3.841   1.552 -0.4829 -0.6102  0.5053
 6570TIP3    H141269   0.099   3.832   1.628 -0.6463 -0.4640  0.6478
 6570TIP3    H241270   0.040   3.935   1.534  1.2755 -0.8260 -1.0171
 6571TIP3   OH241271   2.685   0.299   7.086  0.0753 -0.3461  0.0798
 6571TIP3    H141272   2.767   0.267   7.047  0.6939 -1.9743  2.4760
 6571TIP3    H241273   2.645   0.221   7.125 -1.9621  0.6645  0.1380
 6572TIP3   OH241274   4.198   6.508   1.044  0.4194  0.4191  0.5932
 6572TIP3    H141275   4.215   6.601   1.063 -0.2978  0.8227 -0.6086
 6572TIP3    H241276   4.144   6.479   1.118  0.2530  1.0991  0.7535
 6573TIP3   OH241277   4.954   3.578   1.900  0.1630 -0.3838  0.2180
 6573TIP3    H141278   5.042   3.616   1.902 -0.7806  1.9732  1.4231
 6573TIP3    H241279   4.944   3.548   1.810  2.5978 -1.8550  0.3380
 6574TIP3   OH241280   0.469   2.249   6.828 -0.6782  0.8038 -0.0399
 6574TIP3    H141281   0.415   2.327   6.814 -1.1407  0.3658 -0.7617
 6574TIP3    H241282   0.407   2.181   6.855 -0.3767  0.5036 -0.0907
 6575TIP3   OH241283   4.080   4.838   7.859 -0.7613  0.1292 -0.1625
 6575TIP3    H141284   4.096   4.766   7.920 -0.6825  0.2891  0.0047
 6575TIP3    H241285   3.986   4.854   7.865 -0.8489 -0.2465 -0.5184
 6576TIP3   OH241286   0.193   0.848   1.165 -0.2055  0.4816 -0.0411
 6576TIP3    H141287   0.212   0.767   1.117 -1.1243  1.2682 -1.7835
 6576TIP3    H241288   0.177   0.819   1.255  1.9401 -0.9865 -0.0589
 6577TIP3   OH241289   5.590   0.380   6.911 -0.3720 -0.1506  0.0528
 6577TIP3    H141290   5.502   0.350   6.889 -0.3375  0.0298 -0.3291
 6577TIP3    H241291   5.582   0.413   7.001 -0.6191 -0.4286  0.1379
 6578TIP3   OH241292   4.466   4.702   0.706  0.0203  0.3346 -0.1097
 6578TIP3    H141293   4.557   4.724   0.685 -0.1963 -0.2573 -1.8365
 6578TIP3    H241294   4.473   4.635   0.774  0.9307 -0.1795 -0.6845
 6579TIP3   OH241295   5.512   3.144   0.851  0.3475 -0.2899 -0.0091
 6579TIP3    H141296   5.468   3.103   0.925  0.9049 -2.2825 -0.7103
 6579TIP3    H241297   5.598   3.102   0.848  0.9302  0.9035 -0.8503
 6580TIP3   OH241298   1.220   0.517   1.975  0.7413  0.2633 -0.1198
 6580TIP3    H141299   1.168   0.498   1.897 -1.9829  0.0970  1.5954
 6580TIP3    H241300   1.241   0.430   2.011  1.8912  0.3402 -0.5741
 6581TIP3   OH241301   5.806   2.313   6.300  0.2815  0.7741  0.1291
 6581TIP3    H141302   5.733   2.269   6.255  1.9324 -0.8818 -1.0875
 6581TIP3    H241303   5.832   2.251   6.368 -1.6384  2.9016  2.9969
 6582TIP3   OH241304   4.618   5.215   7.584 -0.2328 -0.2954  0.2334
 6582TIP3    H141305   4.638   5.304   7.614  0.3415 -0.2028 -0.3919
 6582TIP3    H241306   4.703   5.179   7.557 -0.8818  0.4537 -3.4477
 6583TIP3   OH241307   2.005   3.329   0.341 -0.6065 -0.1153 -0.1776
 6583TIP3    H141308   2.016   3.237   0.365 -2.7102 -0.5203 -0.5149
 6583TIP3    H241309   2.005   3.375   0.425 -0.4249 -0.5516  0.0668
 6584TIP3   OH241310   6.778   2.840   6.025 -0.3339 -0.1524  0.1253
 6584TIP3    H141311   6.775   2.924   5.980  3.2264  0.3255  0.5031
 6584TIP3    H241312   6.735   2.857   6.109 -0.6185  0.9920 -0.2261
 6585TIP3   OH241313   2.593   7.122   0.158 -0.1183  0.0155 -0.5270
 6585TIP3    H141314   2.618   7.099   0.248 -0.6800 -2.1809 -0.8574
 6585TIP3    H241315   2.676   7.120   0.109  0.4241  2.6917  0.1406
 6586TIP3   OH241316   2.987   6.110   1.376  0.2981 -0.2256 -1.0505
 6586TIP3    H141317   2.957   6.080   1.290 -1.8113  0.3238 -0.5724
 6586TIP3    H241318   3.012   6.202   1.361 -1.9672  0.5068 -0.7644
 6587TIP3   OH241319   5.704   1.574   0.150  0.2881 -0.3514 -0.1615
 6587TIP3    H141320   5.748   1.643   0.100  2.3812 -0.9520  0.7825
 6587TIP3    H241321   5.649   1.529   0.085  0.4657  0.8917 -1.2143
 6588TIP3   OH241322   1.198   0.360   7.680  0.0795  0.1035  0.0164
 6588TIP3    H141323   1.156   0.441   7.710  0.2113  0.2420 -0.1689
 6588TIP3    H241324   1.226   0.380   7.590 -1.0452 -0.5691 -0.4992
 6589TIP3   OH241325   5.997   3.682   1.917 -0.0326  0.0143 -0.3687
 6589TIP3    H141326   6.041   3.670   1.832  0.6301  0.4953 -0.0974
 6589TIP3    H241327   5.922   3.738   1.897 -0.4640 -0.7025 -0.8113
 6590TIP3   OH241328   6.910   0.619   5.994  0.2766 -0.2359  0.1601
 6590TIP3    H141329   6.989   0.671   5.979  0.9947 -1.1846  0.5868
 6590TIP3    H241330   6.938   0.547   6.050 -0.3564 -1.9572 -1.6163
 6591TIP3   OH241331   1.109   4.075   7.208 -0.2368  0.4057 -0.1108
 6591TIP3    H141332   1.019   4.079   7.179  0.2816  2.8393 -1.6134
 6591TIP3    H241333   1.105   4.028   7.292 -2.9769  1.1901  0.2865
 6592TIP3   OH241334   1.899   1.980   6.847 -0.5230  0.3020 -0.4042
 6592TIP3    H141335   1.976   1.993   6.902 -0.8716  1.2196 -0.1102
 6592TIP3    H241336   1.825   2.004   6.903 -1.0023 -0.3094 -0.7654
 6593TIP3   OH241337   2.947   3.437   7.189  0.3432 -0.1912  0.2914
 6593TIP3    H141338   2.856   3.419   7.212 -0.3403  1.9845 -0.4850
 6593TIP3    H241339   2.946   3.448   7.094  1.5375 -0.6605  0.2060
 6594TIP3   OH241340   4.866   0.973   6.111 -0.3114 -0.7676 -0.2706
 6594TIP3    H141341   4.813   1.018   6.045 -0.4419  0.6840  0.7824
 6594TIP3    H241342   4.956   0.998   6.091 -0.4167  0.3706  0.5672
 6595TIP3   OH241343   3.536   7.085   6.632 -1.0760 -0.3879  0.4222
 6595TIP3    H141344   3.596   7.015   6.658  0.6096 -0.0920 -2.2230
 6595TIP3    H241345   3.558   7.158   6.689  1.5587 -0.1318 -0.7652
 6596TIP3   OH241346   6.252   4.060   6.825 -0.6333 -0.3756 -0.3437
 6596TIP3    H141347   6.346   4.049   6.810 -0.8150 -1.0411 -1.0273
 6596TIP3    H241348   6.237   4.153   6.810 -0.6124 -0.7805 -3.4394
 6597TIP3   OH241349   1.050   0.550   7.248  0.5489  0.1543  0.2824
 6597TIP3    H141350   1.101   0.475   7.216 -0.1476 -0.2452  0.0828
 6597TIP3    H241351   1.007   0.584   7.169 -1.7311 -1.2520  0.8469
 6598TIP3   OH241352   6.549   3.685   6.628  0.0096  0.1564 -0.0295
 6598TIP3    H141353   6.626   3.693   6.571 -0.7249  3.6380 -0.7468
 6598TIP3    H241354   6.583   3.701   6.716  0.2923  0.6329 -0.2208
 6599TIP3   OH241355   3.273   6.288   7.133  0.5621  0.8402 -0.0045
 6599TIP3    H141356   3.306   6.261   7.047  0.3914 -0.3893  0.2906
 6599TIP3    H241357   3.351   6.316   7.181  0.9191 -0.1135  0.0035
 6600TIP3   OH241358   1.330   5.045   1.770  0.2166  0.1521  0.4486
 6600TIP3    H141359   1.424   5.058   1.767  0.4407 -1.2968  0.1721
 6600TIP3    H241360   1.312   5.020   1.861  0.3884 -1.2952  0.1105
 6601TIP3   OH241361   1.829   1.367   0.287 -0.4858 -0.2849 -0.7583
 6601TIP3    H141362   1.783   1.293   0.248 -0.1620 -1.1057  0.3732
 6601TIP3    H241363   1.765   1.407   0.346 -0.8057  0.6391 -1.6941
 6602TIP3   OH241364   0.528   1.457   7.166 -0.1151 -0.2436  0.0009
 6602TIP3    H141365   0.581   1.525   7.124 -1.2134  0.5954 -0.0918
 6602TIP3    H241366   0.569   1.374   7.140  0.8113  0.3569 -0.4947
 6603TIP3   OH241367   3.134   5.136   6.757 -0.1122  0.2178  0.1869
 6603TIP3    H141368   3.214   5.183   6.730  0.6533 -1.5035 -0.6526
 6603TIP3    H241369   3.074   5.206   6.784  1.2054  1.6435 -0.4029
 6604TIP3   OH241370   1.420   5.379   0.037  0.2327 -0.6457 -0.2525
 6604TIP3    H141371   1.511   5.407   0.042 -0.4373  1.5339  0.6824
 6604TIP3    H241372   1.377   5.443  -0.021 -0.2095 -3.2722 -3.1179
 6605TIP3   OH241373   3.008   0.648   6.738 -0.3002  0.0311  0.0816
 6605TIP3    H141374   2.979   0.739   6.751  2.1870  1.0002 -0.6588
 6605TIP3    H241375   2.939   0.596   6.779 -1.2004  2.2795  1.6632
 6606TIP3   OH241376   3.264   1.832   7.181  0.1588 -0.0986  0.0952
 6606TIP3    H141377   3.357   1.839   7.159  0.2880 -0.3351  0.5711
 6606TIP3    H241378   3.260   1.849   7.275 -0.2796 -0.1075  0.0788
 6607TIP3   OH241379   5.496   6.751   0.452 -0.2713  0.0953 -0.3316
 6607TIP3    H141380   5.441   6.829   0.442  0.6895  1.2133  2.1372
 6607TIP3    H241381   5.583   6.781   0.426  0.0107 -0.2778  0.1681
 6608TIP3   OH241382   3.259   0.682   1.485 -0.7398  0.2869  0.0819
 6608TIP3    H141383   3.198   0.668   1.412  0.3877  1.5161 -1.1581
 6608TIP3    H241384   3.215   0.746   1.541 -0.5878  1.2411 -0.8526
 6609TIP3   OH241385   2.822   7.057   7.242 -0.7672  0.1152  1.1676
 6609TIP3    H141386   2.761   7.008   7.297 -1.1324 -0.3537  0.3598
 6609TIP3    H241387   2.827   7.007   7.160  2.1162 -0.9100  1.8251
 6610TIP3   OH241388   0.961   0.324   6.850 -0.1172  0.3044 -0.4688
 6610TIP3    H141389   0.918   0.240   6.831 -0.4298  0.6175 -1.1602
 6610TIP3    H241390   0.978   0.362   6.764 -1.3902  1.6708 -0.1643
 6611TIP3   OH241391   6.280   7.074   1.546 -0.2327 -0.2097  0.5218
 6611TIP3    H141392   6.374   7.093   1.557 -0.4914  3.5447 -1.7384
 6611TIP3    H241393   6.275   7.022   1.466 -0.0602 -0.3883  0.6277
 6612TIP3   OH241394   5.077   1.640   0.870  0.3021  0.4141  0.7125
 6612TIP3    H141395   5.152   1.693   0.843  1.1212 -0.1602  1.8066
 6612TIP3    H241396   5.101   1.606   0.956 -0.6268 -0.9327  0.4716
 6613TIP3   OH241397   0.635   2.522   0.252  0.3503  0.1375  0.0879
 6613TIP3    H141398   0.649   2.428   0.266 -0.5629  0.3602  3.2332
 6613TIP3    H241399   0.582   2.527   0.173 -0.4389 -2.0912  0.4107
 6614TIP3   OH241400   3.158   4.353   7.846  0.3432 -0.5213 -0.3814
 6614TIP3    H141401   3.142   4.410   7.771  0.2475  0.3446  0.2775
 6614TIP3    H241402   3.095   4.281   7.836 -0.8657  0.4826 -0.2313
 6615TIP3   OH241403   5.420   2.010   0.201  0.0277 -0.2603  0.4535
 6615TIP3    H141404   5.487   1.945   0.225  1.2713  1.1599  0.9957
 6615TIP3    H241405   5.399   2.054   0.283  0.8657  1.5068 -0.2306
 6616TIP3   OH241406   0.264   4.854   0.751 -0.1387 -0.5002 -0.0483
 6616TIP3    H141407   0.339   4.861   0.692 -0.3920 -1.7473 -0.5587
 6616TIP3    H241408   0.290   4.789   0.816 -0.7262 -0.8435 -0.1518
 6617TIP3   OH241409   1.621   5.880   1.797 -0.1342  0.3326 -0.3303
 6617TIP3    H141410   1.636   5.909   1.707 -0.5145  2.4073  0.2093
 6617TIP3    H241411   1.689   5.923   1.848 -0.8641  0.4635  0.5685
 6618TIP3   OH241412   6.462   2.161   0.845 -0.0600 -0.9109 -0.4692
 6618TIP3    H141413   6.474   2.076   0.803  2.7596 -0.5260 -0.6072
 6618TIP3    H241414   6.519   2.158   0.922 -1.7236  0.0317  0.8709
 6619TIP3   OH241415   2.264   3.206   0.622 -0.1470 -0.3106  0.7664
 6619TIP3    H141416   2.313   3.130   0.592 -0.4330 -0.7919  1.4933
 6619TIP3    H241417   2.327   3.278   0.619 -0.0133 -0.4597 -0.4078
 6620TIP3   OH241418   5.098   1.103   1.454  0.0373 -0.2299  0.5087
 6620TIP3    H141419   5.054   1.183   1.483  1.5516  0.4930  0.9454
 6620TIP3    H241420   5.140   1.069   1.533  3.4160  1.2305 -0.4848
 6621TIP3   OH241421   2.824   5.889   1.455  0.1272  0.8980  0.5219
 6621TIP3    H141422   2.743   5.936   1.476  0.3363  2.0126 -0.9987
 6621TIP3    H241423   2.881   5.955   1.416  1.9805  0.2438  1.9464
 6622TIP3   OH241424   5.340   4.763   6.926 -0.0055  0.1568  0.1035
 6622TIP3    H141425   5.374   4.800   7.008  0.1887 -2.1458  1.1190
 6622TIP3    H241426   5.245   4.762   6.938  0.0793 -1.3826  0.9053
 6623TIP3   OH241427   4.554   1.059   0.359  0.2038 -0.5285  0.2806
 6623TIP3    H141428   4.471   1.095   0.329  0.8691  0.6760 -0.1765
 6623TIP3    H241429   4.543   0.964   0.352 -2.0668 -0.5623  2.7460
 6624TIP3   OH241430   4.807   0.970   0.030  0.3045  0.4784 -0.3060
 6624TIP3    H141431   4.856   1.050   0.009  1.1770  0.4548  1.4538
 6624TIP3    H241432   4.719   1.000   0.052 -0.0991  0.6732 -2.0629
 6625TIP3   OH241433   6.974   0.453   7.666  0.6159 -0.1359 -0.0857
 6625TIP3    H141434   6.932   0.402   7.735 -1.0326  1.6294  0.3194
 6625TIP3    H241435   6.920   0.437   7.589  0.4488  0.4993 -0.1048
 6626TIP3   OH241436   0.271   0.591   1.081 -0.1595 -0.0599  0.0056
 6626TIP3    H141437   0.341   0.613   1.019  0.3682 -1.4567  0.0865
 6626TIP3    H241438   0.304   0.620   1.166 -0.8120  1.7009 -0.3040
 6627TIP3   OH241439   0.803   4.031   6.753 -0.4095 -0.4018 -0.4260
 6627TIP3    H141440   0.711   4.019   6.727 -0.2300 -2.7305 -0.2507
 6627TIP3    H241441   0.840   3.943   6.748  1.0888 -0.0230  2.2700
 6628TIP3   OH241442   3.338   2.594   1.396  0.4768  0.0352 -0.5226
 6628TIP3    H141443   3.277   2.521   1.384  0.1930  0.3446 -0.9582
 6628TIP3    H241444   3.425   2.552   1.392  0.2973 -0.6111  1.4708
 6629TIP3   OH241445   5.345   0.091   1.397  0.1651 -0.0425 -0.2944
 6629TIP3    H141446   5.310   0.003   1.412  1.4843 -0.7493 -1.2663
 6629TIP3    H241447   5.387   0.114   1.480  0.7924 -0.7912 -0.3977
 6630TIP3   OH241448   2.512   5.273   1.978  0.6570 -0.2247 -0.0230
 6630TIP3    H141449   2.416   5.268   1.973  0.5398  1.2820  0.2046
 6630TIP3    H241450   2.542   5.199   1.926 -0.6217 -1.3344  0.7121
 6631TIP3   OH241451   4.559   6.360   0.751 -0.0165 -0.6294 -0.3077
 6631TIP3    H141452   4.584   6.379   0.660  1.1196 -0.3916  0.0412
 6631TIP3    H241453   4.536   6.445   0.788  3.9243  0.1270  0.9063
 6632TIP3   OH241454   3.588   2.495   6.569 -0.0193 -0.3349 -1.2046
 6632TIP3    H141455   3.616   2.461   6.654  0.4659  1.4897 -0.5847
 6632TIP3    H241456   3.568   2.417   6.517  1.3058 -1.5425  0.0213
 6633TIP3   OH241457   1.073   1.389   6.615  0.2513  0.6287 -0.0379
 6633TIP3    H141458   0.990   1.402   6.662 -0.3732 -0.0768 -0.9055
 6633TIP3    H241459   1.098   1.477   6.587  0.2815  0.9711  1.0120
 6634TIP3   OH241460   6.727   3.531   0.279 -0.4159 -0.0826  0.0446
 6634TIP3    H141461   6.811   3.484   0.279 -0.8797 -0.9978 -1.8557
 6634TIP3    H241462   6.701   3.532   0.371  1.1104 -0.8288  0.5277
 6635TIP3   OH241463   5.428   6.524   0.769  0.5529 -0.2580  0.2186
 6635TIP3    H141464   5.448   6.433   0.792 -0.3301 -0.5219 -0.0173
 6635TIP3    H241465   5.361   6.517   0.701 -1.3270  0.5859  1.9072
 6636TIP3   OH241466   0.490   4.601   1.579 -0.0567  0.0439  0.3577
 6636TIP3    H141467   0.472   4.599   1.673 -0.6070  0.2155  0.2593
 6636TIP3    H241468   0.425   4.543   1.541  0.2787 -0.1611  0.0967
 6637TIP3   OH241469   6.889   5.514   6.841 -0.0278  0.0975 -0.4910
 6637TIP3    H141470   6.893   5.595   6.790  1.8661  1.3847  1.5408
 6637TIP3    H241471   6.820   5.530   6.905 -0.6232 -0.4953 -0.9674
 6638TIP3   OH241472   0.060   5.697   0.204  0.3896  0.3465  0.0635
 6638TIP3    H141473  -0.026   5.665   0.231  0.8012  0.0362  1.0906
 6638TIP3    H241474   0.061   5.688   0.109 -1.3581  2.0462 -0.1580
 6639TIP3   OH241475   4.706   4.698   6.353 -0.3579  0.0665  0.4368
 6639TIP3    H141476   4.716   4.654   6.269 -2.3563 -0.1447  0.2710
 6639TIP3    H241477   4.782   4.756   6.359  0.4893 -0.8556 -0.9034
 6640TIP3   OH241478   2.760   2.943   7.465  0.2269 -0.7038  0.2592
 6640TIP3    H141479   2.758   2.984   7.378  1.7662 -0.0585  0.4973
 6640TIP3    H241480   2.767   3.017   7.526  1.9585 -1.2390  0.7626
 6641TIP3   OH241481   1.241   4.139   0.048 -0.2060  0.1225  0.4012
 6641TIP3    H141482   1.147   4.157   0.047 -0.2984 -0.3162  0.8870
 6641TIP3    H241483   1.257   4.096  -0.036 -0.5184 -0.1889  0.4973
 6642TIP3   OH241484   6.183   1.055   0.423  0.2076  0.1352 -0.5565
 6642TIP3    H141485   6.132   1.094   0.352  0.2350  1.7519  0.2600
 6642TIP3    H241486   6.249   1.001   0.379 -0.4915  0.1872 -1.7058
 6643TIP3   OH241487   1.108   5.493   6.268 -0.2091 -0.9001 -0.2829
 6643TIP3    H141488   1.134   5.502   6.176 -0.4136 -0.4186 -0.2929
 6643TIP3    H241489   1.093   5.399   6.279  0.3109 -1.0276 -0.6071
 6644TIP3   OH241490   6.762   7.022   6.811  0.8510  0.0611  0.0790
 6644TIP3    H141491   6.730   7.111   6.823 -0.9876 -0.6085  0.4086
 6644TIP3    H241492   6.856   7.033   6.796  0.5167  2.1222 -0.9346
 6645TIP3   OH241493   5.850   3.605   0.998 -0.1940  0.2352  0.3323
 6645TIP3    H141494   5.929   3.658   0.989 -0.1033 -0.1226 -1.6269
 6645TIP3    H241495   5.781   3.656   0.955 -0.5511 -0.3272  0.2153
 6646TIP3   OH241496   2.390   5.462   1.505  0.1802 -0.5418  0.3370
 6646TIP3    H141497   2.469   5.505   1.472 -0.8906 -0.0587 -1.7230
 6646TIP3    H241498   2.345   5.530   1.555  0.0502 -0.1822 -0.2584
 6647TIP3   OH241499   1.321   1.137   1.433  0.1402 -0.2213  0.3046
 6647TIP3    H141500   1.416   1.120   1.431  0.3611  0.9603 -1.0179
 6647TIP3    H241501   1.281   1.052   1.415  0.9921 -0.5594 -0.0738
 6648TIP3   OH241502   0.476   4.580   7.832  0.0530  0.1609  0.5592
 6648TIP3    H141503   0.389   4.542   7.844  1.0352 -1.4167  4.1786
 6648TIP3    H241504   0.527   4.511   7.789  0.4068 -0.5355  2.0098
 6649TIP3   OH241505   6.705   6.879   1.186 -0.0018 -0.4398  0.4551
 6649TIP3    H141506   6.789   6.842   1.211 -0.0996 -1.7287 -0.9745
 6649TIP3    H241507   6.697   6.860   1.092 -1.5489  0.3282  0.3965
 6650TIP3   OH241508   6.762   4.273   1.224  0.3707  0.1165 -0.2212
 6650TIP3    H141509   6.837   4.243   1.276 -0.7900 -1.7332  0.5096
 6650TIP3    H241510   6.705   4.196   1.219 -0.5142  0.8563 -2.5307
 6651TIP3   OH241511   0.893   4.565   7.963 -0.7998  0.1673 -0.5927
 6651TIP3    H141512   0.904   4.647   8.011 -0.6737 -0.3878  0.3553
 6651TIP3    H241513   0.977   4.550   7.920 -0.4109 -0.0865  0.2413
 6652TIP3   OH241514   3.442   3.760   6.120  0.3333  0.3562 -0.3155
 6652TIP3    H141515   3.355   3.796   6.136  0.6977  0.1514  2.6302
 6652TIP3    H241516   3.497   3.836   6.101 -0.5166  0.4335 -2.8382
 6653TIP3   OH241517   1.689   6.811   6.547 -0.0741  0.5164 -0.6500
 6653TIP3    H141518   1.735   6.893   6.564  2.2153 -0.8215 -0.0042
 6653TIP3    H241519   1.715   6.787   6.459 -0.8951  0.5556 -0.9105
 6654TIP3   OH241520   1.347   3.034   6.353  0.2447  0.3027  0.2843
 6654TIP3    H141521   1.348   3.012   6.446  0.6200 -0.1056  0.1838
 6654TIP3    H241522   1.297   3.116   6.349 -0.4717 -0.0965  0.7505
 6655TIP3   OH241523   2.672   5.216   2.247 -0.0047 -0.8704 -0.2200
 6655TIP3    H141524   2.752   5.170   2.220 -0.4015 -1.2585 -0.7507
 6655TIP3    H241525   2.608   5.194   2.180 -0.4380 -0.1948 -0.0377
 6656TIP3   OH241526   6.863   4.571   1.331  0.8667  0.0297 -0.5862
 6656TIP3    H141527   6.876   4.661   1.361 -0.2021 -0.0142  0.0922
 6656TIP3    H241528   6.826   4.580   1.243 -1.2033  0.3550  0.2619
 6657TIP3   OH241529   3.754   0.224   1.311  1.0533  0.0566  0.3401
 6657TIP3    H141530   3.757   0.246   1.405  0.6263  0.7281  0.2048
 6657TIP3    H241531   3.676   0.269   1.279  0.9328 -0.5639 -0.2479
 6658TIP3   OH241532   6.425   6.451   1.582  0.2047  0.6092  0.2103
 6658TIP3    H141533   6.409   6.543   1.561 -0.8513  0.0719 -1.5456
 6658TIP3    H241534   6.346   6.423   1.627 -0.3565  0.0722 -1.0644
 6659TIP3   OH241535   6.175   2.888   0.160  0.4818  0.6693 -0.0049
 6659TIP3    H141536   6.116   2.845   0.099 -0.5295  1.7305  0.1964
 6659TIP3    H241537   6.246   2.922   0.106 -0.0328  0.9710 -0.4959
 6660TIP3   OH241538   4.510   3.493   1.336  0.1146 -0.0664  0.4785
 6660TIP3    H141539   4.542   3.464   1.422  1.0645 -2.3067 -0.5512
 6660TIP3    H241540   4.420   3.460   1.332  0.9338 -2.3842 -0.3704
 6661TIP3   OH241541   3.183   2.078   0.943  0.0190 -0.0669  0.0324
 6661TIP3    H141542   3.168   2.088   1.037  0.2864 -1.3742  0.2290
 6661TIP3    H241543   3.271   2.042   0.937 -0.0003  0.0114 -0.7163
 6662TIP3   OH241544   4.533   1.927   0.699  0.3996 -0.3561  0.5282
 6662TIP3    H141545   4.443   1.957   0.714  0.1881 -0.2735 -0.7938
 6662TIP3    H241546   4.545   1.856   0.762  0.2192  1.1449  2.3156
 6663TIP3   OH241547   5.588   4.022   1.354  0.2449 -0.0790  0.0579
 6663TIP3    H141548   5.671   4.048   1.394  2.0143 -0.8712 -2.8094
 6663TIP3    H241549   5.547   4.105   1.328  1.1827  0.2577 -0.3788
 6664TIP3   OH241550   4.955   5.168   7.527  0.0507  0.1136 -0.0784
 6664TIP3    H141551   4.966   5.230   7.454 -2.3935  0.3668 -0.3159
 6664TIP3    H241552   4.948   5.224   7.604  1.4024 -0.0951  0.2183
 6665TIP3   OH241553   6.410   2.394   7.402  0.6584  0.4593 -0.3314
 6665TIP3    H141554   6.415   2.335   7.327  1.2058 -0.0134  0.0686
 6665TIP3    H241555   6.485   2.369   7.457  0.0682  0.5625  0.5385
 6666TIP3   OH241556   2.282   7.006   0.080 -0.1891 -0.4824  0.4332
 6666TIP3    H141557   2.291   7.016   0.175 -0.5132 -0.9217  0.5132
 6666TIP3    H241558   2.307   6.915   0.063 -0.6313 -0.5599  0.1665
 6667TIP3   OH241559   5.093   5.814   1.011 -0.0579 -0.1730 -0.1729
 6667TIP3    H141560   5.060   5.883   0.954  0.4188  0.4117  0.2409
 6667TIP3    H241561   5.023   5.748   1.012  0.1694 -0.4646 -1.8625
 6668TIP3   OH241562   4.056   2.162   6.460 -0.5911  0.3257 -0.3685
 6668TIP3    H141563   4.062   2.132   6.551  1.7295 -2.1778 -1.1992
 6668TIP3    H241564   4.135   2.215   6.447 -0.5025  0.0222 -1.1123
 6669TIP3   OH241565   4.629   4.959   6.632 -0.9136  0.4253  0.5812
 6669TIP3    H141566   4.607   4.871   6.660 -2.3634 -0.0316 -1.6736
 6669TIP3    H241567   4.693   4.947   6.562  0.6008  1.3347  1.7579
 6670TIP3   OH241568   5.360   5.744   7.279  0.2598 -0.5407  0.1225
 6670TIP3    H141569   5.407   5.695   7.211  1.3391  0.7410 -0.0957
 6670TIP3    H241570   5.271   5.751   7.245  0.8125  0.2192 -1.2867
 6671TIP3   OH241571   4.407   0.189   7.928 -0.6504  0.2314 -0.8006
 6671TIP3    H141572   4.502   0.180   7.918 -0.5095  1.5546 -0.7973
 6671TIP3    H241573   4.376   0.211   7.840 -1.1165 -1.2974 -1.0443
 6672TIP3   OH241574   5.217   3.661   1.973  0.0358  0.5607 -0.5927
 6672TIP3    H141575   5.275   3.587   1.959 -1.6996 -1.2907  1.2643
 6672TIP3    H241576   5.275   3.737   1.983  1.9398 -0.7671 -1.1060
 6673TIP3   OH241577   6.123   1.593   1.181 -0.4548 -0.0364 -0.8304
 6673TIP3    H141578   6.031   1.613   1.197 -1.7277 -4.3448 -1.6590
 6673TIP3    H241579   6.127   1.570   1.088  1.1071 -1.4966 -0.4531
 6674TIP3   OH241580   1.135   6.831   1.165  0.4288 -0.1151 -0.0191
 6674TIP3    H141581   1.097   6.797   1.084  0.7834  3.1164 -1.7560
 6674TIP3    H241582   1.071   6.811   1.233 -0.8202 -1.2160 -1.4629
 6675TIP3   OH241583   0.562   3.025   1.137  0.4549  0.0948 -0.1731
 6675TIP3    H141584   0.525   3.113   1.129  1.4121  0.4203 -1.1994
 6675TIP3    H241585   0.626   3.033   1.208 -1.0085 -0.3616  1.2943
 6676TIP3   OH241586   5.644   5.500   0.464  0.4804 -0.4015  0.0894
 6676TIP3    H141587   5.720   5.459   0.421  0.4194  0.4956 -0.9055
 6676TIP3    H241588   5.592   5.535   0.392 -2.8463 -4.1017  0.3711
 6677TIP3   OH241589   6.432   0.455   5.973  0.7451 -0.5393  0.3527
 6677TIP3    H141590   6.486   0.383   5.940  0.8336 -0.5469  0.5157
 6677TIP3    H241591   6.459   0.531   5.920  1.5103 -0.3535  0.9914
 6678TIP3   OH241592   2.597   6.364   7.831  0.2376  0.0089 -0.0375
 6678TIP3    H141593   2.578   6.278   7.793  0.4705 -0.2847  0.5057
 6678TIP3    H241594   2.664   6.400   7.773  0.8136 -0.5671  0.2540
 6679TIP3   OH241595   2.067   6.816   7.203 -0.5417  0.4655 -0.5670
 6679TIP3    H141596   2.062   6.826   7.299 -0.5286 -1.9118 -0.2719
 6679TIP3    H241597   2.003   6.749   7.182 -1.1641  1.5552 -2.3979
 6680TIP3   OH241598   2.061   0.725   1.088  0.0695 -0.3659 -0.3236
 6680TIP3    H141599   2.081   0.743   0.997  2.7548  1.9264  0.5663
 6680TIP3    H241600   2.005   0.797   1.115  1.9501  0.8618  0.5493
 6681TIP3   OH241601   0.996   5.541   1.380  0.0210  0.3472  0.1670
 6681TIP3    H141602   1.029   5.623   1.419  0.8666  0.2572 -0.3426
 6681TIP3    H241603   0.913   5.566   1.339 -0.2085  0.7354  0.8444
 6682TIP3   OH241604   3.485   4.404   7.663  0.4195 -0.2064  0.6210
 6682TIP3    H141605   3.434   4.372   7.589 -2.0742 -0.6113  2.4032
 6682TIP3    H241606   3.575   4.409   7.629 -0.0176 -3.4751 -1.4475
 6683TIP3   OH241607   3.367   6.026   6.453  0.2474  1.0472  0.0588
 6683TIP3    H141608   3.285   5.977   6.456  0.7365 -0.0630 -2.2955
 6683TIP3    H241609   3.357   6.094   6.520 -2.5436  0.9389 -0.1369
 6684TIP3   OH241610   5.064   1.798   0.255  0.2150  0.0913  0.5888
 6684TIP3    H141611   5.072   1.890   0.232  0.8587  0.0405  0.5869
 6684TIP3    H241612   5.052   1.798   0.350  0.0609  0.1802  0.5703
 6685TIP3   OH241613   1.458   1.456   1.210 -0.2161  0.9177  0.7302
 6685TIP3    H141614   1.494   1.495   1.130 -0.7839  0.7879  0.4105
 6685TIP3    H241615   1.370   1.428   1.186  0.0936 -0.3482  1.0219
 6686TIP3   OH241616   4.290   0.800   0.086  0.1750  0.1901 -0.0689
 6686TIP3    H141617   4.215   0.813   0.028  0.1589  2.2646  0.3344
 6686TIP3    H241618   4.254   0.753   0.162  0.0795 -2.0016 -1.3784
 6687TIP3   OH241619   2.909   3.759   0.616  0.0111 -0.0040 -0.2483
 6687TIP3    H141620   2.842   3.824   0.592 -0.5819 -0.3844  0.3322
 6687TIP3    H241621   2.992   3.804   0.600 -0.2957 -0.2679 -3.0591
 6688TIP3   OH241622   0.118   0.585   6.997 -0.4373  0.0759 -0.7656
 6688TIP3    H141623   0.109   0.534   6.917  0.9013 -1.9042  0.2587
 6688TIP3    H241624   0.197   0.551   7.039 -0.3467  1.9656  0.7697
 6689TIP3   OH241625   6.604   7.163   0.920  0.8820 -0.1225 -0.0915
 6689TIP3    H141626   6.640   7.075   0.932 -3.1650 -1.9283  0.4132
 6689TIP3    H241627   6.560   7.183   1.003 -0.0314  1.4745 -0.9009
 6690TIP3   OH241628   2.563   1.714   6.461  0.5346 -0.0988  0.2269
 6690TIP3    H141629   2.554   1.722   6.556  0.6990 -0.4396  0.2736
 6690TIP3    H241630   2.623   1.640   6.449  0.0835 -0.4042 -0.1543
 6691TIP3   OH241631   1.567   0.800   0.238 -0.1596  0.4622 -0.0249
 6691TIP3    H141632   1.557   0.895   0.247 -0.1134  0.5736 -1.0545
 6691TIP3    H241633   1.626   0.789   0.163  0.7770 -0.3656  0.8062
 6692TIP3   OH241634   5.271   4.500   0.067 -0.4098  0.4512  0.0127
 6692TIP3    H141635   5.198   4.469   0.122  0.3719 -0.9462  0.3266
 6692TIP3    H241636   5.247   4.474  -0.022 -0.2662 -0.0742  0.1256
 6693TIP3   OH241637   0.536   6.532   1.310  0.0470  0.2316 -0.6363
 6693TIP3    H141638   0.450   6.498   1.336 -0.0856 -0.0252 -1.4055
 6693TIP3    H241639   0.587   6.532   1.392 -1.0692  1.6190  0.1098
 6694TIP3   OH241640   5.857   0.445   1.264 -0.2239 -0.1049 -0.1606
 6694TIP3    H141641   5.807   0.469   1.342 -0.2555 -0.1151 -0.1778
 6694TIP3    H241642   5.793   0.408   1.205 -0.4477  1.0954 -0.7075
 6695TIP3   OH241643   2.494   6.001   7.177  0.2440  0.3916  0.3076
 6695TIP3    H141644   2.414   6.021   7.226 -0.2296 -0.1105 -0.2540
 6695TIP3    H241645   2.464   5.976   7.090  1.0941  1.6446 -0.3822
 6696TIP3   OH241646   0.650   2.580   7.244  0.0991  0.4554  0.0082
 6696TIP3    H141647   0.623   2.489   7.253 -0.4133  0.5516 -0.5014
 6696TIP3    H241648   0.601   2.613   7.168  0.4988  1.0706  0.0042
 6697TIP3   OH241649   5.272   0.021   7.780 -0.0521 -0.4044 -0.8376
 6697TIP3    H141650   5.325  -0.052   7.810 -0.5872 -1.1132 -1.5494
 6697TIP3    H241651   5.191   0.015   7.832  0.0760 -0.0673 -0.6020
 6698TIP3   OH241652   0.517   7.083   0.829  0.3179  0.5102 -0.3250
 6698TIP3    H141653   0.453   7.144   0.791 -3.0942 -2.6608 -0.1696
 6698TIP3    H241654   0.578   7.066   0.757 -0.5009  1.7102 -1.3588
 6699TIP3   OH241655   0.813   3.157   0.094  0.2098  0.1262  0.3676
 6699TIP3    H141656   0.728   3.152   0.050 -0.5235  2.3320  1.3780
 6699TIP3    H241657   0.800   3.109   0.176  0.1095  0.0079  0.2831
 6700TIP3   OH241658   2.018   5.202   0.063  0.2554  0.1322  0.2862
 6700TIP3    H141659   2.063   5.275   0.105  1.3617  0.4821 -1.4151
 6700TIP3    H241660   2.088   5.142   0.038 -0.4097 -0.3131 -0.5611
 6701TIP3   OH241661   5.051   6.569   0.136 -0.1597 -0.3797  0.6095
 6701TIP3    H141662   5.015   6.482   0.121 -2.2205  0.4562  0.3164
 6701TIP3    H241663   5.140   6.554   0.167  0.8347 -2.5068 -2.7447
 6702TIP3   OH241664   6.636   2.960   7.565 -0.4009  0.3348  0.7629
 6702TIP3    H141665   6.721   2.983   7.528  0.1336  0.2267  1.8681
 6702TIP3    H241666   6.654   2.949   7.659 -1.2747 -1.3934  0.7698
 6703TIP3   OH241667   2.623   2.957   1.197  0.4469  0.0135 -0.0973
 6703TIP3    H141668   2.629   3.038   1.146 -0.7020  1.1601  1.4735
 6703TIP3    H241669   2.634   2.887   1.133  2.5092  1.3879 -1.3645
 6704TIP3   OH241670   5.923   5.887   7.656 -0.1974  0.0537  0.0751
 6704TIP3    H141671   5.962   5.951   7.598 -0.9539 -0.0688 -0.5847
 6704TIP3    H241672   5.966   5.902   7.741 -0.5066  1.5583 -0.0047
 6705TIP3   OH241673   0.385   6.576   7.142  0.3311  0.0452 -0.8081
 6705TIP3    H141674   0.298   6.559   7.179  0.3370 -0.7671 -1.1320
 6705TIP3    H241675   0.377   6.661   7.099  0.5785  1.4878  1.7894
 6706TIP3   OH241676   0.880   1.527   2.141  0.4443 -0.3622  0.3406
 6706TIP3    H141677   0.806   1.558   2.088  0.1096 -1.0048  0.4149
 6706TIP3    H241678   0.868   1.432   2.144  0.9920 -0.4195  0.7820
 6707TIP3   OH241679   4.211   0.296   7.115 -0.7883  0.4151  0.4422
 6707TIP3    H141680   4.208   0.392   7.112  0.2217  0.4484  0.3945
 6707TIP3    H241681   4.158   0.274   7.192  0.2144  1.0961  1.3577
 6708TIP3   OH241682   2.014   6.533   7.505 -0.6888 -0.4244  0.2140
 6708TIP3    H141683   1.964   6.452   7.506 -1.4245 -0.0102 -0.7876
 6708TIP3    H241684   1.949   6.601   7.489  0.3142 -0.0331 -2.9926
 6709TIP3   OH241685   5.225   3.145   6.984 -0.4852 -0.1040 -0.5684
 6709TIP3    H141686   5.269   3.229   6.996 -0.0888 -0.1149 -1.7751
 6709TIP3    H241687   5.205   3.115   7.073  1.2068  0.2982 -0.0101
 6710TIP3   OH241688   0.761   3.803   8.006 -0.1798 -0.5031 -0.2610
 6710TIP3    H141689   0.812   3.764   8.076 -0.2237 -0.8217 -0.4049
 6710TIP3    H241690   0.816   3.795   7.928  1.3354  2.8220  0.2829
 6711TIP3   OH241691   2.125   2.944   7.792  0.7557 -0.8417  0.3004
 6711TIP3    H141692   2.148   2.980   7.706  0.2551 -2.5319 -0.5961
 6711TIP3    H241693   2.151   3.012   7.854 -2.1179  2.1267 -1.3447
 6712TIP3   OH241694   1.547   1.009   1.380  0.2179  0.2391  0.7850
 6712TIP3    H141695   1.618   1.038   1.322  1.8490 -2.4469  1.2455
 6712TIP3    H241696   1.582   1.024   1.468 -0.3385  0.0973  1.0291
 6713TIP3   OH241697   3.974   6.648   0.312 -0.3136  0.6818  0.2001
 6713TIP3    H141698   4.025   6.569   0.294 -0.3790  0.4824  0.8552
 6713TIP3    H241699   4.038   6.718   0.320 -0.2081  0.5854  0.1957
 6714TIP3   OH241700   0.697   1.629   0.455 -0.6188  0.9724 -0.1010
 6714TIP3    H141701   0.655   1.672   0.530  0.1280 -0.9797  1.5311
 6714TIP3    H241702   0.771   1.685   0.434 -1.4011  2.0639 -0.0496
 6715TIP3   OH241703   3.630   1.193   7.234  0.1546 -0.6264  0.1167
 6715TIP3    H141704   3.694   1.130   7.266 -0.7698 -1.9270 -0.5087
 6715TIP3    H241705   3.556   1.184   7.293  0.2935  0.4648  0.4914
 6716TIP3   OH241706   1.705   5.571   6.862  0.8365  0.4543  0.6674
 6716TIP3    H141707   1.676   5.515   6.935  0.6818 -0.2946  0.0539
 6716TIP3    H241708   1.634   5.564   6.797  1.0318  1.0030  0.3885
 6717TIP3   OH241709   1.067   6.830   6.866  0.0422 -0.4555 -0.3686
 6717TIP3    H141710   0.985   6.878   6.857  0.1146  0.1166  1.5743
 6717TIP3    H241711   1.058   6.755   6.807 -1.1465  0.5332 -1.4911
 6718TIP3   OH241712   5.946   0.094   1.210 -0.5479 -0.1475 -0.0158
 6718TIP3    H141713   5.897   0.013   1.195 -0.0993 -0.3900 -0.1693
 6718TIP3    H241714   6.033   0.077   1.174  0.0702 -0.1912  1.4260
 6719TIP3   OH241715   3.589   1.064   1.171 -0.7111  0.2870  0.8585
 6719TIP3    H141716   3.517   1.004   1.192 -0.2190 -0.8410 -0.4883
 6719TIP3    H241717   3.620   1.096   1.255 -3.2999  1.4714  1.4855
 6720TIP3   OH241718   4.692   4.866   0.629 -0.0477 -0.1467  0.0433
 6720TIP3    H141719   4.672   4.958   0.647  0.6705  0.1704 -0.7134
 6720TIP3    H241720   4.707   4.827   0.716 -2.1982 -0.0319  0.5330
 6721TIP3   OH241721   2.732   0.423   1.956  0.3175 -0.4130 -0.0055
 6721TIP3    H141722   2.754   0.501   2.007  0.4440  0.7336 -1.7100
 6721TIP3    H241723   2.639   0.432   1.937  0.4276 -0.4054 -0.5866
 6722TIP3   OH241724   7.097   5.373   2.031 -0.3454  0.7478 -0.2923
 6722TIP3    H141725   7.079   5.310   2.101 -0.4617  0.8697 -0.2115
 6722TIP3    H241726   7.161   5.433   2.070  0.2078  0.3372 -0.5669
 6723TIP3   OH241727   3.190   4.712   1.516 -0.0775 -0.5000  0.9568
 6723TIP3    H141728   3.136   4.713   1.596  1.4221 -2.7689  2.1182
 6723TIP3    H241729   3.184   4.621   1.485  0.6872 -0.0420 -0.6195
 6724TIP3   OH241730   0.467   4.940   1.732  0.4593  0.7646 -0.1094
 6724TIP3    H141731   0.489   4.997   1.806 -2.4407 -0.7210  2.1460
 6724TIP3    H241732   0.511   4.857   1.752  1.1144  0.8805 -1.0379
 6725TIP3   OH241733   2.070   4.895   0.146  0.2067 -0.7122 -0.1486
 6725TIP3    H141734   2.081   4.855   0.060  0.1802  0.7573 -0.8780
 6725TIP3    H241735   1.986   4.942   0.139 -0.6928 -2.0130  1.3012
 6726TIP3   OH241736   2.038   6.024   0.021 -0.2990 -0.4223 -0.0431
 6726TIP3    H141737   2.062   5.932   0.033 -2.1510 -0.8412  0.8035
 6726TIP3    H241738   2.055   6.065   0.105  0.2407 -0.0400 -0.3308
 6727TIP3   OH241739   6.087   3.605   1.675 -0.5239 -0.1435  0.0403
 6727TIP3    H141740   6.018   3.668   1.651 -0.9404 -0.3256  0.7167
 6727TIP3    H241741   6.145   3.602   1.599  0.1399  1.9159  0.3894
 6728TIP3   OH241742   4.292   4.060   6.833  0.2371 -0.0093  0.8179
 6728TIP3    H141743   4.237   4.039   6.758 -0.5798  0.3497  1.2976
 6728TIP3    H241744   4.255   4.008   6.905  0.3184  0.4872  1.2274
 6729TIP3   OH241745   1.037   6.836   1.912 -0.2640  0.1403  0.2614
 6729TIP3    H141746   1.123   6.861   1.877 -0.2138 -1.9982 -1.3089
 6729TIP3    H241747   1.055   6.812   2.003  1.1925 -1.8617 -0.4827
 6730TIP3   OH241748   3.390   7.103   6.242 -0.3129 -0.4222 -0.0427
 6730TIP3    H141749   3.330   7.081   6.171 -0.6663 -0.2040  0.1830
 6730TIP3    H241750   3.453   7.030   6.244 -0.4246 -0.5311 -0.4388
 6731TIP3   OH241751   5.600   6.126   0.637  0.3928  0.3215  0.1770
 6731TIP3    H141752   5.690   6.098   0.622  2.0044  3.9386  1.8938
 6731TIP3    H241753   5.584   6.193   0.571 -0.1013  1.3999  1.3425
 6732TIP3   OH241754   6.676   0.593   5.886  0.3806  0.4424  0.6640
 6732TIP3    H141755   6.758   0.608   5.934  0.5203  1.2135  0.1862
 6732TIP3    H241756   6.693   0.626   5.798  0.1374 -0.9999  0.0351
 6733TIP3   OH241757   1.506   2.377   5.716 -0.6727 -0.3891  0.2058
 6733TIP3    H141758   1.515   2.335   5.802  0.1832  3.4463  2.2313
 6733TIP3    H241759   1.428   2.432   5.726  0.2386  1.1759 -0.9385
 6734TIP3   OH241760   0.112   2.138   7.529 -0.1476  0.1724 -0.3681
 6734TIP3    H141761   0.042   2.120   7.466  0.9080 -0.5487 -1.3871
 6734TIP3    H241762   0.153   2.052   7.545 -0.0456  0.4303  0.8942
 6735TIP3   OH241763   3.124   5.884   6.474  0.0033 -0.3356  0.0608
 6735TIP3    H141764   3.076   5.960   6.506  1.0130  0.2702  0.1586
 6735TIP3    H241765   3.060   5.835   6.423 -0.1399  1.6587 -1.7860
 6736TIP3   OH241766   6.638   5.768   1.754  0.4578 -0.1843 -0.3178
 6736TIP3    H141767   6.689   5.736   1.829  0.9697  1.2071 -0.0492
 6736TIP3    H241768   6.550   5.732   1.769  0.8511 -0.9437  0.2852
 6737TIP3   OH241769   0.465   3.421   0.662 -0.5744 -0.0926  0.3389
 6737TIP3    H141770   0.448   3.471   0.742 -2.1617  0.8037 -0.5164
 6737TIP3    H241771   0.413   3.341   0.672 -0.8100  0.0406  0.1976
 6738TIP3   OH241772   6.449   7.161   0.437 -0.1651  0.1410  0.3255
 6738TIP3    H141773   6.516   7.228   0.426 -0.2154 -0.1106 -1.9955
 6738TIP3    H241774   6.407   7.182   0.520  1.0782  1.8369  0.5703
 6739TIP3   OH241775   0.160   6.562   5.932  0.4244 -0.6084 -0.0893
 6739TIP3    H141776   0.250   6.538   5.954  0.8081  0.4689 -0.4032
 6739TIP3    H241777   0.143   6.641   5.984 -0.4417 -0.9623  0.1819
 6740TIP3   OH241778   2.855   7.157   0.048  0.4864 -0.4322  0.0195
 6740TIP3    H141779   2.903   7.124   0.125  0.6525 -0.5403 -0.1301
 6740TIP3    H241780   2.916   7.145  -0.025  0.6556  0.4686  0.0046
 6741TIP3   OH241781   0.079   0.644   5.795 -0.0922 -0.5498  0.2586
 6741TIP3    H141782   0.116   0.714   5.849 -0.4478 -0.6846  0.6842
 6741TIP3    H241783   0.029   0.689   5.727 -0.3532 -0.3904  0.5551
 6742TIP3   OH241784   0.189   0.177   6.353 -0.1057 -0.3340 -0.3814
 6742TIP3    H141785   0.243   0.172   6.274 -0.0683 -0.1135 -0.3714
 6742TIP3    H241786   0.113   0.123   6.334 -0.5916  0.5317 -0.9624
 6743TIP3   OH241787   6.448   6.679   0.567  0.1310  0.0340  0.1548
 6743TIP3    H141788   6.405   6.761   0.542  2.0144  0.5693 -1.6148
 6743TIP3    H241789   6.455   6.629   0.486  1.4537 -0.6750  0.6767
 6744TIP3   OH241790   0.409   4.847   5.761  0.2014  0.7244  0.7323
 6744TIP3    H141791   0.372   4.801   5.686  1.3097  1.0533 -0.0366
 6744TIP3    H241792   0.333   4.879   5.810 -0.5414 -0.3219  0.2743
 6745TIP3   OH241793   4.192   4.262   1.869  0.4399 -0.3128 -0.2313
 6745TIP3    H141794   4.184   4.169   1.891 -0.5644 -0.1091  0.3364
 6745TIP3    H241795   4.278   4.269   1.828  2.2169 -0.8726  2.9835
 6746TIP3   OH241796   3.195   4.418   0.952 -0.1647  0.3836 -0.6618
 6746TIP3    H141797   3.105   4.448   0.959 -0.3690 -0.2221 -0.6257
 6746TIP3    H241798   3.187   4.325   0.931  0.4563 -0.1012  1.1347
 6747TIP3   OH241799   0.374   0.442   7.948  0.2004 -0.1100  0.1884
 6747TIP3    H141800   0.432   0.374   7.913 -0.1936  0.4904 -1.8080
 6747TIP3    H241801   0.409   0.523   7.911 -0.5304  0.5352  0.8785
 6748TIP3   OH241802   6.098   7.102   7.592  0.8246 -0.0665 -0.6569
 6748TIP3    H141803   6.124   7.189   7.564  1.3723 -0.5769 -1.8346
 6748TIP3    H241804   6.013   7.087   7.549  1.5654 -0.7707 -1.9332
 6749TIP3   OH241805   2.393   3.836   1.034  0.2269 -1.0699 -0.7284
 6749TIP3    H141806   2.402   3.744   1.056 -0.1729 -0.4404  2.4974
 6749TIP3    H241807   2.477   3.860   0.995  1.0316 -2.3651  0.1436
 6750TIP3   OH241808   6.619   1.779   7.497 -0.1904  0.1508  0.4526
 6750TIP3    H141809   6.629   1.707   7.435 -0.4888 -0.2857  0.9028
 6750TIP3    H241810   6.552   1.836   7.458  0.4879  0.5227 -0.2047
 6751TIP3   OH241811   2.808   1.119   5.804  0.4701  0.2339 -0.3786
 6751TIP3    H141812   2.746   1.172   5.754 -1.9290 -0.7652  1.3560
 6751TIP3    H241813   2.811   1.036   5.758  1.9775  0.8456 -1.4579
 6752TIP3   OH241814   6.616   0.862   1.337  0.2746  0.2295  0.1310
 6752TIP3    H141815   6.693   0.831   1.289  0.0322 -2.2693  1.2032
 6752TIP3    H241816   6.643   0.946   1.373  2.1714 -0.1139 -0.3568
 6753TIP3   OH241817   5.693   2.694   7.911 -0.1478 -0.0359  0.4712
 6753TIP3    H141818   5.711   2.738   7.994 -0.9696  0.1304  0.5729
 6753TIP3    H241819   5.636   2.755   7.864 -1.5960 -1.0990  0.7537
 6754TIP3   OH241820   6.469   4.876   1.074 -0.5243  0.3133  0.1498
 6754TIP3    H141821   6.547   4.932   1.074 -0.7587  0.6693  1.1610
 6754TIP3    H241822   6.421   4.904   1.152 -1.4367 -0.2174 -0.2186
 6755TIP3   OH241823   6.937   5.707   6.392 -0.1102  0.4638 -0.4878
 6755TIP3    H141824   6.879   5.684   6.320 -1.0340  0.5477  0.2031
 6755TIP3    H241825   6.978   5.789   6.365  0.1529  0.0937 -1.2399
 6756TIP3   OH241826   1.908   6.939   5.857  0.6037  0.3805  0.1000
 6756TIP3    H141827   2.001   6.926   5.837  0.5888  0.6636 -0.1638
 6756TIP3    H241828   1.880   7.009   5.797  0.1972  0.2267  0.1060
 6757TIP3   OH241829   0.007   2.325   0.263  0.0250 -0.5765  0.0422
 6757TIP3    H141830  -0.072   2.312   0.315 -1.1629  0.8851 -1.3386
 6757TIP3    H241831   0.034   2.414   0.282  1.0314 -0.8703  0.0502
 6758TIP3   OH241832   5.025   5.887   0.705 -0.5139  0.2707  0.4490
 6758TIP3    H141833   5.067   5.967   0.737 -0.7233  1.0953 -1.2190
 6758TIP3    H241834   4.934   5.894   0.733 -0.0957 -0.4111  2.0837
 6759TIP3   OH241835   3.124   5.458   5.933 -0.0459  0.2432  0.1174
 6759TIP3    H141836   3.062   5.482   6.002  0.0032 -1.2287  0.7006
 6759TIP3    H241837   3.117   5.363   5.926  1.6214  0.1266 -0.3148
 6760TIP3   OH241838   1.106   4.845   6.769  0.3486  0.1204  0.1309
 6760TIP3    H141839   1.015   4.824   6.791  0.1306 -1.7224 -2.1239
 6760TIP3    H241840   1.156   4.773   6.807  1.3437  2.3579  3.5615
 6761TIP3   OH241841   5.605   1.325   1.537 -0.0102 -0.4645 -0.6084
 6761TIP3    H141842   5.665   1.359   1.604 -0.1251  1.4250 -1.4282
 6761TIP3    H241843   5.520   1.318   1.582  0.5566 -2.3449  0.3112
 6762TIP3   OH241844   6.785   2.493   0.383 -0.7681 -0.4535 -0.0014
 6762TIP3    H141845   6.758   2.403   0.403 -0.9971 -0.2506  0.6420
 6762TIP3    H241846   6.879   2.487   0.367 -0.7704 -0.7981  0.1033
 6763TIP3   OH241847   6.903   0.333   6.977  0.6059  0.4267  0.0620
 6763TIP3    H141848   6.811   0.350   6.955  0.6079  0.8458  0.3576
 6763TIP3    H241849   6.902   0.308   7.069  0.6176 -1.1676 -0.3403
 6764TIP3   OH241850   5.103   4.464   7.843 -0.0362 -0.4810 -0.4469
 6764TIP3    H141851   5.016   4.426   7.832  0.8973 -2.6033 -0.8320
 6764TIP3    H241852   5.094   4.554   7.809 -1.8515 -0.9212 -1.2502
 6765TIP3   OH241853   1.102   1.652   6.525 -0.4642  1.2099 -0.4920
 6765TIP3    H141854   1.195   1.671   6.536  0.3070 -2.3377  0.4537
 6765TIP3    H241855   1.095   1.612   6.438 -1.0689  1.2344 -0.4634
 6766TIP3   OH241856   4.414   6.320   6.601  0.2521 -0.1092  0.1940
 6766TIP3    H141857   4.472   6.379   6.552  0.1366 -0.7252 -0.7257
 6766TIP3    H241858   4.391   6.252   6.537 -0.8902 -0.2748  0.7706
 6767TIP3   OH241859   5.618   5.210   7.074  0.0299  0.0458 -0.2133
 6767TIP3    H141860   5.698   5.172   7.036 -0.0635 -0.7789  0.3776
 6767TIP3    H241861   5.616   5.176   7.164  0.1582  1.8193  0.4891
 6768TIP3   OH241862   6.708   4.725   6.525  0.9498 -0.0272 -0.5923
 6768TIP3    H141863   6.795   4.764   6.538  0.1305  0.8466  3.8407
 6768TIP3    H241864   6.718   4.635   6.557  0.3329 -0.0903 -0.5754
 6769TIP3   OH241865   0.609   1.732   1.412 -0.3253  0.0621 -0.5755
 6769TIP3    H141866   0.679   1.788   1.446  0.0108  0.8927 -2.5412
 6769TIP3    H241867   0.532   1.758   1.461  0.5274 -0.2684  1.0250
 6770TIP3   OH241868   1.742   1.716   0.661  0.3934  0.1097 -0.1509
 6770TIP3    H141869   1.699   1.790   0.617  1.4255  0.7973 -0.0609
 6770TIP3    H241870   1.803   1.758   0.722 -1.8997 -0.7630  2.9919
 6771TIP3   OH241871   2.896   1.575   0.282 -0.0804 -0.4595  0.0075
 6771TIP3    H141872   2.869   1.661   0.250 -0.4686 -0.6480 -0.1763
 6771TIP3    H241873   2.937   1.533   0.206  1.7598  0.2311  0.5530
 6772TIP3   OH241874   3.709   6.234   7.047  0.2964  0.6607  0.1362
 6772TIP3    H141875   3.687   6.312   6.995 -1.9742 -0.2697 -0.4321
 6772TIP3    H241876   3.645   6.234   7.118  1.8628  0.6108  1.5954
 6773TIP3   OH241877   5.572   1.042   6.767 -0.3881 -0.3999 -0.0307
 6773TIP3    H141878   5.486   1.041   6.726  0.3158  2.0289 -1.8169
 6773TIP3    H241879   5.632   1.020   6.695  0.6087 -0.4087  0.7810
 6774TIP3   OH241880   0.093   5.879   6.210  0.4893  0.4195 -0.2551
 6774TIP3    H141881   0.094   5.874   6.114 -0.0348  1.6522 -0.3537
 6774TIP3    H241882   0.142   5.959   6.230 -1.6248  1.6691  0.3188
 6775TIP3   OH241883   5.055   1.000   1.193 -0.2626 -0.3416  0.4510
 6775TIP3    H141884   5.073   1.036   1.280 -0.7351 -1.9146  1.2421
 6775TIP3    H241885   5.038   0.907   1.209 -2.9459 -0.1757 -0.9906
 6776TIP3   OH241886   3.501   0.914   1.599 -0.7153  0.1346  0.4914
 6776TIP3    H141887   3.532   0.873   1.680  1.9856  1.8974  0.4919
 6776TIP3    H241888   3.407   0.923   1.611 -0.2500  1.9530  4.3318
 6777TIP3   OH241889   0.119   0.753   1.407 -0.0535 -0.1046 -0.4591
 6777TIP3    H141890   0.054   0.694   1.369  0.7927 -0.7001 -1.0019
 6777TIP3    H241891   0.169   0.698   1.467 -0.4131  0.4897  0.4151
 6778TIP3   OH241892   6.635   4.422   7.778  0.1316  0.1522  0.3630
 6778TIP3    H141893   6.697   4.490   7.751 -0.1666 -0.3497 -1.8175
 6778TIP3    H241894   6.558   4.471   7.808  0.4252  0.7912  0.1079
 6779TIP3   OH241895   6.873   3.278   1.304  1.0526 -0.6875 -0.1165
 6779TIP3    H141896   6.938   3.229   1.353 -0.5122 -0.5356  2.2860
 6779TIP3    H241897   6.909   3.367   1.298  1.4595 -0.8106  0.4314
 6780TIP3   OH241898   2.632   0.705   0.588 -0.5799  0.3750  0.1510
 6780TIP3    H141899   2.698   0.729   0.523 -0.5147 -0.0797  0.0429
 6780TIP3    H241900   2.682   0.663   0.658 -0.9778 -2.7685 -1.2596
 6781TIP3   OH241901   2.573   5.274   0.900 -0.2242 -0.5709 -0.5257
 6781TIP3    H141902   2.578   5.354   0.952 -1.7025  0.0586 -1.2829
 6781TIP3    H241903   2.530   5.211   0.958  1.4947 -1.0475  0.2904
 6782TIP3   OH241904   1.840   2.567   1.603 -0.4436 -0.4903 -0.2773
 6782TIP3    H141905   1.885   2.646   1.575 -0.1148 -0.7310 -0.4422
 6782TIP3    H241906   1.894   2.533   1.675 -0.4462 -0.6971 -0.3721
 6783TIP3   OH241907   2.734   5.096   1.386  0.2631 -0.1284  0.3455
 6783TIP3    H141908   2.722   5.132   1.474 -2.3628 -0.0944  0.0546
 6783TIP3    H241909   2.652   5.117   1.340  0.2914 -2.8315 -1.1471
 6784TIP3   OH241910   5.299   1.309   6.727  0.1349 -0.3695  0.9764
 6784TIP3    H141911   5.233   1.378   6.730  0.0828 -0.3797  0.2940
 6784TIP3    H241912   5.271   1.252   6.655  0.5695 -0.6966  1.0610
 6785TIP3   OH241913   5.028   6.104   7.222  0.1815  0.2393 -0.2851
 6785TIP3    H141914   5.001   6.160   7.148 -1.3919  0.8432  0.6779
 6785TIP3    H241915   4.968   6.029   7.217 -0.3645  0.5948  0.7205
 6786TIP3   OH241916   3.915   1.771   7.162  0.5907  0.7471  0.7215
 6786TIP3    H141917   3.873   1.726   7.235  1.5995 -0.6337  0.4690
 6786TIP3    H241918   3.982   1.826   7.203 -1.3346  2.9670  1.1285
 6787TIP3   OH241919   1.113   5.908   6.253 -0.3227 -0.0586 -0.0463
 6787TIP3    H141920   1.137   5.999   6.272 -0.8828  0.0720  0.0651
 6787TIP3    H241921   1.196   5.861   6.251 -0.1060  0.2498  0.9961
 6788TIP3   OH241922   2.215   2.525   1.207 -0.0235  0.1145  0.4160
 6788TIP3    H141923   2.230   2.434   1.229  0.7883  0.2402  0.4036
 6788TIP3    H241924   2.134   2.548   1.253 -0.4767 -0.7314  0.0497
 6789TIP3   OH241925   0.829   6.758   1.742  0.2979 -0.1276 -0.3941
 6789TIP3    H141926   0.763   6.814   1.782  0.1874 -0.4414 -0.1264
 6789TIP3    H241927   0.908   6.772   1.794 -0.5487 -2.6170  1.7972
 6790TIP3   OH241928   6.337   6.149   1.954  0.5799  0.3426  0.0909
 6790TIP3    H141929   6.306   6.219   1.897 -1.3851 -2.2577 -2.2844
 6790TIP3    H241930   6.407   6.107   1.904 -0.0679 -0.9925  0.2667
 6791TIP3   OH241931   0.319   1.958   6.380 -0.0875  0.1733 -0.2623
 6791TIP3    H141932   0.313   1.884   6.318  0.3572  0.1092 -0.2366
 6791TIP3    H241933   0.245   1.946   6.439 -0.1571 -0.1185 -0.4048
 6792TIP3   OH241934   3.627   7.111   1.342  0.1660 -0.8085 -0.1254
 6792TIP3    H141935   3.631   7.191   1.394  1.8072 -1.9991  1.6970
 6792TIP3    H241936   3.541   7.074   1.361 -0.2017 -0.0068 -0.1979
 6793TIP3   OH241937   3.448   5.330   7.409  0.3822 -0.5041 -0.2208
 6793TIP3    H141938   3.483   5.333   7.498 -0.1884  0.8738 -0.0101
 6793TIP3    H241939   3.376   5.268   7.414  0.3162 -0.3932  0.3016
 6794TIP3   OH241940   1.621   2.085   6.701  0.4621 -0.1066 -0.2565
 6794TIP3    H141941   1.697   2.077   6.758  1.7382 -0.1419 -1.8830
 6794TIP3    H241942   1.547   2.055   6.754  1.8714 -2.0038  0.7411
 6795TIP3   OH241943   5.462   5.817   7.717 -0.0921 -0.0928 -0.2733
 6795TIP3    H141944   5.552   5.784   7.709 -0.2696 -0.4595 -0.7467
 6795TIP3    H241945   5.424   5.764   7.787  0.1246  0.2088  0.0766
 6796TIP3   OH241946   3.827   3.421   0.328 -0.5961  0.1081  1.0231
 6796TIP3    H141947   3.878   3.401   0.407 -0.6077 -0.4070  0.9054
 6796TIP3    H241948   3.880   3.387   0.256 -0.4805  0.7843  0.7874
 6797TIP3   OH241949   6.797   1.344   7.254  0.0916  0.0346  0.8082
 6797TIP3    H141950   6.865   1.378   7.196  0.9016  0.4019  1.9343
 6797TIP3    H241951   6.817   1.250   7.261 -1.6979 -0.6281 -1.7007
 6798TIP3   OH241952   0.495   0.014   6.680 -0.2148  0.6923  1.1251
 6798TIP3    H141953   0.488  -0.010   6.773 -0.1902  0.4647  1.0683
 6798TIP3    H241954   0.428   0.081   6.668 -2.2246 -1.2654  0.6503
 6799TIP3   OH241955   2.909   5.494   7.399  0.2627  0.0169 -0.4838
 6799TIP3    H141956   2.977   5.524   7.338  0.8446 -0.6802 -0.1944
 6799TIP3    H241957   2.945   5.511   7.486  0.5684 -1.3694 -0.3132
 6800TIP3   OH241958   0.587   2.967   6.651 -0.4970 -0.1720  0.2623
 6800TIP3    H141959   0.511   2.959   6.708 -0.3410 -1.6212  0.3038
 6800TIP3    H241960   0.608   3.061   6.652 -2.1469  0.2243  0.3982
 6801TIP3   OH241961   4.987   4.382   0.485  0.2126  0.2645  0.8458
 6801TIP3    H141962   4.908   4.390   0.539 -0.8287 -1.9722 -0.2120
 6801TIP3    H241963   5.010   4.289   0.490  2.4600  0.7612  0.6380
 6802TIP3   OH241964   3.493   5.301   0.190 -0.3594  0.0797  0.1176
 6802TIP3    H141965   3.472   5.234   0.125  1.8867  0.9394 -1.6465
 6802TIP3    H241966   3.466   5.384   0.150  1.0268  0.6243  0.2245
 6803TIP3   OH241967   4.864   4.629   5.866 -0.9730  0.3148 -0.4466
 6803TIP3    H141968   4.869   4.719   5.900 -1.1656  0.9662 -2.0412
 6803TIP3    H241969   4.897   4.636   5.777 -1.9118 -1.0294 -0.9284
 6804TIP3   OH241970   6.768   5.112   2.314 -0.2659  0.3594 -0.2159
 6804TIP3    H141971   6.812   5.037   2.353 -0.7178  0.4911  0.5729
 6804TIP3    H241972   6.698   5.074   2.261  1.2166  0.1126 -2.0913
 6805TIP3   OH241973   1.956   5.965   7.309  0.5730 -0.7781  0.5224
 6805TIP3    H141974   1.997   5.884   7.278 -0.4569 -0.8517 -0.7184
 6805TIP3    H241975   2.029   6.025   7.323  1.1907 -1.1712 -0.8357
 6806TIP3   OH241976   6.003   6.312   1.855 -0.2277 -0.1282 -0.1313
 6806TIP3    H141977   6.004   6.243   1.921 -1.2823 -0.6770 -0.6661
 6806TIP3    H241978   5.964   6.387   1.899 -1.2309 -0.5905 -0.1845
 6807TIP3   OH241979   5.201   1.056   1.713 -0.4131  0.0828  0.2818
 6807TIP3    H141980   5.133   1.096   1.767 -0.9827  0.8425 -0.9529
 6807TIP3    H241981   5.235   0.984   1.766 -1.4313  0.3717  1.3562
 6808TIP3   OH241982   6.683   4.688   7.098  0.7888 -0.0295 -0.3402
 6808TIP3    H141983   6.612   4.718   7.041  0.5753 -2.1781 -1.2697
 6808TIP3    H241984   6.640   4.673   7.183  0.3657 -0.2067 -0.5830
 6809TIP3   OH241985   3.074   0.792   7.735 -0.1592 -0.1972  0.4305
 6809TIP3    H141986   3.034   0.748   7.811 -0.1900  0.7195  0.9651
 6809TIP3    H241987   3.121   0.722   7.689  1.5850 -0.4317  2.4099
 6810TIP3   OH241988   4.520   2.243   7.335 -0.3070 -0.3150  0.2981
 6810TIP3    H141989   4.462   2.235   7.259 -0.8152  1.2726  0.4774
 6810TIP3    H241990   4.607   2.251   7.298 -0.3633 -1.1712 -0.0400
 6811TIP3   OH241991   4.881   4.292   0.915 -0.2461 -0.5398 -0.2068
 6811TIP3    H141992   4.877   4.361   0.982 -0.2580 -1.1274  0.4027
 6811TIP3    H241993   4.961   4.311   0.866 -0.9245  0.6808 -0.8997
 6812TIP3   OH241994   1.608   2.054   1.833 -0.9566 -0.1060  0.7172
 6812TIP3    H141995   1.689   2.104   1.844  0.2444 -1.8721  0.4272
 6812TIP3    H241996   1.543   2.100   1.886  0.3979  1.0016  1.4712
 6813TIP3   OH241997   1.232   3.979   0.864  0.0207 -0.4776  0.1915
 6813TIP3    H141998   1.226   3.997   0.958 -2.2614 -1.0389  0.2013
 6813TIP3    H241999   1.315   4.020   0.837  0.7597 -0.3770  2.4407
 6814TIP3   OH242000   0.767   6.021   1.215 -0.8877  0.2135  0.0559
 6814TIP3    H142001   0.683   6.029   1.170 -1.5063 -0.5118  1.0420
 6814TIP3    H242002   0.758   6.075   1.293 -0.8787 -0.7978  0.7695
 6815TIP3   OH242003   5.788   6.456   1.998 -0.0762  0.0421  0.0528
 6815TIP3    H142004   5.710   6.510   2.013 -1.6746 -1.6745 -1.4244
 6815TIP3    H242005   5.779   6.384   2.060  1.0596  0.5112  0.7743
 6816TIP3   OH242006   2.280   6.058   2.225 -0.0600  0.5221  0.0687
 6816TIP3    H142007   2.298   5.967   2.204  0.8404  0.5074  0.8459
 6816TIP3    H242008   2.353   6.085   2.280 -1.5388  0.9775  1.9420
 6817TIP3   OH242009   6.024   2.872   1.262 -0.2511  0.1923 -0.1135
 6817TIP3    H142010   5.960   2.808   1.294 -1.1907  1.6702  1.0908
 6817TIP3    H242011   6.086   2.883   1.334 -1.0447  1.8225  0.3591
 6818TIP3   OH242012   3.731   5.468   1.327 -0.4302 -0.6798 -0.0226
 6818TIP3    H142013   3.757   5.526   1.256 -1.1887  0.9142  0.9531
 6818TIP3    H242014   3.799   5.478   1.393 -0.2315 -1.4222 -0.0997
 6819TIP3   OH242015   1.263   6.053   7.375  0.2640  0.3613  0.1933
 6819TIP3    H142016   1.325   6.125   7.370  0.6591 -0.0433 -1.3436
 6819TIP3    H242017   1.223   6.049   7.288  0.4502 -1.4214  0.1438
 6820TIP3   OH242018   3.546   0.735   6.848 -0.3505 -0.0435  0.3815
 6820TIP3    H142019   3.451   0.723   6.854 -0.3255 -3.7770 -2.5458
 6820TIP3    H242020   3.558   0.796   6.775 -0.4126  1.6752  1.7517
 6821TIP3   OH242021   2.836   4.211   1.408 -0.2642  0.3634 -0.6395
 6821TIP3    H142022   2.751   4.242   1.376  0.2714  0.4596 -2.0763
 6821TIP3    H242023   2.847   4.125   1.366 -0.7680 -0.8577  1.5751
 6822TIP3   OH242024   6.587   1.428   1.314 -0.2903  0.2936 -0.7412
 6822TIP3    H142025   6.517   1.405   1.253 -0.6075 -0.3038 -0.1671
 6822TIP3    H242026   6.543   1.479   1.383  0.1336  1.3149 -1.1982
 6823TIP3   OH242027   6.544   5.730   0.290  0.0427  0.8265 -0.4335
 6823TIP3    H142028   6.554   5.636   0.279  2.3839  1.1078 -1.1837
 6823TIP3    H242029   6.591   5.768   0.215  0.6584  2.6042  0.7945
 6824TIP3   OH242030   6.476   4.930   6.145 -0.1127  0.2144  0.1735
 6824TIP3    H142031   6.555   4.924   6.091  0.1433  0.5695  0.4993
 6824TIP3    H242032   6.413   4.977   6.091 -1.1304 -2.5869 -1.2481
 6825TIP3   OH242033   3.855   5.551   6.493  0.1376  0.4282 -0.1609
 6825TIP3    H142034   3.765   5.566   6.463 -0.6097 -1.9351  0.6980
 6825TIP3    H242035   3.904   5.534   6.413 -0.4005  0.6713 -0.5532
 6826TIP3   OH242036   4.037   3.013   0.799  0.0921  0.0967  0.9789
 6826TIP3    H142037   3.997   2.933   0.765  1.4515  0.5637 -2.0794
 6826TIP3    H242038   3.978   3.083   0.770  0.0570  0.3755  1.7051
 6827TIP3   OH242039   3.680   5.079   1.342  0.2404  0.2272 -0.6054
 6827TIP3    H142040   3.709   5.008   1.285 -1.3604 -0.9001 -0.0574
 6827TIP3    H242041   3.690   5.045   1.431  0.2438  1.0080 -0.2960
 6828TIP3   OH242042   3.587   3.972   5.599 -0.8147 -0.0197  0.0633
 6828TIP3    H142043   3.608   4.054   5.644  0.0343 -1.0352  1.6287
 6828TIP3    H242044   3.651   3.967   5.527 -0.4687  0.4056  0.3357
 6829TIP3   OH242045   4.570   5.558   0.868 -0.0276 -0.4993 -0.0269
 6829TIP3    H142046   4.617   5.594   0.793  0.0387 -1.8244 -0.6404
 6829TIP3    H242047   4.507   5.497   0.830 -2.0391  0.9307  0.7861
 6830TIP3   OH242048   4.394   4.817   7.116 -0.0786  0.0508  0.2243
 6830TIP3    H142049   4.475   4.866   7.104  0.1295  0.0626  1.5130
 6830TIP3    H242050   4.342   4.837   7.037  1.6259 -0.9529 -1.2164
 6831TIP3   OH242051   0.468   1.977   7.071 -0.1233 -0.2745 -0.0228
 6831TIP3    H142052   0.559   2.009   7.070  0.1809 -1.1033  0.2950
 6831TIP3    H242053   0.429   2.017   7.149  0.3841 -1.0171  0.6229
 6832TIP3   OH242054   2.101   6.751   0.389 -0.3092  0.3879  0.1089
 6832TIP3    H142055   2.164   6.730   0.458 -1.7791 -0.0376  1.3749
 6832TIP3    H242056   2.077   6.665   0.353 -0.5368  0.5107 -0.0286
 6833TIP3   OH242057   5.158   0.968   0.421 -0.2485 -0.2833  0.4299
 6833TIP3    H142058   5.231   0.980   0.481  1.4539  1.6792 -1.8594
 6833TIP3    H242059   5.106   1.048   0.431 -0.4619 -0.3559 -0.0701
 6834TIP3   OH242060   6.295   2.094   6.469  0.4933 -1.1596 -0.0155
 6834TIP3    H142061   6.278   2.168   6.527  1.7514 -1.0309  0.2172
 6834TIP3    H242062   6.274   2.126   6.381  0.8324 -0.5908  0.1097
 6835TIP3   OH242063   6.372   4.783   0.155 -0.0852  0.0434 -0.4530
 6835TIP3    H142064   6.380   4.713   0.220  1.2485  0.5563 -0.0323
 6835TIP3    H242065   6.430   4.756   0.084 -0.5110  0.1336 -0.8381
 6836TIP3   OH242066   1.849   1.854   7.175  0.0336  0.6041  0.0624
 6836TIP3    H142067   1.940   1.833   7.194  0.1295  0.6630 -0.3195
 6836TIP3    H242068   1.820   1.786   7.114  0.1855  1.2530 -0.7565
 6837TIP3   OH242069   1.682   6.203   0.873 -0.4163 -0.3304 -0.5388
 6837TIP3    H142070   1.712   6.137   0.811 -0.5549  0.9586 -2.0592
 6837TIP3    H242071   1.589   6.213   0.855 -0.3323  0.4960 -0.5675
 6838TIP3   OH242072   5.243   2.896   0.891 -0.0454  0.5877  0.3432
 6838TIP3    H142073   5.150   2.897   0.914  0.1512 -1.2896  1.4472
 6838TIP3    H242074   5.247   2.845   0.810  0.1700 -1.0006  1.3181
 6839TIP3   OH242075   0.906   5.775   1.213 -0.1838  0.2731  0.0661
 6839TIP3    H142076   0.844   5.702   1.216 -0.2859  0.3824  1.8071
 6839TIP3    H242077   0.852   5.853   1.211 -0.0774  0.3240 -1.0551
 6840TIP3   OH242078   2.134   6.155   2.020  0.1274 -0.5553 -0.5828
 6840TIP3    H142079   2.178   6.134   2.103  0.9720 -0.5212 -1.0123
 6840TIP3    H242080   2.100   6.244   2.034  1.2577 -0.0878 -0.6523
 6841TIP3   OH242081   0.208   2.852   0.620  0.4953  0.0000 -0.0446
 6841TIP3    H142082   0.304   2.859   0.619  0.5445 -0.6005  0.1774
 6841TIP3    H242083   0.191   2.768   0.661 -0.1170 -0.1830 -0.6681
 6842TIP3   OH242084   3.356   7.082   7.316 -0.2788  0.3515 -0.3932
 6842TIP3    H142085   3.313   7.054   7.397 -0.3345 -2.0298 -1.1674
 6842TIP3    H242086   3.284   7.100   7.256 -0.3547 -2.1779 -1.2127
 6843TIP3   OH242087   1.222   2.771   0.628  0.4188 -0.4950  0.5503
 6843TIP3    H142088   1.181   2.789   0.713  2.4125  0.4601  1.3711
 6843TIP3    H242089   1.294   2.712   0.649  0.7902 -0.4324 -0.5237
 6844TIP3   OH242090   2.165   6.890   1.206 -0.0223  0.5215 -0.6303
 6844TIP3    H142091   2.197   6.970   1.164 -0.9087 -0.1300 -2.6640
 6844TIP3    H242092   2.071   6.906   1.218  0.0576  0.3381  0.3606
 6845TIP3   OH242093   3.635   1.106   1.436  0.6934 -0.2076  0.0419
 6845TIP3    H142094   3.651   1.156   1.515  0.5183  1.3989 -0.9018
 6845TIP3    H242095   3.575   1.036   1.463 -0.9833  1.5051  0.9410
 6846TIP3   OH242096   4.185   1.094   1.973  0.4084 -0.1086  0.6293
 6846TIP3    H142097   4.264   1.144   1.950  0.9801 -1.5046 -0.5668
 6846TIP3    H242098   4.218   1.012   2.009 -0.5185 -0.1135  1.5111
 6847TIP3   OH242099   0.091   3.269   6.899  0.7463  0.0065  0.3669
 6847TIP3    H142100   0.043   3.326   6.839 -0.3244 -1.4838 -0.2700
 6847TIP3    H242101   0.167   3.240   6.850  1.0897  0.5738  0.5576
 6848TIP3   OH242102   7.032   1.015   0.415  0.3665  0.5458  0.3042
 6848TIP3    H142103   6.963   0.949   0.418 -0.8032  1.7314  0.3443
 6848TIP3    H242104   7.085   0.997   0.493 -0.0488 -0.2203  0.4184
 6849TIP3   OH242105   4.649   4.708   6.909 -0.3170 -0.1717 -0.4361
 6849TIP3    H142106   4.716   4.727   6.843 -1.7772  0.3512 -1.8174
 6849TIP3    H242107   4.654   4.781   6.971 -1.0115  0.9819 -1.7016
 6850TIP3   OH242108   4.058   3.323   7.336  0.2450 -0.0865 -0.5301
 6850TIP3    H142109   4.099   3.250   7.383  1.0044 -1.0694 -2.6307
 6850TIP3    H242110   4.107   3.329   7.254 -1.6675  0.9181 -1.6463
 6851TIP3   OH242111   6.071   4.036   6.477 -0.4151 -0.2871 -0.4841
 6851TIP3    H142112   6.126   3.976   6.426  0.7762 -0.3886  0.8734
 6851TIP3    H242113   6.003   4.064   6.415 -0.2759 -2.0618 -1.5065
 6852TIP3   OH242114   0.179   2.883   1.723 -0.3441 -0.4704 -0.0203
 6852TIP3    H142115   0.251   2.881   1.661  0.0094  1.1299  0.2854
 6852TIP3    H242116   0.219   2.865   1.808 -0.2683  0.4196  0.1496
 6853TIP3   OH242117   0.773   4.960   1.238  0.2524  0.2651  0.8791
 6853TIP3    H142118   0.747   5.052   1.244 -2.7914 -0.1626 -2.3653
 6853TIP3    H242119   0.729   4.917   1.312 -0.8737  0.9624  0.6249
 6854TIP3   OH242120   0.549   4.736   6.592 -0.0178 -0.0619  0.0567
 6854TIP3    H142121   0.487   4.790   6.641 -0.8777 -1.7983  0.9773
 6854TIP3    H242122   0.564   4.660   6.649  2.8194  0.1889 -0.2182
 6855TIP3   OH242123   4.852   4.674   0.518  0.6663  0.0306 -0.9084
 6855TIP3    H142124   4.810   4.597   0.556  1.2345 -0.2134 -0.7694
 6855TIP3    H242125   4.795   4.747   0.543  1.1867 -0.0838  0.6859
 6856TIP3   OH242126   5.954   6.336   0.093  0.0344  0.4614  0.1662
 6856TIP3    H142127   5.895   6.324   0.019  0.3430  0.4203 -0.0759
 6856TIP3    H242128   6.005   6.414   0.070  0.7056 -0.0367 -0.0525
 6857TIP3   OH242129   6.766   4.396   1.521  0.4335  0.3486  0.1758
 6857TIP3    H142130   6.698   4.445   1.568 -0.6270 -0.5630 -0.3526
 6857TIP3    H242131   6.777   4.443   1.439 -1.8514 -1.1339 -1.1189
 6858TIP3   OH242132   2.419   6.438   6.667  0.0385  0.4700  0.8022
 6858TIP3    H142133   2.451   6.349   6.677  1.7070  1.0327  0.8500
 6858TIP3    H242134   2.399   6.446   6.573  0.6649  0.2805  0.6464
 6859TIP3   OH242135   3.285   5.663   5.970  0.3338  0.1225 -0.2826
 6859TIP3    H142136   3.224   5.736   5.958  0.4491  0.0328 -1.5765
 6859TIP3    H242137   3.238   5.587   5.937  1.6293  0.2932 -2.7495
 6860TIP3   OH242138   0.369   6.472   1.633  0.2621 -0.4227  0.2797
 6860TIP3    H142139   0.345   6.467   1.725  0.9848  0.2430  0.5100
 6860TIP3    H242140   0.285   6.481   1.587  0.0058  1.8648  1.0618
 6861TIP3   OH242141   2.535   1.070   1.960  0.0155  0.7421  0.5893
 6861TIP3    H142142   2.499   1.120   2.034 -1.6817 -2.6490  2.2426
 6861TIP3    H242143   2.493   0.985   1.965  2.7105 -0.9461 -2.0795
 6862TIP3   OH242144   5.768   1.034   6.563  0.0118 -0.3362 -0.2701
 6862TIP3    H142145   5.857   1.063   6.582 -0.0941 -0.4990  0.4955
 6862TIP3    H242146   5.775   0.988   6.479  0.3420  1.1168 -1.0668
 6863TIP3   OH242147   0.369   5.884   1.355 -0.0213  0.3426  0.1317
 6863TIP3    H142148   0.397   5.951   1.293  0.5225 -0.5070 -0.5555
 6863TIP3    H242149   0.435   5.885   1.423 -1.4661  2.4258  1.6346
 6864TIP3   OH242150   3.819   3.756   1.297 -0.3038 -0.1883  0.1228
 6864TIP3    H142151   3.866   3.765   1.380 -1.7148  0.4789  0.8832
 6864TIP3    H242152   3.882   3.714   1.239  2.8926  4.4276 -0.2999
 6865TIP3   OH242153   1.812   3.140   0.789 -0.1717 -0.8781 -0.0106
 6865TIP3    H142154   1.786   3.109   0.702  0.1314  0.6561 -0.6905
 6865TIP3    H242155   1.832   3.233   0.776  0.8793 -0.8556  1.4956
 6866TIP3   OH242156   2.899   0.494   0.505 -0.2031  0.0238  0.0899
 6866TIP3    H142157   2.984   0.485   0.547  0.2566 -0.6431 -0.9609
 6866TIP3    H242158   2.895   0.586   0.478  1.3014 -0.4877 -2.1259
 6867TIP3   OH242159   5.731   3.805   1.899 -0.5346  0.2703 -0.1133
 6867TIP3    H142160   5.694   3.718   1.892 -1.6058  0.5587  1.4919
 6867TIP3    H242161   5.678   3.859   1.840 -0.0653 -0.0726 -0.8703
 6868TIP3   OH242162   2.523   0.372   0.775  0.1020 -0.7654  0.3850
 6868TIP3    H142163   2.444   0.403   0.731  1.8801  1.5299 -1.4938
 6868TIP3    H242164   2.505   0.384   0.868 -1.8207 -0.5182  0.0243
 6869TIP3   OH242165   2.116   3.924   7.251  0.4402 -0.6461  0.7246
 6869TIP3    H142166   2.078   3.870   7.321  0.3254 -0.4174  0.8368
 6869TIP3    H242167   2.072   3.894   7.171 -0.7561  0.3370  0.9851
 6870TIP3   OH242168   0.727   1.664   7.095  0.3073  0.2656 -0.5418
 6870TIP3    H142169   0.820   1.651   7.115 -0.1723 -0.3657  1.4998
 6870TIP3    H242170   0.709   1.753   7.125  0.1430  0.2042 -0.4562
 6871TIP3   OH242171   4.026   4.547   6.484 -0.7183  0.2668  0.6168
 6871TIP3    H142172   3.943   4.592   6.501 -0.8691 -0.7323  2.8972
 6871TIP3    H242173   4.003   4.454   6.488 -0.0393 -0.0916 -1.9984
 6872TIP3   OH242174   5.951   5.043   0.670  0.4034 -0.0670  0.2355
 6872TIP3    H142175   5.896   5.090   0.732  1.4081 -0.6820  1.6604
 6872TIP3    H242176   5.997   5.112   0.622  0.2639  0.4218  0.7886
 6873TIP3   OH242177   0.970   6.452   6.078  0.1280  0.0178  0.4394
 6873TIP3    H142178   1.021   6.450   5.997 -0.1616 -1.8730  0.2500
 6873TIP3    H242179   0.889   6.498   6.054 -0.5099 -1.6114 -0.7620
 6874TIP3   OH242180   4.016   3.303   0.494  0.0791  0.1379  0.1137
 6874TIP3    H142181   4.087   3.250   0.459 -0.2158 -0.3107  0.1768
 6874TIP3    H242182   4.009   3.275   0.586  0.4810  0.9026  0.3852
 6875TIP3   OH242183   5.413   4.220   7.953  0.8342 -0.5380  0.4338
 6875TIP3    H142184   5.439   4.171   8.031  1.0433  0.6544  1.1385
 6875TIP3    H242185   5.369   4.155   7.897 -0.3847 -1.1696  2.0449
 6876TIP3   OH242186   0.537   4.135   0.239 -0.6949 -0.5937  0.2611
 6876TIP3    H142187   0.590   4.122   0.160 -0.9505  0.2011 -0.0463
 6876TIP3    H242188   0.448   4.144   0.207 -0.7825 -0.1296  0.6314
 6877TIP3   OH242189   0.870   3.011   7.452  0.0855  0.0347  0.0319
 6877TIP3    H142190   0.936   2.947   7.480 -0.7399 -0.3168  1.2232
 6877TIP3    H242191   0.907   3.096   7.476  0.6336 -0.0701 -0.4185
 6878TIP3   OH242192   6.167   4.272   6.603  0.3725 -0.1347  0.0677
 6878TIP3    H142193   6.110   4.315   6.667  2.4230  0.9477  1.2869
 6878TIP3    H242194   6.120   4.192   6.578 -1.8883  0.9889  0.5423
 6879TIP3   OH242195   4.709   3.743   0.639  0.4499 -1.3020  0.7891
 6879TIP3    H142196   4.656   3.820   0.662  0.3406 -1.5732  1.4835
 6879TIP3    H242197   4.796   3.763   0.674  0.1370 -1.9677  1.9920
 6880TIP3   OH242198   2.648   1.697   7.871 -0.5875 -0.4532  0.2734
 6880TIP3    H142199   2.555   1.701   7.849 -0.7275  3.4255  0.9452
 6880TIP3    H242200   2.691   1.749   7.804  0.8491 -0.4794  1.1282
 6881TIP3   OH242201   5.462   0.698   7.550 -0.3981  0.1945 -0.0147
 6881TIP3    H142202   5.420   0.784   7.539  0.4615  0.5483 -0.5743
 6881TIP3    H242203   5.449   0.677   7.643 -2.1254  0.1236 -0.2373
 6882TIP3   OH242204   6.604   1.968   6.763  0.3106  0.2476  0.7264
 6882TIP3    H142205   6.617   1.890   6.709 -1.2396 -0.3298  1.1114
 6882TIP3    H242206   6.684   1.975   6.815  0.1288 -1.6491  1.3561
 6883TIP3   OH242207   5.525   2.845   7.744  0.0271 -0.2406  0.2372
 6883TIP3    H142208   5.507   2.898   7.666  1.1585 -1.0097 -0.5767
 6883TIP3    H242209   5.446   2.792   7.756 -0.5536  0.6011  0.2268
 6884TIP3   OH242210   1.945   4.444   0.589 -0.1707  0.0853  0.1343
 6884TIP3    H142211   1.853   4.432   0.611 -0.6923  1.7281 -0.9512
 6884TIP3    H242212   1.951   4.422   0.496  0.3942  0.5580  0.0512
 6885TIP3   OH242213   6.473   3.401   6.575  0.0800 -0.3378  0.0622
 6885TIP3    H142214   6.378   3.400   6.586  0.2572 -0.8125  1.7783
 6885TIP3    H242215   6.493   3.493   6.555 -0.6066  0.0633  1.1292
 6886TIP3   OH242216   5.596   1.834   0.324  0.3692 -0.0539  0.4277
 6886TIP3    H142217   5.567   1.745   0.345 -0.0027 -0.0869 -0.1776
 6886TIP3    H242218   5.690   1.833   0.341  0.4920 -0.7646 -0.2070
 6887TIP3   OH242219   4.459   6.486   0.280  0.2349  0.2955  0.0700
 6887TIP3    H142220   4.459   6.392   0.296  0.5401  0.5362  1.6265
 6887TIP3    H242221   4.530   6.499   0.217  0.8667 -0.4137  0.6107
 6888TIP3   OH242222   6.939   4.943   6.842  0.2157 -0.1567  0.4824
 6888TIP3    H142223   6.921   4.854   6.812  0.7761 -0.5488  1.2682
 6888TIP3    H242224   6.929   4.938   6.937 -0.0889  0.7067  0.5055
 6889TIP3   OH242225   4.711   1.941   7.124 -0.2686  0.2587 -0.3355
 6889TIP3    H142226   4.719   1.865   7.181  1.8744 -0.6966 -1.8221
 6889TIP3    H242227   4.627   1.928   7.079  0.0187 -1.1717 -0.4906
 6890TIP3   OH242228   3.687   2.213   1.214 -0.1744 -0.5464  0.1206
 6890TIP3    H142229   3.613   2.194   1.271  0.0833 -1.5582  0.1312
 6890TIP3    H242230   3.715   2.128   1.181 -1.0706  0.0890 -2.5028
 6891TIP3   OH242231   0.810   3.127   6.830  0.8845  0.4590 -0.6139
 6891TIP3    H142232   0.743   3.073   6.871  2.3364 -1.6431 -0.8256
 6891TIP3    H242233   0.771   3.156   6.748 -0.0813  0.0446 -0.3193
 6892TIP3   OH242234   6.941   6.267   2.303 -0.4337  0.5123  0.5793
 6892TIP3    H142235   6.915   6.254   2.212 -0.6307  0.2583  0.6729
 6892TIP3    H242236   6.923   6.184   2.346  1.4165 -0.0110  0.4355
 6893TIP3   OH242237   4.658   1.432   7.295  0.0762 -0.1961 -0.4373
 6893TIP3    H142238   4.564   1.428   7.277  0.1236  2.0648 -1.4954
 6893TIP3    H242239   4.665   1.413   7.389 -1.1947 -2.2528 -0.6749
 6894TIP3   OH242240   7.132   3.036   7.392  0.3664 -0.0943 -0.1865
 6894TIP3    H142241   7.117   3.042   7.297  0.1954  0.3885 -0.1316
 6894TIP3    H242242   7.160   3.124   7.417 -1.8693  0.4434  0.6145
 6895TIP3   OH242243   0.133   1.110   6.303 -0.1671  0.1077 -0.1840
 6895TIP3    H142244   0.111   1.043   6.367  0.2112  0.4047  0.2604
 6895TIP3    H242245   0.048   1.148   6.278 -0.2521  0.5701  0.7741
 6896TIP3   OH242246   7.087   2.003   7.928  0.3640  1.2293  0.2791
 6896TIP3    H142247   7.126   2.089   7.914  1.5034  1.0758  2.2079
 6896TIP3    H242248   7.161   1.947   7.953  0.0563 -0.8974 -2.9114
 6897TIP3   OH242249   5.865   2.307   1.356  0.1311 -0.1444 -0.0795
 6897TIP3    H142250   5.850   2.222   1.316 -1.0949  1.1788 -2.6304
 6897TIP3    H242251   5.805   2.309   1.430  0.0723 -1.4115 -0.0631
 6898TIP3   OH242252   0.864   2.305   0.657 -0.2683 -0.6239 -0.0590
 6898TIP3    H142253   0.925   2.236   0.681  1.0560  0.3803 -0.4452
 6898TIP3    H242254   0.883   2.325   0.566 -0.2473  0.6163  0.1946
 6899TIP3   OH242255   3.209   3.781   6.856  0.2422 -0.3875  0.7566
 6899TIP3    H142256   3.290   3.763   6.903  0.7516  0.3500  0.1902
 6899TIP3    H242257   3.236   3.834   6.781 -0.7023 -0.5416  0.2889
 6900TIP3   OH242258   2.108   0.486   1.341 -0.5533 -0.0280  0.3965
 6900TIP3    H142259   2.143   0.573   1.357  0.4573 -0.1795 -0.8103
 6900TIP3    H242260   2.019   0.500   1.310 -0.5888  0.5390  0.7569
 6901TIP3   OH242261   6.414   0.605   7.791  0.7519 -0.1012  0.4863
 6901TIP3    H142262   6.331   0.592   7.838 -0.1847 -0.2905 -1.1451
 6901TIP3    H242263   6.402   0.687   7.744  1.1632 -0.5401 -0.4045
 6902TIP3   OH242264   2.627   3.197   1.082  0.3938 -0.1616  0.5482
 6902TIP3    H142265   2.534   3.210   1.100  0.1025 -0.4033 -0.6680
 6902TIP3    H242266   2.672   3.263   1.135 -0.6364  1.6062 -0.6772
 6903TIP3   OH242267   2.869   3.737   2.210 -0.0278  0.3222 -0.2030
 6903TIP3    H142268   2.940   3.728   2.147 -1.9892  2.6068 -3.0118
 6903TIP3    H242269   2.893   3.812   2.263  2.0205 -2.0834  2.6256
 6904TIP3   OH242270   1.575   0.584   6.660 -0.2707 -0.2191  0.2186
 6904TIP3    H142271   1.500   0.635   6.691 -0.9785 -0.2572 -1.3425
 6904TIP3    H242272   1.629   0.646   6.612 -0.9478 -0.8053 -1.3718
 6905TIP3   OH242273   2.242   2.414   7.602  0.3366  0.8736 -0.1276
 6905TIP3    H142274   2.181   2.340   7.597  1.2931  0.1052 -0.9922
 6905TIP3    H242275   2.200   2.476   7.662 -1.1184  0.2312 -0.4328
 6906TIP3   OH242276   1.437   3.947   0.364  0.0855 -0.1384  0.2411
 6906TIP3    H142277   1.478   3.861   0.374  0.0006 -0.3469 -1.0351
 6906TIP3    H242278   1.508   4.006   0.340  0.0575  0.0266  0.5669
 6907TIP3   OH242279   5.307   3.080   5.854  0.3090 -0.4934 -0.1233
 6907TIP3    H142280   5.254   3.028   5.794  1.2284  0.8574 -2.1940
 6907TIP3    H242281   5.278   3.170   5.840  0.8995 -0.0885  1.1141
 6908TIP3   OH242282   0.701   2.525   1.915  0.3820 -0.1815 -0.2338
 6908TIP3    H142283   0.608   2.505   1.909 -0.1109  0.5886  2.7921
 6908TIP3    H242284   0.745   2.440   1.907 -0.9804 -1.3196  2.6981
 6909TIP3   OH242285   5.740   3.901   6.373  0.0819 -0.0075  0.4466
 6909TIP3    H142286   5.766   3.993   6.387 -1.0373  0.3726  0.1356
 6909TIP3    H242287   5.650   3.907   6.341 -0.2741 -1.2661  1.1760
 6910TIP3   OH242288   1.352   3.473   2.073 -0.1311 -0.4854 -0.3846
 6910TIP3    H142289   1.334   3.393   2.123  1.0439 -0.6319 -0.1684
 6910TIP3    H242290   1.270   3.521   2.075 -0.1583 -0.5416  1.6145
 6911TIP3   OH242291   2.478   6.818   0.639 -0.0158 -0.2829 -0.3002
 6911TIP3    H142292   2.547   6.758   0.614 -0.0208 -0.1557 -0.6232
 6911TIP3    H242293   2.509   6.904   0.611  0.0189 -0.1227  0.2140
 6912TIP3   OH242294   6.871   2.808   2.068 -0.2441 -0.2178  0.0405
 6912TIP3    H142295   6.890   2.716   2.081  0.7411 -0.4809 -2.7696
 6912TIP3    H242296   6.778   2.817   2.091 -0.0602 -1.6208  1.4456
 6913TIP3   OH242297   0.114   3.224   2.616 -0.1306 -0.7367  0.8008
 6913TIP3    H142298   0.072   3.179   2.689 -1.5963  1.6524  1.5487
 6913TIP3    H242299   0.094   3.170   2.539 -0.4048 -2.1601  1.8289
 6914TIP3   OH242300   5.242   4.015   6.432  0.3646 -0.2221  0.1237
 6914TIP3    H142301   5.223   4.038   6.523  0.6214 -0.5644  0.2643
 6914TIP3    H242302   5.273   4.097   6.393  2.0900 -0.4867  0.8480
 6915TIP3   OH242303   1.599   0.317   0.305  0.5512 -0.0427 -0.3274
 6915TIP3    H142304   1.672   0.272   0.263 -0.2761 -3.1710  1.3214
 6915TIP3    H242305   1.525   0.305   0.246 -0.0413 -2.3870  0.7780
 6916TIP3   OH242306   1.889   0.926   1.129 -0.0547 -0.1879 -0.1861
 6916TIP3    H142307   1.838   0.987   1.182  0.5508  0.9041 -0.8252
 6916TIP3    H242308   1.932   0.981   1.063  0.8561 -1.2451 -0.5140
 6917TIP3   OH242309   7.123   2.369   1.849 -0.1017 -0.4021  0.0730
 6917TIP3    H142310   7.134   2.415   1.933  0.5126  1.0735 -0.7768
 6917TIP3    H242311   7.092   2.282   1.874 -3.2705  1.0194  1.7020
 6918TIP3   OH242312   1.964   6.369   6.680  0.0321 -0.4475 -0.0321
 6918TIP3    H142313   1.994   6.332   6.597  0.0091  0.2428 -0.3541
 6918TIP3    H242314   1.959   6.463   6.664  0.7646 -0.2171  0.9841
 6919TIP3   OH242315   1.745   3.210   1.088 -0.0660 -0.1303  0.0247
 6919TIP3    H142316   1.790   3.160   1.020  0.5623  1.9438 -1.1708
 6919TIP3    H242317   1.721   3.293   1.045 -2.6626 -0.0702  1.3851
 6920TIP3   OH242318   6.614   6.114   6.999  0.5181 -0.0714 -0.1449
 6920TIP3    H142319   6.636   6.157   6.916  1.9139 -2.1611 -0.9330
 6920TIP3    H242320   6.527   6.077   6.984  0.2096  0.6475 -0.1888
 6921TIP3   OH242321   3.029   4.313   1.234 -0.1789 -0.1063 -0.1390
 6921TIP3    H142322   2.961   4.296   1.299 -0.7112  1.7999 -0.1267
 6921TIP3    H242323   3.017   4.245   1.168 -1.4251 -0.4352  0.3908
 6922TIP3   OH242324   3.268   2.827   2.210  0.4065  0.4051  0.4031
 6922TIP3    H142325   3.183   2.824   2.253  1.0092  0.6525  1.6452
 6922TIP3    H242326   3.306   2.911   2.238  1.0809  0.2729 -0.0915
 6923TIP3   OH242327   3.261   1.821   2.182 -0.1558 -0.6259  0.0999
 6923TIP3    H142328   3.307   1.738   2.196 -0.2867 -0.5022  1.4578
 6923TIP3    H242329   3.329   1.882   2.154  0.1901 -0.8722  0.3874
 6924TIP3   OH242330   2.720   2.514   2.319 -0.1836 -0.3661  0.2738
 6924TIP3    H142331   2.760   2.565   2.249 -1.8790  2.1748  1.0389
 6924TIP3    H242332   2.630   2.501   2.291 -0.5149 -0.5015  1.3508
 6925TIP3   OH242333   0.419   4.067   7.942 -0.1152 -0.8372  0.2184
 6925TIP3    H142334   0.366   4.130   7.991  1.1486  0.3592  0.1174
 6925TIP3    H242335   0.380   4.065   7.855 -2.2580 -2.8333  1.1251
 6926TIP3   OH242336   0.699   3.135   1.391 -0.0201 -0.7536 -0.0686
 6926TIP3    H142337   0.702   3.220   1.346 -0.1249 -0.6898  0.0454
 6926TIP3    H242338   0.645   3.151   1.468  0.2354 -0.8395  0.1293
 6927TIP3   OH242339   4.793   0.488   5.879 -0.3338 -0.1272  0.0451
 6927TIP3    H142340   4.817   0.575   5.848 -3.0489  0.4169 -0.7516
 6927TIP3    H242341   4.855   0.429   5.836  1.7852  1.3677  0.8864
 6928TIP3   OH242342   3.921   6.567   1.566 -0.3857  0.2666  0.8715
 6928TIP3    H142343   3.991   6.529   1.620  0.3417 -0.4026 -0.4881
 6928TIP3    H242344   3.930   6.523   1.481 -1.4597  1.3258  0.1821
 6929TIP3   OH242345   2.390   2.910   1.965  0.3084 -0.2477 -0.6197
 6929TIP3    H142346   2.349   2.881   2.047 -0.8150 -0.4301 -1.2392
 6929TIP3    H242347   2.483   2.890   1.978  0.5770  1.9669  1.5868
 6930TIP3   OH242348   3.569   5.042   5.954 -0.5600 -0.4129  0.2974
 6930TIP3    H142349   3.602   5.081   6.035 -0.8895  1.0728 -0.2513
 6930TIP3    H242350   3.644   4.994   5.919 -0.1053 -0.1935  0.9431
 6931TIP3   OH242351   0.158   6.658   6.746  0.3770  0.5899  0.2320
 6931TIP3    H142352   0.140   6.752   6.754  0.6637  0.5062  2.3983
 6931TIP3    H242353   0.207   6.650   6.664 -1.6860  1.9765 -1.2501
 6932TIP3   OH242354   5.256   4.813   0.078 -0.1522  0.5009  0.1120
 6932TIP3    H142355   5.262   4.717   0.076  2.1221  0.4367  2.8642
 6932TIP3    H242356   5.164   4.832   0.060 -0.6318 -2.1593 -0.7113
 6933TIP3   OH242357   1.880   6.932   1.267 -0.0484 -0.0654  0.9029
 6933TIP3    H142358   1.830   6.924   1.186 -0.9166 -0.5442  1.4759
 6933TIP3    H242359   1.872   6.846   1.309  0.9288 -0.0263  1.1950
 6934TIP3   OH242360   1.516   0.710   7.733  0.6049  0.0300 -0.1677
 6934TIP3    H142361   1.610   0.711   7.748  0.6791  1.0587 -0.6177
 6934TIP3    H242362   1.488   0.622   7.760  1.7592 -0.4542 -0.4911
 6935TIP3   OH242363   5.146   3.448   2.335  0.5652  0.8005 -0.5503
 6935TIP3    H142364   5.166   3.537   2.307  0.6646  0.5345 -1.3500
 6935TIP3    H242365   5.074   3.420   2.279 -0.0878  0.7024  0.3273
 6936TIP3   OH242366   0.501   3.564   1.143 -0.0592  0.5182 -0.6793
 6936TIP3    H142367   0.499   3.645   1.194 -1.1885 -1.1413  2.1340
 6936TIP3    H242368   0.566   3.509   1.188 -2.1349 -1.5532 -0.0193
 6937TIP3   OH242369   2.175   6.928   1.924  0.4803 -0.4834  0.5663
 6937TIP3    H142370   2.239   6.929   1.853  0.0972 -0.4405  0.2168
 6937TIP3    H242371   2.170   7.019   1.954  0.6657 -0.5072  0.6732
 6938TIP3   OH242372   0.054   4.329   0.604 -0.1373  0.4660  0.0119
 6938TIP3    H142373   0.120   4.397   0.590  1.2692 -0.9020 -0.1587
 6938TIP3    H242374  -0.007   4.368   0.667  0.4217  2.0071 -0.3563
 6939TIP3   OH242375   2.787   4.924   1.152 -0.2980  0.1489 -0.0485
 6939TIP3    H142376   2.819   4.971   1.229 -0.5247 -0.9867  0.7656
 6939TIP3    H242377   2.860   4.924   1.091 -0.8009  2.9513 -0.7764
 6940TIP3   OH242378   3.367   0.512   6.601  0.2168 -0.2794  0.0958
 6940TIP3    H142379   3.320   0.491   6.520 -1.7910  0.8151  0.9243
 6940TIP3    H242380   3.340   0.444   6.662  1.9568 -1.2755 -0.1589
 6941TIP3   OH242381   4.729   1.839   1.140  0.1179  0.3048  0.6583
 6941TIP3    H142382   4.696   1.921   1.176  1.2874  0.4904  1.3456
 6941TIP3    H242383   4.670   1.772   1.175  0.0344  0.7015  1.2836
 6942TIP3   OH242384   3.630   3.702   0.860 -0.7138 -0.0900  0.7153
 6942TIP3    H142385   3.688   3.776   0.842 -0.2783 -0.7426 -0.6740
 6942TIP3    H242386   3.610   3.665   0.774 -1.9334 -0.8303  1.2925
 6943TIP3   OH242387   6.257   2.748   7.753  0.1035 -0.0181 -0.1932
 6943TIP3    H142388   6.261   2.843   7.749 -0.4690  0.0283  0.1376
 6943TIP3    H242389   6.182   2.730   7.811  0.3546 -0.6617 -0.0590
 6944TIP3   OH242390   2.745   1.946   1.465 -0.3753 -0.0894 -0.4214
 6944TIP3    H142391   2.707   2.030   1.440 -0.4027 -0.1192 -0.4793
 6944TIP3    H242392   2.705   1.926   1.549 -0.7935 -0.3172 -0.6736
 6945TIP3   OH242393   5.222   1.830   7.285 -1.0426 -0.1593  0.4152
 6945TIP3    H142394   5.305   1.786   7.271 -0.6909  0.4191  0.6130
 6945TIP3    H242395   5.196   1.861   7.198  0.3198  2.0118  0.7032
 6946TIP3   OH242396   3.819   1.563   1.393  0.9194  0.8774  0.4444
 6946TIP3    H142397   3.782   1.512   1.466  1.4256  0.9830  0.7817
 6946TIP3    H242398   3.913   1.551   1.402  0.9456 -0.6676 -1.3319
 6947TIP3   OH242399   3.991   1.099   7.781  0.4805 -0.2127 -0.3791
 6947TIP3    H142400   3.962   1.150   7.706 -1.8182 -0.1085  0.5052
 6947TIP3    H242401   4.077   1.066   7.756 -0.2222 -0.2213 -3.0695
 6948TIP3   OH242402   1.734   6.021   0.040  0.3669  0.1571  0.6044
 6948TIP3    H142403   1.827   6.034   0.021  0.1208 -1.1510 -1.9763
 6948TIP3    H242404   1.731   5.953   0.107  1.2330  1.9033  2.5419
 6949TIP3   OH242405   0.617   3.260   6.645  0.2125 -0.7175 -0.0479
 6949TIP3    H142406   0.690   3.317   6.667 -0.9066  0.9278 -0.4397
 6949TIP3    H242407   0.547   3.319   6.617 -0.9167 -2.2906 -0.7414
 6950TIP3   OH242408   2.613   0.006   0.429 -0.3182  0.3710 -0.5552
 6950TIP3    H142409   2.539   0.064   0.412 -1.4858 -1.1170 -0.7669
 6950TIP3    H242410   2.591  -0.039   0.511 -0.7457 -1.6453 -1.6961
 6951TIP3   OH242411   4.023   2.299   6.155 -0.5973  0.1214  0.3128
 6951TIP3    H142412   3.976   2.339   6.082 -0.2104  0.4744  0.2543
 6951TIP3    H242413   4.008   2.358   6.228  0.5646  0.7654  0.0507
 6952TIP3   OH242414   5.166   3.959   0.201 -0.2894 -0.1327  0.3058
 6952TIP3    H142415   5.123   3.922   0.124  0.3481  1.0154 -0.6261
 6952TIP3    H242416   5.260   3.945   0.186 -0.1851 -0.6516  1.2949
 6953TIP3   OH242417   6.610   5.622   7.715  0.2840  0.3499 -0.3113
 6953TIP3    H142418   6.677   5.600   7.650 -0.7199 -0.7473 -1.0361
 6953TIP3    H242419   6.578   5.708   7.688  1.9263  1.2611  0.5266
 6954TIP3   OH242420   4.495   6.185   1.721 -0.0821  0.3521  0.3781
 6954TIP3    H142421   4.423   6.238   1.756  0.9494  1.6688  0.6325
 6954TIP3    H242422   4.480   6.183   1.627 -1.0624 -0.3547  0.5444
 6955TIP3   OH242423   6.901   7.122   7.295 -0.1689 -0.0991 -0.1871
 6955TIP3    H142424   6.930   7.175   7.369  0.7469 -1.1485  0.2350
 6955TIP3    H242425   6.973   7.130   7.231 -0.9885  0.8678 -1.0267
 6956TIP3   OH242426   3.685   6.056   0.491 -0.6825  0.0288 -0.5256
 6956TIP3    H142427   3.601   6.011   0.503 -0.8916 -0.0047 -1.9091
 6956TIP3    H242428   3.746   5.987   0.465 -0.0532 -0.0446  1.0508
 6957TIP3   OH242429   1.605   1.473   7.770 -0.0548 -0.5540 -0.2895
 6957TIP3    H142430   1.646   1.474   7.857  1.1429  1.9059 -0.8002
 6957TIP3    H242431   1.511   1.478   7.788  0.2050  0.6266  0.9050
 6958TIP3   OH242432   0.331   5.252   6.114 -0.1621 -0.3228  0.1370
 6958TIP3    H142433   0.314   5.314   6.044  1.3979  0.3927  0.3505
 6958TIP3    H242434   0.416   5.214   6.094 -1.7926 -3.8731 -0.9885
 6959TIP3   OH242435   1.804   4.452   1.065  0.0682 -0.3063 -0.4047
 6959TIP3    H142436   1.865   4.388   1.102  0.9874  1.8637  2.1689
 6959TIP3    H242437   1.849   4.487   0.989 -0.3998 -2.5358 -1.7809
 6960TIP3   OH242438   4.900   1.957   0.411 -0.2214 -0.4816  0.0913
 6960TIP3    H142439   4.842   1.922   0.343  0.2860  2.1817 -1.8745
 6960TIP3    H242440   4.847   2.024   0.455 -0.7474 -2.5579  2.8918
 6961TIP3   OH242441   3.363   5.070   6.277  0.1405  0.0059  0.1772
 6961TIP3    H142442   3.456   5.066   6.297  0.2614  1.9602  0.1403
 6961TIP3    H242443   3.358   5.054   6.183  0.4635  0.2203  0.1241
 6962TIP3   OH242444   0.332   4.711   2.290 -0.3358  0.0211 -0.8345
 6962TIP3    H142445   0.411   4.668   2.324  0.8277  2.7039  0.1790
 6962TIP3    H242446   0.336   4.697   2.195  1.1694 -0.1912 -0.7611
 6963TIP3   OH242447   2.147   6.815   1.618  0.1867 -0.7170 -0.0199
 6963TIP3    H142448   2.227   6.827   1.668  0.7642  1.3790 -1.3256
 6963TIP3    H242449   2.176   6.799   1.528 -0.7084  2.2383 -0.9812
 6964TIP3   OH242450   2.502   1.983   6.365 -0.3383  0.4619  0.2459
 6964TIP3    H142451   2.560   1.995   6.290  0.3497  0.8142  0.8215
 6964TIP3    H242452   2.506   1.889   6.384 -0.6649  0.3412 -0.2695
 6965TIP3   OH242453   4.235   5.139   5.805 -0.0844  0.4400 -0.0007
 6965TIP3    H142454   4.315   5.102   5.768  0.0907 -0.3523  1.1135
 6965TIP3    H242455   4.259   5.227   5.832  0.0663  0.6495 -0.8095
 6966TIP3   OH242456   6.285   4.449   0.598 -0.3554  0.3747  0.1599
 6966TIP3    H142457   6.347   4.523   0.593  1.4432 -1.0229  0.7151
 6966TIP3    H242458   6.259   4.447   0.690  0.1142 -0.0564  0.2894
 6967TIP3   OH242459   5.087   6.857   6.099  0.5130 -0.3143  0.4367
 6967TIP3    H142460   5.038   6.895   6.026  1.0874 -1.0277 -0.3509
 6967TIP3    H242461   5.176   6.845   6.064  0.5222 -1.6986  0.8681
 6968TIP3   OH242462   0.303   4.978   2.326 -0.0733 -0.5708  0.9712
 6968TIP3    H142463   0.318   4.884   2.333  1.5854 -0.3073  1.5546
 6968TIP3    H242464   0.334   5.001   2.239 -2.4862 -0.8506 -0.0305
 6969TIP3   OH242465   3.126   3.341   0.443 -0.3378 -0.0627 -0.0608
 6969TIP3    H142466   3.071   3.275   0.403  0.1905  0.1600 -1.1879
 6969TIP3    H242467   3.080   3.424   0.429 -0.8134 -0.1281  1.0119
 6970TIP3   OH242468   3.296   2.900   6.229  0.2186  0.2948 -0.5505
 6970TIP3    H142469   3.314   2.962   6.158 -0.7774  0.6287 -0.5197
 6970TIP3    H242470   3.363   2.832   6.218 -0.9368 -0.5775 -2.8738
 6971TIP3   OH242471   0.326   4.055   7.694 -0.9652  0.5057 -0.5926
 6971TIP3    H142472   0.251   4.114   7.695 -0.5001  1.1158 -0.8639
 6971TIP3    H242473   0.291   3.972   7.661 -2.5246 -0.6992  3.5283
 6972TIP3   OH242474   4.285   5.774   2.100 -0.3455  0.1165 -0.4772
 6972TIP3    H142475   4.198   5.762   2.138 -0.3902  1.1350 -0.2278
 6972TIP3    H242476   4.272   5.839   2.031 -0.2755 -1.7256 -2.3274
 6973TIP3   OH242477   5.462   5.304   0.542 -0.0079  0.3773 -0.2083
 6973TIP3    H142478   5.422   5.385   0.511 -0.7865  0.1774  0.2310
 6973TIP3    H242479   5.538   5.291   0.485 -0.3567  0.9697 -0.8281
 6974TIP3   OH242480   5.480   2.798   7.308  0.1500 -0.3067  0.6758
 6974TIP3    H142481   5.536   2.723   7.289  0.0099 -0.8154  2.1070
 6974TIP3    H242482   5.419   2.766   7.374 -1.4281  0.4361 -0.3873
 6975TIP3   OH242483   0.332   2.399   7.193 -0.2574  0.5232  0.6610
 6975TIP3    H142484   0.375   2.350   7.263  0.9913 -0.1132 -0.4995
 6975TIP3    H242485   0.267   2.338   7.158 -0.6123  0.7055  0.9851
 6976TIP3   OH242486   5.977   5.375   2.344 -0.7021 -0.0743 -0.3666
 6976TIP3    H142487   6.050   5.328   2.384  0.0812  0.6862 -0.8630
 6976TIP3    H242488   6.018   5.451   2.302 -1.6459 -0.1480 -1.4777
 6977TIP3   OH242489   1.368   7.146   7.754  0.3199 -0.2944  0.5115
 6977TIP3    H142490   1.408   7.177   7.673 -0.4813  0.0125  0.2141
 6977TIP3    H242491   1.406   7.060   7.769  0.1082 -0.5795 -0.4779
 6978TIP3   OH242492   0.480   6.924   1.424  0.4082 -0.3222 -0.3533
 6978TIP3    H142493   0.404   6.886   1.381  0.8832 -1.2502 -0.3793
 6978TIP3    H242494   0.490   7.010   1.383  1.0488 -1.2894 -2.3665
 6979TIP3   OH242495   1.049   1.569   7.547 -0.1161 -0.3137  0.3433
 6979TIP3    H142496   1.019   1.478   7.543  1.1201 -0.9591  3.0726
 6979TIP3    H242497   1.003   1.606   7.623  0.4847  0.8941  0.1468
 6980TIP3   OH242498   6.488   5.392   2.091 -0.0382 -0.2401  0.2696
 6980TIP3    H142499   6.552   5.400   2.162 -0.4675 -0.6116  0.7072
 6980TIP3    H242500   6.512   5.312   2.045  0.0938 -0.1291  0.1458
 6981TIP3   OH242501   2.440   3.562   6.270 -0.7740  0.4212  0.1128
 6981TIP3    H142502   2.527   3.525   6.258 -1.0409  0.3531 -1.8849
 6981TIP3    H242503   2.438   3.641   6.217 -1.7762  0.6930  0.5138
 6982TIP3   OH242504   1.938   5.361   7.821 -0.0082  0.1942 -0.0275
 6982TIP3    H142505   2.032   5.351   7.832 -0.0840 -0.3036  0.2233
 6982TIP3    H242506   1.925   5.454   7.804  0.6084  0.1348 -0.9164
 6983TIP3   OH242507   3.197   4.434   2.103 -0.1749  0.1892  0.6199
 6983TIP3    H142508   3.179   4.350   2.061 -0.2726 -0.0893  1.2101
 6983TIP3    H242509   3.280   4.421   2.149  0.0294  0.5511  0.3575
 6984TIP3   OH242510   1.747   6.660   1.291 -0.4478  0.5529 -0.1888
 6984TIP3    H142511   1.788   6.666   1.377  0.1422  1.8963 -0.5247
 6984TIP3    H242512   1.783   6.580   1.253 -2.5462 -1.3990  1.6765
 6985TIP3   OH242513   0.209   0.062   0.883 -0.0483 -0.0812 -0.3876
 6985TIP3    H142514   0.139   0.002   0.858 -0.3624 -0.0942  0.4856
 6985TIP3    H242515   0.259   0.076   0.803 -0.2930 -1.0777 -0.7274
 6986TIP3   OH242516   1.505   6.858   6.285 -0.3532  0.1936 -0.4808
 6986TIP3    H142517   1.466   6.776   6.317 -0.7366  0.2508 -0.7877
 6986TIP3    H242518   1.431   6.905   6.246  0.0861  0.1394 -1.4189
 6987TIP3   OH242519   0.572   1.309   6.546 -0.8370  0.3461  0.3594
 6987TIP3    H142520   0.621   1.354   6.614  0.3231  0.4884 -0.5417
 6987TIP3    H242521   0.542   1.379   6.488  0.6712  0.0239 -0.8510
 6988TIP3   OH242522   1.411   1.044   0.157 -0.3804 -0.4468 -0.3325
 6988TIP3    H142523   1.367   1.129   0.153 -0.0954 -0.3469 -1.6187
 6988TIP3    H242524   1.349   0.987   0.202  0.5883  1.1047  3.3650
 6989TIP3   OH242525   4.472   6.634   7.695 -0.2128  0.3697 -0.1837
 6989TIP3    H142526   4.486   6.665   7.606  2.0775  0.7115  0.2422
 6989TIP3    H242527   4.442   6.711   7.743 -0.1060  0.5289 -0.3730
 6990TIP3   OH242528   5.172   4.352   7.567 -0.4360  0.0868  0.2131
 6990TIP3    H142529   5.255   4.305   7.571  0.6745  2.0183  1.7363
 6990TIP3    H242530   5.130   4.335   7.651 -1.1613 -0.1375 -0.1884
 6991TIP3   OH242531   2.888   6.000   1.142  0.7912  0.4265 -0.3951
 6991TIP3    H142532   2.896   6.041   1.056 -1.0289 -0.9322 -1.2992
 6991TIP3    H242533   2.828   5.926   1.128  0.7192 -0.0610  1.9724
 6992TIP3   OH242534   6.745   1.990   1.940 -0.8654  0.8003  0.3391
 6992TIP3    H142535   6.794   1.919   1.980  0.3168  0.2149 -1.9499
 6992TIP3    H242536   6.657   1.954   1.925 -0.1071 -0.4636 -1.3601
 6993TIP3   OH242537   7.115   6.610   6.902 -0.3714 -0.0735  0.1114
 6993TIP3    H142538   7.059   6.563   6.840 -1.7286  0.5649  0.8114
 6993TIP3    H242539   7.197   6.622   6.855 -1.1287 -0.2166 -1.3075
 6994TIP3   OH242540   4.460   4.515   0.904  0.0565  1.0868  0.2182
 6994TIP3    H142541   4.428   4.426   0.891 -0.2638  1.0255  1.3381
 6994TIP3    H242542   4.549   4.504   0.939 -0.8751  1.0906  2.8515
 6995TIP3   OH242543   5.336   6.343   7.703  0.1812 -0.1135  0.5394
 6995TIP3    H142544   5.396   6.413   7.729  0.5714  0.0860 -0.8364
 6995TIP3    H242545   5.258   6.389   7.674 -0.2795 -0.3397  1.3696
 6996TIP3   OH242546   2.047   5.694   7.302 -0.1359  0.3726  1.0263
 6996TIP3    H142547   2.073   5.630   7.236 -2.2942 -0.2363  0.6851
 6996TIP3    H242548   1.999   5.644   7.367  1.4086  1.0809  2.7935
 6997TIP3   OH242549   6.094   2.590   1.505  0.5651  0.0661 -0.2650
 6997TIP3    H142550   6.057   2.544   1.581  0.8650  1.1006  0.5272
 6997TIP3    H242551   6.029   2.657   1.485  1.2118  0.7912  0.0531
 6998TIP3   OH242552   1.069   3.163   0.202 -0.6009  0.0549  0.0750
 6998TIP3    H142553   0.996   3.157   0.140 -1.2843 -1.0208  0.9436
 6998TIP3    H242554   1.143   3.126   0.154 -0.7321  0.7015 -0.6474
 6999TIP3   OH242555   4.164   7.061   1.128  0.0836 -0.0019 -0.0311
 6999TIP3    H142556   4.128   7.062   1.216  0.0529 -0.0424 -0.0430
 6999TIP3    H242557   4.254   7.029   1.140 -0.8961 -3.2961 -0.3462
 7000TIP3   OH242558   3.770   2.668   7.595 -0.3452  0.2495 -0.2954
 7000TIP3    H142559   3.829   2.700   7.663  2.3253 -0.5853 -2.0418
 7000TIP3    H242560   3.755   2.576   7.616  1.3435 -0.3012 -1.2814
 7001TIP3   OH242561   0.098   4.567   2.393 -0.1113 -0.0191  0.3351
 7001TIP3    H142562   0.175   4.622   2.385 -0.2878  0.2093  0.1884
 7001TIP3    H242563   0.033   4.607   2.334 -1.3600  1.5662  2.6127
 7002TIP3   OH242564   1.772   5.899   6.195  1.0374  0.0477  0.1528
 7002TIP3    H142565   1.686   5.899   6.153  0.7780 -0.5521  0.6651
 7002TIP3    H242566   1.779   5.986   6.236  1.0488  0.4173 -0.6167
 7003TIP3   OH242567   5.973   0.727   0.629  0.3863  0.3466 -0.4023
 7003TIP3    H142568   5.969   0.745   0.723 -0.8072  1.4963 -0.6298
 7003TIP3    H242569   6.059   0.687   0.615  0.7134  0.4645  1.1214
 7004TIP3   OH242570   6.409   3.897   1.347 -0.2168  0.4241 -0.1627
 7004TIP3    H142571   6.333   3.850   1.381 -0.5244  1.3531  0.4998
 7004TIP3    H242572   6.484   3.848   1.380 -0.5211 -0.4398 -0.7308
 7005TIP3   OH242573   2.338   1.259   7.675 -0.0636 -0.4448  0.2304
 7005TIP3    H142574   2.411   1.201   7.697  2.0418  2.6853  2.3736
 7005TIP3    H242575   2.287   1.265   7.756  1.5136  2.7931  1.1625
 7006TIP3   OH242576   2.919   4.176   1.675  0.4170 -0.2162  0.2001
 7006TIP3    H142577   2.883   4.201   1.590  0.8549  1.1758  0.4067
 7006TIP3    H242578   2.991   4.117   1.654  1.5692  1.3762 -0.5293
 7007TIP3   OH242579   4.170   0.096   5.517  1.0894  0.0492 -0.6236
 7007TIP3    H142580   4.237   0.095   5.585  0.6458 -0.6906 -0.1749
 7007TIP3    H242581   4.118   0.017   5.534 -0.1681  0.8347 -0.6862
 7008TIP3   OH242582   4.368   1.343   1.242  0.4160 -0.2849  0.4353
 7008TIP3    H142583   4.389   1.309   1.155 -1.7691 -1.0206  0.1389
 7008TIP3    H242584   4.361   1.264   1.297 -0.4433  0.0006  0.7466
 7009TIP3   OH242585   6.988   4.922   5.965 -0.4363 -0.2813  0.3401
 7009TIP3    H142586   6.948   4.986   6.024  1.4448  1.9488 -0.6646
 7009TIP3    H242587   7.011   4.972   5.887  2.4377 -1.8080  0.0807
 7010TIP3   OH242588   5.427   6.209   0.854  0.4455  0.0284  0.3476
 7010TIP3    H142589   5.452   6.235   0.942 -0.7525  0.7016  0.5211
 7010TIP3    H242590   5.509   6.187   0.811  0.9498 -1.6370  2.0319
 7011TIP3   OH242591   0.181   4.297   2.357 -0.2860  0.4206  0.7077
 7011TIP3    H142592   0.160   4.391   2.356  0.8619  0.6918  0.2249
 7011TIP3    H242593   0.098   4.254   2.377 -1.1814  1.4620 -0.5568
 7012TIP3   OH242594   0.274   5.679   0.410 -0.0891 -0.1317  0.5057
 7012TIP3    H142595   0.192   5.649   0.371 -0.4144  0.1366  0.9721
 7012TIP3    H242596   0.262   5.667   0.504  0.7264 -0.8601  0.5259
 7013TIP3   OH242597   1.546   3.713   6.485 -0.1165 -0.1001  0.4085
 7013TIP3    H142598   1.499   3.765   6.550 -0.1511  0.0645  0.2531
 7013TIP3    H242599   1.530   3.758   6.402 -0.5709 -0.6429  0.1923
 7014TIP3   OH242600   4.957   0.739   5.865  0.0637  0.2713 -0.5590
 7014TIP3    H142601   5.047   0.709   5.878  0.3087  1.3523  0.4358
 7014TIP3    H242602   4.964   0.807   5.798  0.3463  1.7929  0.9285
 7015TIP3   OH242603   4.731   6.278   1.279  0.3806  0.2612  0.1339
 7015TIP3    H142604   4.637   6.299   1.281  0.5880  1.2308  0.5510
 7015TIP3    H242605   4.759   6.288   1.370  0.9983  0.5515 -0.0858
 7016TIP3   OH242606   2.209   4.147   1.718  0.2179 -0.0905  0.0621
 7016TIP3    H142607   2.259   4.191   1.787 -2.0779 -0.2474  1.9211
 7016TIP3    H242608   2.178   4.066   1.757  0.6361 -1.2769 -1.8998
 7017TIP3   OH242609   0.499   6.782   0.845 -0.4458  0.4645 -0.1097
 7017TIP3    H142610   0.466   6.801   0.757 -1.0619  0.0121  0.0162
 7017TIP3    H242611   0.528   6.691   0.841  2.5276  1.3386 -0.7216
 7018TIP3   OH242612   4.263   0.641   7.597  0.3751  0.3203  0.0359
 7018TIP3    H142613   4.240   0.620   7.688  1.5767  0.2506  0.3494
 7018TIP3    H242614   4.344   0.692   7.604  0.7433 -0.0860 -1.0200
 7019TIP3   OH242615   0.767   4.319   6.683  0.3375 -0.1532  0.4451
 7019TIP3    H142616   0.799   4.274   6.604 -2.3745 -0.6043 -0.5004
 7019TIP3    H242617   0.783   4.258   6.754  0.2521 -0.9749 -0.2283
 7020TIP3   OH242618   6.247   4.377   1.202  0.1153  0.1190 -0.2480
 7020TIP3    H142619   6.272   4.292   1.240  0.5477  0.2807 -0.1700
 7020TIP3    H242620   6.328   4.428   1.201  0.0407  0.2450 -1.0568
 7021TIP3   OH242621   6.592   1.162   0.464  0.2570  0.1744  0.0850
 7021TIP3    H142622   6.559   1.108   0.391 -1.0609 -0.1935  0.9156
 7021TIP3    H242623   6.559   1.250   0.446 -0.9530 -0.1198  0.7241
 7022TIP3   OH242624   2.852   0.635   2.062  0.7162 -0.5982 -0.1452
 7022TIP3    H142625   2.944   0.622   2.085  0.7668  0.2092  0.1403
 7022TIP3    H242626   2.854   0.666   1.971  0.7197 -0.6923 -0.1771
 7023TIP3   OH242627   3.113   5.107   1.425  0.4465 -0.8666  0.3090
 7023TIP3    H142628   3.184   5.051   1.395  0.4199 -1.4956  1.3347
 7023TIP3    H242629   3.034   5.054   1.414 -0.1328  0.4147 -2.3530
 7024TIP3   OH242630   6.946   7.099   0.795  0.2450  0.3167  0.0008
 7024TIP3    H142631   6.892   7.117   0.719  0.6184 -0.7894 -0.5497
 7024TIP3    H242632   6.896   7.035   0.846  0.6020  0.0246 -0.0128
 7025TIP3   OH242633   1.675   1.186   7.541  0.0270  0.2628 -0.5706
 7025TIP3    H142634   1.614   1.251   7.505 -0.0418  0.9586  0.7412
 7025TIP3    H242635   1.622   1.138   7.606  0.3382 -0.4858 -0.8597
 7026TIP3   OH242636   1.984   1.529   7.814  0.3728 -0.2585 -0.9613
 7026TIP3    H142637   1.915   1.553   7.875 -0.6194  0.9055 -2.4912
 7026TIP3    H242638   1.947   1.457   7.763  0.9436 -0.7704 -0.6703
 7027TIP3   OH242639   0.283   1.034   7.940 -0.4155  0.5709 -0.3288
 7027TIP3    H142640   0.228   1.109   7.965 -0.7169 -0.4047  2.2507
 7027TIP3    H242641   0.351   1.032   8.007 -1.0868 -2.0997  0.3748
 7028TIP3   OH242642   3.627   6.836   5.770  0.3332 -0.0047 -0.4143
 7028TIP3    H142643   3.701   6.894   5.790  1.4329 -1.8611  1.1883
 7028TIP3    H242644   3.573   6.887   5.709  2.0945  2.0277 -0.3957
 7029TIP3   OH242645   6.146   2.099   0.320 -0.1442  0.2493 -0.2275
 7029TIP3    H142646   6.229   2.120   0.362 -0.5787  0.1470  0.7182
 7029TIP3    H242647   6.134   2.167   0.253 -0.2165  1.4098  0.9338
 7030TIP3   OH242648   3.048   0.354   7.996  0.0820  0.1950  0.6034
 7030TIP3    H142649   3.014   0.380   8.082  2.7085  0.2020  1.7773
 7030TIP3    H242650   3.127   0.304   8.017  1.5149  1.2550 -1.8381
 7031TIP3   OH242651   6.264   6.698   0.240 -0.2400 -0.0056  0.0825
 7031TIP3    H142652   6.332   6.640   0.275 -0.9438 -0.0627  1.4533
 7031TIP3    H242653   6.312   6.775   0.209  0.6183 -0.9030 -0.8828
 7032TIP3   OH242654   6.714   6.132   1.636  0.4509  0.3513 -0.2404
 7032TIP3    H142655   6.730   6.060   1.575 -0.8076 -0.0834 -0.0886
 7032TIP3    H242656   6.653   6.096   1.700  0.0147  1.4730 -0.0031
 7033TIP3   OH242657   3.772   4.873   7.140 -0.1713 -0.1413 -0.1909
 7033TIP3    H142658   3.722   4.931   7.082 -3.4861 -3.0940 -0.6231
 7033TIP3    H242659   3.755   4.906   7.228  0.2032  1.0138 -0.5257
 7034TIP3   OH242660   4.093   5.176   0.584  0.0083 -0.3511  0.2752
 7034TIP3    H142661   4.113   5.109   0.650 -1.3558  0.9622  2.1525
 7034TIP3    H242662   3.999   5.191   0.594  0.3002  1.9586  0.0586
 7035TIP3   OH242663   0.287   4.993   6.421  0.5458 -0.7176  0.2651
 7035TIP3    H142664   0.382   4.980   6.428  0.3605 -1.6107  1.6898
 7035TIP3    H242665   0.257   4.918   6.369  0.5399 -0.9294  0.5659
 7036TIP3   OH242666   0.812   5.688   6.908 -0.0090 -0.1703 -0.1155
 7036TIP3    H142667   0.718   5.708   6.911 -0.2523 -1.3560  0.8424
 7036TIP3    H242668   0.838   5.711   6.819 -0.9527  1.2227 -0.0594
 7037TIP3   OH242669   2.667   2.168   1.799  0.4913  0.0445  0.2174
 7037TIP3    H142670   2.687   2.162   1.893  0.2900  0.2679  0.2749
 7037TIP3    H242671   2.585   2.217   1.795 -0.5069 -1.5636  0.0343
 7038TIP3   OH242672   3.474   3.373   8.033 -0.0593  0.5213  0.1099
 7038TIP3    H142673   3.481   3.441   8.101  0.4452 -0.0142  0.6089
 7038TIP3    H242674   3.385   3.338   8.044 -0.0825  0.6363  0.3021
 7039TIP3   OH242675   4.106   2.504   7.166 -0.6446  0.3639  0.4812
 7039TIP3    H142676   4.160   2.573   7.204 -0.5806 -0.1907  1.4341
 7039TIP3    H242677   4.018   2.520   7.201 -0.5268 -0.3167  1.1244
 7040TIP3   OH242678   5.871   2.134   0.419  0.4399 -0.4969  0.1935
 7040TIP3    H142679   5.845   2.224   0.439 -0.9332 -1.1091  1.3306
 7040TIP3    H242680   5.967   2.136   0.419  0.4636  0.5415  2.3012
 7041TIP3   OH242681   5.813   5.710   0.310  0.2666  0.1552 -0.2822
 7041TIP3    H142682   5.868   5.632   0.299 -1.1429 -0.8385 -0.4570
 7041TIP3    H242683   5.725   5.681   0.288 -0.6516  1.2763  1.6452
 7042TIP3   OH242684   1.047   6.081   7.168 -0.0179 -0.2716  0.1175
 7042TIP3    H142685   0.968   6.031   7.149  0.0444 -0.5580  0.5946
 7042TIP3    H242686   1.099   6.075   7.087 -0.5085 -0.0276 -0.2159
 7043TIP3   OH242687   7.035   0.237   7.879 -0.3574  0.3754 -0.2770
 7043TIP3    H142688   7.033   0.321   7.925 -0.9289  0.3268 -0.2032
 7043TIP3    H242689   7.109   0.190   7.918 -0.9958  0.2221  0.8086
 7044TIP3   OH242690   1.496   5.538   7.392  0.3172  0.0579  0.9531
 7044TIP3    H142691   1.488   5.625   7.351  2.6080 -0.6356 -1.2527
 7044TIP3    H242692   1.469   5.477   7.324 -2.3202 -1.0593  2.8325
 7045TIP3   OH242693   6.131   0.738   0.263 -0.6568 -0.6399 -0.1726
 7045TIP3    H142694   6.036   0.724   0.265 -0.6350 -0.7601  0.1812
 7045TIP3    H242695   6.163   0.695   0.343 -0.3315 -0.4142 -0.1793
 7046TIP3   OH242696   6.980   0.852   0.194 -0.8700 -0.2401  0.5453
 7046TIP3    H142697   6.900   0.845   0.142  1.0794 -2.2557 -2.4597
 7046TIP3    H242698   7.020   0.934   0.166 -0.0765 -1.0760 -0.8797
 7047TIP3   OH242699   0.098   1.845   0.613  0.5067  0.0796 -0.3531
 7047TIP3    H142700   0.065   1.933   0.631 -0.7680 -0.5654  0.6189
 7047TIP3    H242701   0.021   1.789   0.618  1.3909 -1.1858 -0.3497
 7048TIP3   OH242702   4.273   6.156   2.287 -0.4830  0.3557  0.3323
 7048TIP3    H142703   4.293   6.168   2.194 -0.2769 -1.9094  0.0095
 7048TIP3    H242704   4.320   6.076   2.311  0.7438  1.7071  2.8255
 7049TIP3   OH242705   4.460   5.942   2.246 -0.1565  0.1419 -0.4494
 7049TIP3    H142706   4.497   5.938   2.158  0.8545  0.1775 -0.0325
 7049TIP3    H242707   4.396   5.870   2.248  0.4955 -0.4621 -0.9064
 7050TIP3   OH242708   4.286   5.403   0.397 -0.0063  0.0119  0.6571
 7050TIP3    H142709   4.246   5.490   0.392  0.5806  0.2097 -1.3725
 7050TIP3    H242710   4.329   5.402   0.483 -1.4580  1.0392  1.4565
 7051TIP3   OH242711   6.924   0.976   0.894  0.0636  0.4101  0.1745
 7051TIP3    H142712   7.009   0.933   0.899 -0.6263 -0.9824  0.4001
 7051TIP3    H242713   6.935   1.057   0.944  0.6861 -0.7326  1.9753
 7052TIP3   OH242714   3.264   6.192   7.742  0.0752  0.0828 -0.3571
 7052TIP3    H142715   3.237   6.281   7.718  0.8562  0.2072 -0.8059
 7052TIP3    H242716   3.213   6.173   7.821 -0.4524  0.7441 -0.5201
 7053TIP3   OH242717   0.894   2.937   1.867  0.2157  0.1617  0.0110
 7053TIP3    H142718   0.850   2.874   1.923  0.3379  0.8437  0.8926
 7053TIP3    H242719   0.949   2.988   1.926 -0.8251  1.9337 -0.4621
 7054TIP3   OH242720   1.117   6.151   0.813 -0.1712  0.1193 -0.3325
 7054TIP3    H142721   1.066   6.130   0.891  0.9393  2.0746  1.0087
 7054TIP3    H242722   1.063   6.214   0.765 -1.3585 -1.9284 -1.8158
 7055TIP3   OH242723   1.476   4.726   0.999  0.0394  0.0733 -0.6416
 7055TIP3    H142724   1.425   4.655   1.037 -0.7336  1.1684  0.4579
 7055TIP3    H242725   1.441   4.806   1.040  1.1251  1.0601 -1.5434
 7056TIP3   OH242726   0.096   0.379   1.756  0.4137 -0.6649  0.4553
 7056TIP3    H142727   0.154   0.455   1.750  0.2658 -0.4945  1.0777
 7056TIP3    H242728   0.155   0.303   1.748  0.5428 -0.4892 -0.3061
 7057TIP3   OH242729   2.522   4.309   7.078  0.1211  0.2126 -0.3238
 7057TIP3    H142730   2.592   4.247   7.096  0.3755  0.5788 -0.0394
 7057TIP3    H242731   2.505   4.300   6.984 -1.0649 -1.5496  0.0132
 7058TIP3   OH242732   5.491   0.664   6.009 -0.2037 -0.5940  0.6796
 7058TIP3    H142733   5.584   0.660   6.030  0.2410  0.3283 -0.9423
 7058TIP3    H242734   5.453   0.718   6.078  0.4323 -0.9997  1.3685
 7059TIP3   OH242735   2.106   6.690   7.700  0.2169  0.1225 -0.0622
 7059TIP3    H142736   2.172   6.754   7.676 -0.3720  0.6393 -0.3478
 7059TIP3    H242737   2.071   6.659   7.616 -0.4145  0.4005  0.0930
 7060TIP3   OH242738   5.889   0.708   6.443  0.2026 -0.0686 -0.3165
 7060TIP3    H142739   5.915   0.774   6.378 -0.7003 -0.1348 -0.7564
 7060TIP3    H242740   5.800   0.684   6.418 -0.1687 -0.0862  0.9568
 7061TIP3   OH242741   4.290   3.061   0.676  0.5081 -0.4506 -0.2076
 7061TIP3    H142742   4.216   3.035   0.731  2.3773 -2.3435  1.5749
 7061TIP3    H242743   4.295   3.156   0.685 -0.8465 -0.4473  0.7286
 7062TIP3   OH242744   1.562   1.556   7.025 -0.4653  0.2142  0.9230
 7062TIP3    H142745   1.610   1.575   7.106 -0.4682  0.5972  0.8352
 7062TIP3    H242746   1.526   1.641   6.998 -0.5628  0.0646  0.5837
 7063TIP3   OH242747   3.617   5.134   7.064  0.5352 -0.3569 -0.7599
 7063TIP3    H142748   3.599   5.103   7.153  1.0913 -0.0011 -0.5096
 7063TIP3    H242749   3.700   5.182   7.073  0.0723  0.5596 -1.2693
 7064TIP3   OH242750   0.298   4.213   1.718 -0.0082  0.4840  0.3015
 7064TIP3    H142751   0.229   4.173   1.770  1.2002 -0.7546  1.0329
 7064TIP3    H242752   0.379   4.174   1.752  1.0390  1.7049 -0.6713
 7065TIP3   OH242753   0.370   5.952   2.146 -0.1802  0.1865 -0.2517
 7065TIP3    H142754   0.419   5.958   2.064 -3.4424  0.9514 -2.3115
 7065TIP3    H242755   0.354   5.858   2.157  1.3249 -0.0404  0.2600
 7066TIP3   OH242756   6.797   5.854   7.512  0.1890  0.3125 -0.1558
 7066TIP3    H142757   6.739   5.875   7.585  0.9419  0.6802  0.3593
 7066TIP3    H242758   6.741   5.854   7.435 -0.2980  1.8289  0.1597
 7067TIP3   OH242759   3.222   2.109   7.708 -0.1946  0.1146 -0.5615
 7067TIP3    H142760   3.245   2.193   7.749 -1.3776 -0.5390  1.6516
 7067TIP3    H242761   3.301   2.056   7.714 -0.2745  0.1129  0.7757
 7068TIP3   OH242762   0.182   5.901   2.431  0.5868 -0.3877 -0.6423
 7068TIP3    H142763   0.273   5.881   2.406  0.8472  0.0328 -0.0474
 7068TIP3    H242764   0.136   5.818   2.423  0.9771 -0.5639 -1.1417
 7069TIP3   OH242765   1.950   0.982   1.768  0.2066  0.4729 -0.1738
 7069TIP3    H142766   1.979   1.064   1.729  1.5060 -0.3350 -0.9696
 7069TIP3    H242767   1.881   1.007   1.829  0.0236  2.0605 -1.0027
 7070TIP3   OH242768   2.606   6.102   1.827  0.4830 -0.0109 -0.8859
 7070TIP3    H142769   2.596   6.167   1.896  1.7937 -0.9695  0.2556
 7070TIP3    H242770   2.555   6.027   1.858  0.0822 -0.0241 -1.5574
 7071TIP3   OH242771   1.575   0.706   7.046 -0.0584  0.4072  0.4976
 7071TIP3    H142772   1.595   0.796   7.075 -0.8008  0.5913  0.4538
 7071TIP3    H242773   1.505   0.678   7.105  1.0228 -0.6203  1.3486
 7072TIP3   OH242774   4.815   1.389   0.471  0.0809 -0.2394 -0.1120
 7072TIP3    H142775   4.814   1.471   0.521 -3.0052 -1.4151  2.0836
 7072TIP3    H242776   4.895   1.344   0.499 -1.1455 -0.5154  3.4528
 7073TIP3   OH242777   6.645   0.459   6.927 -0.1310  0.4964 -0.1608
 7073TIP3    H142778   6.585   0.384   6.927  1.8991 -1.2614  1.9432
 7073TIP3    H242779   6.608   0.518   6.993 -0.8919  0.6742 -0.7210
 7074TIP3   OH242780   2.712   1.563   1.000  0.1886  0.1536 -0.3312
 7074TIP3    H142781   2.706   1.657   0.985  1.3735 -0.1194 -3.0931
 7074TIP3    H242782   2.804   1.548   1.021 -0.4659 -0.1638  2.6959
 7075TIP3   OH242783   3.135   7.113   7.163 -0.3929 -0.1481  0.0492
 7075TIP3    H142784   3.126   7.158   7.079  0.1326 -0.0789  0.0267
 7075TIP3    H242785   3.047   7.079   7.182 -0.8847  1.1856  0.2383
 7076TIP3   OH242786   3.080   1.255   0.647 -0.1531  0.2296  0.1705
 7076TIP3    H142787   3.106   1.314   0.577  1.3409 -0.9400 -0.3334
 7076TIP3    H242788   2.994   1.286   0.675 -1.1550  0.3166 -2.6645
 7077TIP3   OH242789   3.333   2.472   6.223  0.0803 -0.0829  0.5081
 7077TIP3    H142790   3.357   2.406   6.157  0.3425  1.0947 -0.6263
 7077TIP3    H242791   3.385   2.549   6.199  0.0158  0.4446  1.9921
 7078TIP3   OH242792   3.699   2.233   0.212 -0.4889 -0.1410 -0.6854
 7078TIP3    H142793   3.655   2.296   0.269 -0.0769  0.3865 -0.9423
 7078TIP3    H242794   3.648   2.235   0.130 -0.1178  0.3199 -0.9110
   7.16605   7.16605   8.03597
