Title
42794
    1SAPS     N    1   4.208   4.263   6.371  0.0254  0.6050 -0.1126
    1SAPS   HN1    2   4.133   4.332   6.393 -0.4029  0.1453 -0.1127
    1SAPS   HN2    3   4.287   4.292   6.431  0.2063 -0.6857  0.3020
    1SAPS   HN3    4   4.246   4.282   6.276 -0.3517  1.7931 -0.0380
    1SAPS   C12    5   4.156   4.128   6.393 -0.2641  0.0944 -0.2142
    1SAPS  H12A    6   4.086   4.109   6.313  0.8259 -3.9795 -0.3942
    1SAPS   C13    7   4.265   4.013   6.389 -0.0887  0.5691  0.3648
    1SAPS  O13A    8   4.390   4.037   6.384 -0.2815 -1.0065 -0.3854
    1SAPS  O13B    9   4.218   3.901   6.412 -0.5366  0.1592  0.0170
    1SAPS   C11   10   4.078   4.113   6.533 -0.5399 -0.0367  0.4134
    1SAPS  H11A   11   4.156   4.091   6.609  0.6219 -2.0880 -1.2785
    1SAPS  H11B   12   4.020   4.020   6.515  1.5429 -1.0699 -1.3580
    1SAPS     P   13   3.839   4.241   6.553 -0.2490 -0.0127 -0.1804
    1SAPS   O13   14   3.787   4.172   6.675 -0.3299  1.1024 -0.3637
    1SAPS   O14   15   3.807   4.383   6.538  1.0133 -0.1409 -0.1438
    1SAPS   O12   16   3.991   4.228   6.562 -0.8019 -0.2150  0.2922
    1SAPS   O11   17   3.812   4.163   6.418 -0.3649  0.5494  0.1278
    1SAPS    C1   18   3.800   4.245   6.301  0.1367 -0.4595  0.0702
    1SAPS    HA   19   3.706   4.305   6.295 -0.0139 -0.6924  0.0719
    1SAPS    HB   20   3.886   4.314   6.290 -0.7307  0.4391 -1.4230
    1SAPS    C2   21   3.806   4.146   6.176  0.8558 -0.1931  0.6733
    1SAPS    HS   22   3.900   4.087   6.186  0.0698 -2.2428 -2.5244
    1SAPS   O21   23   3.824   4.222   6.052  0.5651 -0.1744  0.0315
    1SAPS   C21   24   3.934   4.287   6.023  0.0410 -0.3315  0.1845
    1SAPS   O22   25   4.037   4.281   6.093  0.2064 -0.2227 -0.3412
    1SAPS   C22   26   3.926   4.364   5.898  0.4737  0.6805  0.1002
    1SAPS   H2R   27   3.922   4.286   5.818  0.6198 -1.1138  1.7776
    1SAPS   H2S   28   3.829   4.417   5.885 -0.7871 -1.9763 -2.9730
    1SAPS    C3   29   3.687   4.047   6.159 -0.2029 -0.2451 -0.0968
    1SAPS    HX   30   3.596   4.111   6.158 -2.2663 -2.9906  0.2310
    1SAPS    HY   31   3.666   3.985   6.249 -1.4499  1.2832  0.7074
    1SAPS   O31   32   3.702   3.961   6.044  0.4724  0.2568 -0.5235
    1SAPS   C31   33   3.588   3.946   5.967 -0.0734 -1.1897 -0.4678
    1SAPS   O32   34   3.480   4.003   5.989  0.5637  0.3941 -0.3209
    1SAPS   C32   35   3.619   3.850   5.855  0.1471  0.1160  0.5857
    1SAPS   H2X   36   3.526   3.795   5.830  0.4790 -1.0270  1.7166
    1SAPS   H2Y   37   3.691   3.775   5.894  0.4358 -0.0490 -0.2535
    1SAPS   C23   38   4.055   4.443   5.864  0.4347 -0.6991 -0.1253
    1SAPS   H3R   39   4.129   4.373   5.819  0.9477 -0.2160 -0.0410
    1SAPS   H3S   40   4.093   4.489   5.958  3.1844 -2.0476 -0.4720
    1SAPS   C24   41   4.024   4.556   5.770  0.3144 -0.5918  0.4324
    1SAPS   H4R   42   4.125   4.587   5.734  1.0608 -0.9715  2.0863
    1SAPS   H4S   43   3.971   4.634   5.829 -1.0568 -0.6467 -0.6940
    1SAPS   C25   44   3.943   4.522   5.650 -0.2429 -0.0303  0.5320
    1SAPS   H5R   45   3.837   4.507   5.674 -0.7395  1.2492 -0.7237
    1SAPS   C26   46   3.982   4.498   5.521  0.2906  0.4934 -0.5347
    1SAPS   H6R   47   3.908   4.455   5.451 -1.1037  1.5377  0.2296
    1SAPS   C27   48   4.125   4.500   5.468  0.5857  0.0886  0.7125
    1SAPS   H7R   49   4.177   4.582   5.523 -3.3704  2.8064  0.7704
    1SAPS   H7S   50   4.124   4.532   5.361  3.1161  0.9143  0.8437
    1SAPS   C28   51   4.201   4.373   5.479  0.5277  0.4479 -0.2943
    1SAPS   H8R   52   4.257   4.368   5.574 -1.1088  0.7285  0.7302
    1SAPS   C29   53   4.216   4.278   5.385  0.2053  0.0022  0.4277
    1SAPS   H9R   54   4.298   4.205   5.398 -0.0767 -0.3072  0.4739
    1SAPS  C210   55   4.166   4.281   5.243  0.1173 -1.2171  0.4130
    1SAPS  H10R   56   4.122   4.380   5.220  0.5544 -1.1395 -0.0968
    1SAPS  H10S   57   4.095   4.196   5.241  0.5001 -1.5318  0.1347
    1SAPS  C211   58   4.282   4.254   5.151  0.0430 -0.5335 -0.3981
    1SAPS  H11R   59   4.333   4.161   5.178 -2.4386 -1.2532  2.3627
    1SAPS  C212   60   4.333   4.334   5.053 -0.0249 -0.0290 -0.1522
    1SAPS  H12R   61   4.412   4.298   4.986  0.9065  3.5035 -1.1593
    1SAPS  C213   62   4.279   4.470   5.009 -0.0580  0.2233 -0.7488
    1SAPS  H13R   63   4.368   4.535   4.990 -0.9678  1.1198 -2.1359
    1SAPS  H13S   64   4.230   4.519   5.095 -0.3361 -1.5487  0.1464
    1SAPS  C214   65   4.175   4.466   4.901 -0.8566 -0.2620 -0.5280
    1SAPS  H14R   66   4.075   4.473   4.947  0.6643  0.6558  2.9646
    1SAPS  C215   67   4.199   4.453   4.768 -0.0530  0.2098  0.8698
    1SAPS  H15R   68   4.114   4.464   4.699 -1.7649 -0.2388  2.8010
    1SAPS  C216   69   4.335   4.439   4.705  0.1566  0.0555 -0.0582
    1SAPS  H16R   70   4.396   4.361   4.754  1.4219  1.5535  0.8714
    1SAPS  H16S   71   4.381   4.539   4.723  0.1872  0.0835 -0.2883
    1SAPS  C217   72   4.338   4.406   4.552 -0.6909 -0.2242  0.2446
    1SAPS  H17R   73   4.284   4.485   4.496  0.9745  0.4502 -0.4806
    1SAPS  H17S   74   4.283   4.312   4.529 -0.5604 -0.7067  1.7696
    1SAPS  C218   75   4.478   4.401   4.489  1.0323 -0.0155 -0.7955
    1SAPS  H18R   76   4.526   4.501   4.494  0.6325  0.1425  2.5742
    1SAPS  H18S   77   4.454   4.374   4.384 -1.8348 -4.2220  0.6328
    1SAPS  C219   78   4.569   4.292   4.557  0.2161 -0.2671  0.4346
    1SAPS  H19R   79   4.520   4.193   4.544 -0.0025  0.0359 -1.1711
    1SAPS  H19S   80   4.575   4.304   4.668  0.3684 -0.6965  0.4733
    1SAPS  C220   81   4.708   4.287   4.496  0.1831  0.0761  1.3640
    1SAPS  H20R   82   4.707   4.230   4.400 -1.8314  2.6415 -0.2766
    1SAPS  H20S   83   4.777   4.242   4.570  1.8303  1.4922  0.7471
    1SAPS  H20T   84   4.748   4.390   4.486 -2.1442  0.9715  0.4855
    1SAPS   C33   85   3.670   3.923   5.726 -0.1285 -0.3956  0.8297
    1SAPS   H3X   86   3.669   3.855   5.638  1.7978 -0.3688  0.7516
    1SAPS   H3Y   87   3.775   3.956   5.737 -0.2077  0.1540  0.0229
    1SAPS   C34   88   3.593   4.043   5.680 -0.1948  0.0934  0.4428
    1SAPS   H4X   89   3.606   4.131   5.746 -1.9893  0.0109  0.9859
    1SAPS   H4Y   90   3.484   4.022   5.673 -0.2047 -0.3181  1.6321
    1SAPS   C35   91   3.632   4.082   5.535 -1.0979 -0.2208 -0.4803
    1SAPS   H5X   92   3.583   4.175   5.499  0.4173 -0.2622 -2.8632
    1SAPS   H5Y   93   3.578   4.013   5.467  0.2701 -0.9009 -0.9159
    1SAPS   C36   94   3.782   4.085   5.492 -0.2972  0.4587  0.0623
    1SAPS   H6X   95   3.808   3.977   5.491  0.8840  0.7118  1.0198
    1SAPS   H6Y   96   3.839   4.140   5.570 -0.6288 -0.8273  1.2610
    1SAPS   C37   97   3.792   4.145   5.354 -0.1527  0.0090  0.2577
    1SAPS   H7X   98   3.901   4.152   5.333 -0.0646 -1.5924  0.0199
    1SAPS   H7Y   99   3.747   4.246   5.341  0.1606  0.2632  1.0721
    1SAPS   C38  100   3.731   4.046   5.255 -0.4628  0.8958  0.4462
    1SAPS   H8X  101   3.622   4.034   5.272 -0.3085 -0.0791  0.8166
    1SAPS   H8Y  102   3.776   3.945   5.268 -2.1646  0.1127  0.5207
    1SAPS   C39  103   3.761   4.077   5.104  0.2039 -0.8977  0.1715
    1SAPS   H9X  104   3.747   4.185   5.086  1.6052 -0.8017 -0.5025
    1SAPS   H9Y  105   3.692   4.015   5.042 -3.1665  2.9723 -0.3667
    1SAPS  C310  106   3.906   4.054   5.064 -0.2456 -0.3047 -0.1970
    1SAPS  H10X  107   3.910   3.949   5.030  0.5477 -0.4071  0.1891
    1SAPS  H10Y  108   3.980   4.060   5.148  0.5150  0.6220 -0.9120
    1SAPS  C311  109   3.958   4.140   4.947 -0.0846  0.4191  0.0811
    1SAPS  H11X  110   4.063   4.109   4.928 -0.3531 -2.9977  3.0239
    1SAPS  H11Y  111   3.954   4.245   4.984 -1.1543 -0.8291  4.0115
    1SAPS  C312  112   3.873   4.129   4.817  0.6816  0.0109  0.0881
    1SAPS  H12X  113   3.779   4.186   4.832  1.3591  0.9932  0.7090
    1SAPS  H12Y  114   3.850   4.029   4.774  2.3834 -0.2092 -0.3521
    1SAPS  C313  115   3.926   4.210   4.695 -0.1660 -0.1942 -0.3470
    1SAPS  H13X  116   4.032   4.185   4.674  0.1025  2.2538 -2.4344
    1SAPS  H13Y  117   3.920   4.319   4.714  2.2392  0.3156 -1.9477
    1SAPS  C314  118   3.839   4.184   4.573 -0.5643  0.0071  0.1381
    1SAPS  H14X  119   3.735   4.217   4.594  0.0038  2.0763 -0.0524
    1SAPS  H14Y  120   3.827   4.076   4.551 -0.7714  0.3174 -1.3996
    1SAPS  C315  121   3.888   4.247   4.433  0.3730  0.0325 -0.6002
    1SAPS  H15X  122   3.808   4.228   4.358 -0.8678  0.0440  0.6809
    1SAPS  H15Y  123   3.979   4.188   4.408 -1.0549 -2.2555 -0.7124
    1SAPS  C316  124   3.924   4.399   4.445 -0.1030 -0.9294 -0.0161
    1SAPS  H16X  125   3.996   4.414   4.528  3.9226  1.7287 -3.5465
    1SAPS  H16Y  126   3.831   4.457   4.465 -0.3658 -1.6854  1.0395
    1SAPS  C317  127   3.985   4.456   4.316  0.0202  0.0377 -0.8299
    1SAPS  H17X  128   3.923   4.430   4.228 -1.6427  0.8831  0.0614
    1SAPS  H17Y  129   4.088   4.413   4.315  0.2928  0.6726 -0.8318
    1SAPS  C318  130   3.992   4.618   4.317 -0.0515  0.4711  0.2107
    1SAPS  H18X  131   4.036   4.660   4.224  0.6872  2.7606  1.5148
    1SAPS  H18Y  132   4.059   4.657   4.396  0.8078  0.2084 -0.3699
    1SAPS  H18Z  133   3.887   4.650   4.329 -0.0127  1.3858 -1.5976
    2SAPS     N  134   3.757   6.514   6.559  0.3603 -0.2941  0.3229
    2SAPS   HN1  135   3.656   6.489   6.569  0.3398  0.1918  1.4986
    2SAPS   HN2  136   3.774   6.594   6.624 -0.1058 -0.4513  0.6498
    2SAPS   HN3  137   3.776   6.536   6.459 -0.5007 -1.6899 -0.1700
    2SAPS   C12  138   3.831   6.391   6.609 -0.7288  0.0107 -0.0670
    2SAPS  H12A  139   3.934   6.421   6.619  0.0667 -2.1541 -1.2808
    2SAPS   C13  140   3.776   6.327   6.741 -0.0587  0.2265 -0.4769
    2SAPS  O13A  141   3.675   6.393   6.789 -0.8344  0.7519  0.4001
    2SAPS  O13B  142   3.819   6.221   6.788 -0.1711 -0.1830 -0.2618
    2SAPS   C11  143   3.833   6.286   6.490  0.9773  0.1447  0.7133
    2SAPS  H11A  144   3.737   6.292   6.436  1.3638 -1.6679 -0.2673
    2SAPS  H11B  145   3.841   6.180   6.523  0.7469  0.4364  1.7400
    2SAPS     P  146   4.076   6.256   6.414 -0.2877  0.0813 -0.2787
    2SAPS   O13  147   4.132   6.270   6.552  0.1350 -0.8998 -0.1505
    2SAPS   O14  148   4.064   6.118   6.366 -0.3384 -0.6488 -0.6132
    2SAPS   O12  149   3.938   6.331   6.404  0.0823  0.0655 -0.3262
    2SAPS   O11  150   4.158   6.337   6.315  0.1212 -0.0679  0.2021
    2SAPS    C1  151   4.097   6.370   6.185 -0.2438 -0.0539 -0.6599
    2SAPS    HA  152   4.059   6.279   6.134  0.4494 -1.1395  0.6638
    2SAPS    HB  153   4.016   6.444   6.199 -0.7500 -1.0629  2.5593
    2SAPS    C2  154   4.208   6.413   6.086  0.1591 -0.2100  0.1339
    2SAPS    HS  155   4.297   6.347   6.100 -1.3132 -2.1222  1.0033
    2SAPS   O21  156   4.226   6.560   6.103 -0.0301 -0.0434 -0.2602
    2SAPS   C21  157   4.356   6.598   6.076  0.4388 -0.3465 -0.1961
    2SAPS   O22  158   4.454   6.532   6.082 -0.2187 -0.3923  0.7717
    2SAPS   C22  159   4.352   6.744   6.028 -0.2788 -1.0506  0.2436
    2SAPS   H2R  160   4.297   6.740   5.931 -1.2500  1.5306  0.5957
    2SAPS   H2S  161   4.298   6.802   6.106 -0.9152  2.2394 -2.4192
    2SAPS    C3  162   4.151   6.391   5.941  0.2927 -0.3437  0.2038
    2SAPS    HX  163   4.055   6.443   5.961  2.4414  3.5771  1.2945
    2SAPS    HY  164   4.130   6.285   5.916 -0.5659 -0.0980 -0.1436
    2SAPS   O31  165   4.226   6.460   5.840  0.6306 -0.0934 -0.6441
    2SAPS   C31  166   4.339   6.402   5.815  0.2175 -0.4819 -0.3204
    2SAPS   O32  167   4.366   6.285   5.833 -0.3867 -0.6986  0.1090
    2SAPS   C32  168   4.438   6.506   5.763 -0.1995 -0.4109 -0.3160
    2SAPS   H2X  169   4.540   6.483   5.800 -0.6932  1.1470  2.2419
    2SAPS   H2Y  170   4.408   6.606   5.802 -1.0393 -1.6015  2.3203
    2SAPS   C23  171   4.500   6.803   6.007  0.6322 -0.3765 -0.5930
    2SAPS   H3R  172   4.556   6.727   5.948  0.0151  0.2850 -2.0880
    2SAPS   H3S  173   4.550   6.816   6.105  1.1325  0.1337 -0.9128
    2SAPS   C24  174   4.494   6.926   5.919 -0.1403  0.1530  0.3301
    2SAPS   H4R  175   4.443   7.011   5.968  0.2164 -0.0027  0.9938
    2SAPS   H4S  176   4.437   6.901   5.827 -0.8758 -2.1120  1.3328
    2SAPS   C25  177   4.633   6.961   5.877 -0.4731 -0.5075 -0.5181
    2SAPS   H5R  178   4.702   6.950   5.962  0.2635 -3.2081 -1.3738
    2SAPS   C26  179   4.678   7.016   5.758 -0.2554  0.5514 -0.7447
    2SAPS   H6R  180   4.784   7.036   5.736  0.6390 -2.9294 -0.2762
    2SAPS   C27  181   4.592   7.048   5.638  0.1844  0.2274 -0.2567
    2SAPS   H7R  182   4.488   7.069   5.670  0.1159  0.4725 -0.6265
    2SAPS   H7S  183   4.602   6.964   5.566 -3.0556 -0.8768  0.4297
    2SAPS   C28  184   4.644   7.170   5.569  0.1346 -0.7341 -0.6704
    2SAPS   H8R  185   4.694   7.245   5.632 -0.3822  0.4982 -1.6804
    2SAPS   C29  186   4.611   7.217   5.444 -0.1489  0.2049 -0.4891
    2SAPS   H9R  187   4.672   7.295   5.397  1.1260 -0.0182  0.7007
    2SAPS  C210  188   4.512   7.162   5.353 -0.6441  0.1927 -0.2380
    2SAPS  H10R  189   4.450   7.093   5.414  0.1115  0.5665  1.0011
    2SAPS  H10S  190   4.568   7.118   5.267  0.7303 -0.3320  0.8736
    2SAPS  C211  191   4.418   7.266   5.301 -0.5795 -0.8323 -0.6494
    2SAPS  H11R  192   4.389   7.343   5.375  3.2885 -0.5335  0.8147
    2SAPS  C212  193   4.383   7.295   5.175 -0.3857 -0.2953 -0.0466
    2SAPS  H12R  194   4.304   7.368   5.153 -1.0650 -1.2216 -0.7371
    2SAPS  C213  195   4.423   7.215   5.051  0.7839  0.0951 -0.1835
    2SAPS  H13R  196   4.342   7.218   4.974 -0.1927  0.1793  0.8113
    2SAPS  H13S  197   4.421   7.107   5.076 -0.4109  0.3298  0.8532
    2SAPS  C214  198   4.546   7.254   4.979 -0.4876 -0.5181  0.3436
    2SAPS  H14R  199   4.617   7.311   5.039  2.6467 -1.6113 -2.0344
    2SAPS  C215  200   4.584   7.242   4.852 -0.0865 -0.0934  0.4233
    2SAPS  H15R  201   4.675   7.291   4.814 -1.4404  1.8407 -0.5167
    2SAPS  C216  202   4.501   7.169   4.747  1.0251 -0.3474  0.0393
    2SAPS  H16R  203   4.440   7.095   4.804 -0.9817  0.7600 -0.5679
    2SAPS  H16S  204   4.574   7.118   4.681  1.7046 -0.3763  0.7995
    2SAPS  C217  205   4.422   7.254   4.644  0.1252 -0.6074 -0.5567
    2SAPS  H17R  206   4.376   7.185   4.570 -0.7729  0.5109 -1.0740
    2SAPS  H17S  207   4.503   7.317   4.600  0.8111 -0.8411  0.3400
    2SAPS  C218  208   4.307   7.336   4.712  0.1780  0.0036 -0.3547
    2SAPS  H18R  209   4.348   7.406   4.788  0.8501 -0.9310  0.1715
    2SAPS  H18S  210   4.248   7.261   4.769 -0.1721  0.5949  0.0704
    2SAPS  C219  211   4.216   7.401   4.601 -0.0349  0.4470 -0.2142
    2SAPS  H19R  212   4.138   7.457   4.655 -0.3409  1.0009 -1.2030
    2SAPS  H19S  213   4.160   7.326   4.542  0.6180  0.2493 -0.6019
    2SAPS  C220  214   4.302   7.487   4.506  0.1415  0.6121  0.3151
    2SAPS  H20R  215   4.227   7.539   4.443  0.2294  0.6181  0.2153
    2SAPS  H20S  216   4.368   7.426   4.440 -1.4509 -0.2002 -0.5925
    2SAPS  H20T  217   4.356   7.568   4.559 -0.2398  1.5048 -0.6181
    2SAPS   C33  218   4.447   6.517   5.607  0.3374  0.1843 -0.3778
    2SAPS   H3X  219   4.432   6.413   5.570 -0.2606  0.2868 -0.4296
    2SAPS   H3Y  220   4.547   6.551   5.574  1.1448  0.2100  1.8800
    2SAPS   C34  221   4.342   6.609   5.544  0.2663 -0.8142  0.6010
    2SAPS   H4X  222   4.381   6.713   5.546  2.7483 -1.6873  0.5870
    2SAPS   H4Y  223   4.248   6.620   5.602  0.1939  1.9093  0.0880
    2SAPS   C35  224   4.301   6.584   5.399  0.3895  0.8147  0.1210
    2SAPS   H5X  225   4.270   6.477   5.397  0.3924  0.7142  2.6695
    2SAPS   H5Y  226   4.396   6.578   5.342 -0.2362 -2.0353 -0.8041
    2SAPS   C36  227   4.207   6.681   5.341  0.0841 -0.1684  0.0975
    2SAPS   H6X  228   4.230   6.788   5.355 -1.2294  0.2807 -0.9998
    2SAPS   H6Y  229   4.106   6.670   5.385 -0.6809  0.3781 -1.4360
    2SAPS   C37  230   4.176   6.672   5.191 -1.1236 -0.5482  0.4444
    2SAPS   H7X  231   4.120   6.761   5.156  1.1718  0.9348  0.3856
    2SAPS   H7Y  232   4.114   6.579   5.184 -1.9746 -0.1575  2.2913
    2SAPS   C38  233   4.301   6.647   5.101  0.0459  0.2294  0.5472
    2SAPS   H8X  234   4.364   6.564   5.138 -1.2451 -2.2517 -2.3094
    2SAPS   H8Y  235   4.357   6.743   5.099  1.1588 -0.3795  1.6152
    2SAPS   C39  236   4.261   6.601   4.955  0.1377  0.1212 -0.1830
    2SAPS   H9X  237   4.194   6.513   4.952 -0.7717  0.8299 -2.4243
    2SAPS   H9Y  238   4.362   6.568   4.922  0.9922  1.5028  0.9031
    2SAPS  C310  239   4.220   6.717   4.862  0.9300 -0.0745 -0.1547
    2SAPS  H10X  240   4.293   6.801   4.860  0.0169  0.7438 -0.0592
    2SAPS  H10Y  241   4.123   6.754   4.902  1.5272  0.5703  0.7388
    2SAPS  C311  242   4.197   6.678   4.707  0.3665 -0.5122 -0.2028
    2SAPS  H11X  243   4.142   6.759   4.655 -1.3030 -1.3798  0.1407
    2SAPS  H11Y  244   4.134   6.587   4.692 -0.6859  0.1253  0.2273
    2SAPS  C312  245   4.322   6.684   4.621 -0.1109  0.9408 -0.6171
    2SAPS  H12X  246   4.398   6.619   4.668 -0.0015  0.9494 -0.7840
    2SAPS  H12Y  247   4.360   6.789   4.625  1.5869  0.3439 -0.4066
    2SAPS  C313  248   4.319   6.643   4.476 -0.3894 -0.1042  0.1662
    2SAPS  H13X  249   4.217   6.661   4.436  0.4707  1.5889 -1.4065
    2SAPS  H13Y  250   4.321   6.532   4.470 -0.1996 -0.0740 -0.4219
    2SAPS  C314  251   4.428   6.702   4.386 -0.7591 -0.7777  0.1633
    2SAPS  H14X  252   4.395   6.673   4.284  1.9933 -1.5286 -0.5846
    2SAPS  H14Y  253   4.528   6.661   4.412  0.2728  1.4698 -0.0390
    2SAPS  C315  254   4.441   6.856   4.382 -0.3008  1.0567 -0.0358
    2SAPS  H15X  255   4.538   6.874   4.331 -0.3121  1.2571  0.0126
    2SAPS  H15Y  256   4.457   6.896   4.484  0.9812 -2.2649  1.1933
    2SAPS  C316  257   4.331   6.916   4.306  0.6731 -0.2035  0.5557
    2SAPS  H16X  258   4.237   6.885   4.356  0.3973  0.3367  0.3741
    2SAPS  H16Y  259   4.328   6.867   4.206 -3.9288  1.1125 -0.1930
    2SAPS  C317  260   4.336   7.066   4.280  1.0944 -0.3453 -0.1010
    2SAPS  H17X  261   4.356   7.117   4.377 -0.7482  0.6689 -0.2015
    2SAPS  H17Y  262   4.227   7.087   4.273  1.1468 -0.4524 -1.4687
    2SAPS  C318  263   4.401   7.117   4.152  0.4947  0.0010 -0.5233
    2SAPS  H18X  264   4.372   7.064   4.058 -2.3410 -1.8604  1.2528
    2SAPS  H18Y  265   4.511   7.111   4.160  0.6228  1.5821 -0.7195
    2SAPS  H18Z  266   4.380   7.226   4.145 -0.8863 -0.3493 -4.3475
    3SAPS     N  267   4.286   5.144   6.484 -1.0167  0.4405 -0.5661
    3SAPS   HN1  268   4.196   5.172   6.528 -0.6577  1.2833 -0.3440
    3SAPS   HN2  269   4.347   5.212   6.435  1.5589 -1.2259  0.1703
    3SAPS   HN3  270   4.276   5.059   6.425  1.0146 -1.4353  1.5880
    3SAPS   C12  271   4.371   5.107   6.606  0.3363 -0.2571 -0.4818
    3SAPS  H12A  272   4.405   5.203   6.641 -3.0448  0.9062 -0.0099
    3SAPS   C13  273   4.294   5.044   6.727 -0.1270 -0.2025 -0.4756
    3SAPS  O13A  274   4.166   5.026   6.719 -0.1708 -0.5821 -0.7741
    3SAPS  O13B  275   4.357   5.047   6.837 -0.0198 -0.0631 -0.5094
    3SAPS   C11  276   4.481   5.017   6.569  0.1026  0.5522 -0.2428
    3SAPS  H11A  277   4.438   4.919   6.540 -1.1316  0.6560  1.1222
    3SAPS  H11B  278   4.548   4.993   6.655  0.4333 -2.1846 -1.1512
    3SAPS     P  279   4.692   5.138   6.471  0.3089  0.0527  0.2107
    3SAPS   O13  280   4.671   5.264   6.544  0.9661  0.4335 -0.5561
    3SAPS   O14  281   4.803   5.052   6.521  0.0805 -0.2445 -0.2826
    3SAPS   O12  282   4.556   5.058   6.456 -0.6357  0.5629  0.4022
    3SAPS   O11  283   4.708   5.177   6.315  0.0979  0.3014  0.0473
    3SAPS    C1  284   4.700   5.065   6.224 -0.3236  0.0741 -0.4034
    3SAPS    HA  285   4.598   5.022   6.224 -0.3101  0.0394 -0.7718
    3SAPS    HB  286   4.712   5.108   6.122  0.1262  0.9844  0.0135
    3SAPS    C2  287   4.807   4.954   6.219 -0.1595 -0.2889 -0.5039
    3SAPS    HS  288   4.780   4.888   6.304  0.6168  3.1660  2.7370
    3SAPS   O21  289   4.932   5.015   6.257 -0.0759 -0.1499  0.2806
    3SAPS   C21  290   5.017   4.927   6.306 -0.2768  0.8718  0.4104
    3SAPS   O22  291   5.004   4.808   6.295 -0.4744  0.4213 -0.8103
    3SAPS   C22  292   5.148   4.997   6.335  0.3178 -0.0829  0.6597
    3SAPS   H2R  293   5.124   5.105   6.350  0.6809 -0.0052  0.6836
    3SAPS   H2S  294   5.199   4.971   6.430 -1.0879  1.7309  2.0043
    3SAPS    C3  295   4.809   4.872   6.089 -0.2304  0.5135 -0.3909
    3SAPS    HX  296   4.706   4.830   6.081 -0.3914  0.0651  2.6502
    3SAPS    HY  297   4.883   4.791   6.101  0.2844  0.8766 -1.0608
    3SAPS   O31  298   4.850   4.939   5.970 -0.0275  0.2369 -0.0249
    3SAPS   C31  299   4.760   4.949   5.873 -1.1327 -0.8681  1.0074
    3SAPS   O32  300   4.641   4.923   5.878 -0.4294 -0.0408 -0.4119
    3SAPS   C32  301   4.819   5.009   5.747  0.4146  0.5498  0.6831
    3SAPS   H2X  302   4.929   5.022   5.744  0.3607  0.9365 -0.0808
    3SAPS   H2Y  303   4.773   5.110   5.748 -0.0228  0.3874 -0.5597
    3SAPS   C23  304   5.239   4.971   6.221  0.0965  0.4725 -0.4588
    3SAPS   H3R  305   5.264   4.864   6.204 -0.6323  0.5123 -1.9470
    3SAPS   H3S  306   5.327   5.037   6.237 -0.2736  1.0972 -0.9517
    3SAPS   C24  307   5.187   5.012   6.077 -0.2710 -0.3019  0.4809
    3SAPS   H4R  308   5.181   5.122   6.063 -1.3609 -0.5299 -1.0546
    3SAPS   H4S  309   5.086   4.968   6.063 -0.4546  0.2142  0.1796
    3SAPS   C25  310   5.280   4.954   5.973  0.5010  0.6611 -0.4311
    3SAPS   H5R  311   5.334   4.863   6.005 -0.2991  0.3520  0.0686
    3SAPS   C26  312   5.297   4.995   5.847  0.4680  0.0842  0.3984
    3SAPS   H6R  313   5.368   4.942   5.782 -0.3460 -2.1347  1.2293
    3SAPS   C27  314   5.221   5.113   5.784 -0.3222  0.4835  0.0590
    3SAPS   H7R  315   5.261   5.210   5.821 -0.3785 -0.0815  1.6854
    3SAPS   H7S  316   5.114   5.111   5.815  0.3237  0.0580  2.5155
    3SAPS   C28  317   5.229   5.109   5.632 -0.3605 -0.3636  0.0926
    3SAPS   H8R  318   5.291   5.031   5.585 -0.3870  0.0395 -0.6280
    3SAPS   C29  319   5.160   5.181   5.541 -0.0239  0.5811  0.1536
    3SAPS   H9R  320   5.187   5.171   5.435  1.3648  1.3594  0.4144
    3SAPS  C210  321   5.054   5.280   5.584  1.0358 -0.1354 -0.0245
    3SAPS  H10R  322   5.095   5.384   5.587 -0.8839  0.6440  1.0689
    3SAPS  H10S  323   5.019   5.277   5.689 -0.6734  1.4453 -0.4928
    3SAPS  C211  324   4.932   5.272   5.489  0.1186 -0.2129 -0.5052
    3SAPS  H11R  325   4.843   5.237   5.543  0.3043  2.2453  1.6093
    3SAPS  C212  326   4.930   5.301   5.359  1.2267 -0.0198 -0.4177
    3SAPS  H12R  327   4.834   5.279   5.309  1.7518 -0.9727 -1.0205
    3SAPS  C213  328   5.045   5.352   5.272  0.3296 -0.3770 -0.3615
    3SAPS  H13R  329   5.124   5.389   5.341 -0.9467 -1.2406  1.6599
    3SAPS  H13S  330   5.009   5.443   5.218  0.6069 -1.1700 -1.9346
    3SAPS  C214  331   5.096   5.246   5.185  0.1149  0.6785  0.0442
    3SAPS  H14R  332   5.188   5.195   5.216 -0.6906 -1.0039 -0.2571
    3SAPS  C215  333   5.039   5.214   5.061  1.1649 -0.1074  0.1567
    3SAPS  H15R  334   5.079   5.136   4.994  0.6300 -1.3196  1.2123
    3SAPS  C216  335   4.917   5.279   4.999 -0.6290  0.2940  0.0665
    3SAPS  H16R  336   4.918   5.277   4.887  0.3070  1.2049  0.0417
    3SAPS  H16S  337   4.906   5.388   5.015 -1.9369  0.2301 -0.2878
    3SAPS  C217  338   4.792   5.203   5.044 -0.2618 -0.3514  0.1045
    3SAPS  H17R  339   4.807   5.151   5.141  0.2336 -0.7258 -0.1664
    3SAPS  H17S  340   4.770   5.120   4.973  1.4773  0.0346 -0.9348
    3SAPS  C218  341   4.677   5.300   5.047 -0.1755 -0.1638  0.0340
    3SAPS  H18R  342   4.651   5.326   4.942 -0.9859 -0.5239  0.1433
    3SAPS  H18S  343   4.703   5.384   5.115 -1.8808  1.0282 -0.7215
    3SAPS  C219  344   4.545   5.246   5.106 -0.4047  0.0987 -0.4756
    3SAPS  H19R  345   4.471   5.325   5.087 -0.2600  0.3340 -0.0756
    3SAPS  H19S  346   4.521   5.153   5.050  0.1739 -1.6659  1.9826
    3SAPS  C220  347   4.547   5.214   5.253 -0.5523 -0.1847  0.0257
    3SAPS  H20R  348   4.447   5.174   5.280 -0.5004 -1.2946 -1.3014
    3SAPS  H20S  349   4.574   5.304   5.313 -0.8505  1.5560 -2.3143
    3SAPS  H20T  350   4.625   5.142   5.285  1.3726  3.0160  3.2836
    3SAPS   C33  351   4.773   4.946   5.612  0.6447  0.9896  0.7977
    3SAPS   H3X  352   4.716   5.016   5.548  1.1972 -0.8089 -1.8278
    3SAPS   H3Y  353   4.725   4.847   5.628  0.5973  1.0040  0.7415
    3SAPS   C34  354   4.895   4.922   5.518  0.2524  0.9804 -0.0615
    3SAPS   H4X  355   4.959   4.844   5.565 -0.3182 -1.3227 -2.8307
    3SAPS   H4Y  356   4.952   5.017   5.504  1.9307  0.2578  1.4576
    3SAPS   C35  357   4.854   4.870   5.382 -0.1010  0.7349  0.6444
    3SAPS   H5X  358   4.779   4.789   5.398 -0.6092  0.4387 -2.4656
    3SAPS   H5Y  359   4.804   4.950   5.323  0.0324 -0.6931 -1.5319
    3SAPS   C36  360   4.977   4.805   5.308  0.3956  0.0027 -0.2211
    3SAPS   H6X  361   5.008   4.719   5.370  1.0463  0.2034 -0.2612
    3SAPS   H6Y  362   5.063   4.874   5.292 -0.7272  1.0485 -2.1920
    3SAPS   C37  363   4.948   4.742   5.170 -0.2625  0.1047 -0.3203
    3SAPS   H7X  364   4.860   4.675   5.181 -1.1440  1.5576  2.1958
    3SAPS   H7Y  365   5.032   4.681   5.130 -1.6076 -2.2746  0.2774
    3SAPS   C38  366   4.911   4.848   5.068  0.1742 -0.4209 -0.7747
    3SAPS   H8X  367   4.982   4.932   5.083 -0.7643  0.6215 -1.9093
    3SAPS   H8Y  368   4.808   4.888   5.082  0.7978  1.5677 -1.4727
    3SAPS   C39  369   4.925   4.796   4.928  0.1614  0.3608  0.5864
    3SAPS   H9X  370   4.862   4.704   4.921 -0.9948  1.1949 -0.5373
    3SAPS   H9Y  371   5.033   4.775   4.912 -0.0111 -0.0275 -0.1538
    3SAPS  C310  372   4.883   4.893   4.817 -0.2954 -0.3926 -0.1579
    3SAPS  H10X  373   4.895   4.998   4.853 -0.5850 -0.7321  0.9807
    3SAPS  H10Y  374   4.774   4.872   4.807 -0.6128  0.8192  0.4893
    3SAPS  C311  375   4.974   4.883   4.697 -0.4856  0.5718  0.1788
    3SAPS  H11X  376   4.982   4.776   4.667 -1.4046  1.1671 -2.5231
    3SAPS  H11Y  377   5.074   4.911   4.737 -0.5705  0.3106  0.5798
    3SAPS  C312  378   4.924   4.965   4.584 -0.4381 -0.7778  0.2327
    3SAPS  H12X  379   4.994   4.998   4.504 -1.8347  1.6393 -0.0808
    3SAPS  H12Y  380   4.882   5.062   4.616  1.9117 -0.7392  3.8103
    3SAPS  C313  381   4.809   4.899   4.517  0.5127 -0.2200  0.3551
    3SAPS  H13X  382   4.727   4.869   4.585 -0.4766  0.3912 -0.5185
    3SAPS  H13Y  383   4.847   4.808   4.466  1.9422 -0.1942  1.3363
    3SAPS  C314  384   4.756   4.989   4.407 -0.2886  0.4400 -0.2561
    3SAPS  H14X  385   4.842   5.025   4.346 -1.2105  1.4435 -1.0168
    3SAPS  H14Y  386   4.717   5.081   4.455  1.6934 -0.2423  2.9527
    3SAPS  C315  387   4.664   4.918   4.311  0.5939 -0.0965  0.1931
    3SAPS  H15X  388   4.602   4.841   4.360  0.3845 -0.0654 -0.0260
    3SAPS  H15Y  389   4.723   4.865   4.233  1.5886  0.0101  0.8530
    3SAPS  C316  390   4.560   5.009   4.249  0.4429  0.0035  0.1847
    3SAPS  H16X  391   4.508   5.052   4.337  1.6508 -0.5031  1.1811
    3SAPS  H16Y  392   4.480   4.952   4.199  1.3913 -1.6880  0.5102
    3SAPS  C317  393   4.623   5.135   4.174 -0.0722 -0.8301 -0.1607
    3SAPS  H17X  394   4.710   5.173   4.232  0.1163 -1.6612  0.1165
    3SAPS  H17Y  395   4.539   5.207   4.171  0.3653 -0.2198  1.2922
    3SAPS  C318  396   4.680   5.108   4.038 -0.2045 -0.0675 -0.0216
    3SAPS  H18X  397   4.711   5.201   3.985  0.0474  0.4499  1.0147
    3SAPS  H18Y  398   4.596   5.077   3.972 -0.4206  0.3373  0.0602
    3SAPS  H18Z  399   4.757   5.028   4.032 -0.4944 -0.4318  0.9524
    4SAPS     N  400   3.242   3.353   6.428 -0.5608  0.4076  0.6890
    4SAPS   HN1  401   3.279   3.260   6.456  3.1842  1.1633 -1.1095
    4SAPS   HN2  402   3.219   3.352   6.327  0.7948  1.7177  0.3289
    4SAPS   HN3  403   3.324   3.416   6.434  1.1072 -1.5346 -0.3435
    4SAPS   C12  404   3.136   3.407   6.519  0.3016  0.0959 -0.0899
    4SAPS  H12A  405   3.183   3.419   6.615 -0.8944 -4.4821  1.3110
    4SAPS   C13  406   3.072   3.544   6.488 -0.1114  0.3337 -0.7774
    4SAPS  O13A  407   3.105   3.596   6.386  0.4111 -0.0314  0.5006
    4SAPS  O13B  408   2.976   3.581   6.559  0.0627 -0.1297  0.4529
    4SAPS   C11  409   3.026   3.296   6.520 -0.4699  0.2386  0.2646
    4SAPS  H11A  410   2.965   3.283   6.428 -0.1245 -0.1747  0.0892
    4SAPS  H11B  411   2.948   3.335   6.589 -2.5496 -1.2354 -1.1216
    4SAPS     P  412   2.972   3.052   6.598  0.0766  0.3891  0.0044
    4SAPS   O13  413   3.058   2.935   6.631  0.7959 -0.2432 -0.5520
    4SAPS   O14  414   2.861   3.094   6.686 -0.3596  0.4809  0.2853
    4SAPS   O12  415   3.076   3.171   6.570 -0.0274 -0.9616 -0.1821
    4SAPS   O11  416   2.912   3.023   6.452 -0.6188  0.3054  0.2701
    4SAPS    C1  417   2.996   3.023   6.339  0.3118 -0.1600 -1.1994
    4SAPS    HA  418   3.070   3.107   6.339 -1.0188  1.1863  1.9721
    4SAPS    HB  419   3.043   2.923   6.334 -1.2958 -1.1645  1.6661
    4SAPS    C2  420   2.918   3.051   6.204  0.8240 -0.2995  0.3400
    4SAPS    HS  421   2.873   3.153   6.205 -1.3284 -1.1629 -1.1166
    4SAPS   O21  422   2.819   2.955   6.191  0.2966  0.2987 -0.0949
    4SAPS   C21  423   2.713   2.994   6.124 -0.1231 -0.2739  0.2578
    4SAPS   O22  424   2.684   3.109   6.098  0.1046 -0.6535  0.4522
    4SAPS   C22  425   2.640   2.872   6.075 -0.2662 -0.3660  0.3933
    4SAPS   H2R  426   2.703   2.836   5.991  1.2233  0.2531  1.2236
    4SAPS   H2S  427   2.629   2.805   6.162  0.3872  0.3691  1.0514
    4SAPS    C3  428   3.020   3.043   6.082  0.0254 -0.4105  0.1149
    4SAPS    HX  429   3.079   2.949   6.094  1.2493 -0.0309 -2.3677
    4SAPS    HY  430   3.091   3.128   6.098 -0.3758 -0.2002  0.8327
    4SAPS   O31  431   2.962   3.043   5.945 -0.3172 -0.0952 -0.1711
    4SAPS   C31  432   2.915   3.161   5.897 -0.2029 -0.5971 -0.5057
    4SAPS   O32  433   2.924   3.272   5.948  0.1361 -0.6005 -0.3394
    4SAPS   C32  434   2.851   3.153   5.765 -0.0864  0.1181  0.0769
    4SAPS   H2X  435   2.752   3.202   5.763  0.1822  0.6969 -2.7823
    4SAPS   H2Y  436   2.829   3.046   5.746  0.9023 -0.5070  2.1334
    4SAPS   C23  437   2.500   2.926   6.029  0.4396  0.2059  0.4454
    4SAPS   H3R  438   2.495   2.953   5.921 -3.7945  0.9859  0.6843
    4SAPS   H3S  439   2.470   3.017   6.086 -0.1264  0.4553 -0.2273
    4SAPS   C24  440   2.392   2.815   6.039 -0.3163 -0.0524 -0.4486
    4SAPS   H4R  441   2.301   2.862   5.998 -0.9649 -0.7362  0.1771
    4SAPS   H4S  442   2.366   2.787   6.143 -1.9876  0.3777 -0.7241
    4SAPS   C25  443   2.411   2.674   5.969 -0.3954  0.2734  0.2387
    4SAPS   H5R  444   2.463   2.603   6.035  0.7871  2.7713  2.1882
    4SAPS   C26  445   2.364   2.646   5.845 -0.2375 -0.3228  0.6904
    4SAPS   H6R  446   2.386   2.546   5.804 -0.7969 -0.0504 -0.3012
    4SAPS   C27  447   2.276   2.737   5.757 -0.1700  0.6790  0.4084
    4SAPS   H7R  448   2.344   2.810   5.709  1.2900 -0.9304 -0.0716
    4SAPS   H7S  449   2.209   2.791   5.827  0.7722 -2.1319  3.7755
    4SAPS   C28  450   2.189   2.658   5.662  0.6768 -0.3924 -0.5274
    4SAPS   H8R  451   2.089   2.625   5.694 -0.9612  2.6297 -2.0830
    4SAPS   C29  452   2.221   2.650   5.530 -0.5543 -0.1911 -0.3871
    4SAPS   H9R  453   2.155   2.598   5.460  1.6147 -1.5747 -1.5027
    4SAPS  C210  454   2.348   2.703   5.463 -0.3982  0.6677 -1.0264
    4SAPS  H10R  455   2.403   2.764   5.537 -0.3856 -0.8554  0.2534
    4SAPS  H10S  456   2.325   2.767   5.375 -0.1902 -1.3022 -2.5926
    4SAPS  C211  457   2.428   2.581   5.426 -0.0007 -0.5662 -0.1139
    4SAPS  H11R  458   2.436   2.502   5.502  0.7335 -2.5531 -2.1460
    4SAPS  C212  459   2.482   2.553   5.311 -0.4967  0.7001 -0.3758
    4SAPS  H12R  460   2.533   2.457   5.293 -0.4747  0.7654 -0.6771
    4SAPS  C213  461   2.482   2.642   5.189 -0.6399 -0.3163  0.2087
    4SAPS  H13R  462   2.571   2.640   5.122 -1.5382  0.1833 -1.0304
    4SAPS  H13S  463   2.475   2.748   5.222 -1.9138 -0.5813  0.8387
    4SAPS  C214  464   2.349   2.614   5.115  0.1697 -0.1319 -0.1872
    4SAPS  H14R  465   2.258   2.619   5.177  0.7067  0.4943  0.5687
    4SAPS  C215  466   2.326   2.583   4.984  0.3436 -0.1473  0.2931
    4SAPS  H15R  467   2.220   2.579   4.956  0.8431 -1.6990 -1.5421
    4SAPS  C216  468   2.428   2.576   4.871 -0.5278  0.1366 -0.2794
    4SAPS  H16R  469   2.453   2.468   4.869 -0.6054  0.0396  1.7271
    4SAPS  H16S  470   2.514   2.645   4.883  0.5706 -0.7290 -2.6874
    4SAPS  C217  471   2.367   2.610   4.729  0.9234  0.8422 -0.5746
    4SAPS  H17R  472   2.449   2.582   4.659  1.2537 -1.3401  0.6040
    4SAPS  H17S  473   2.352   2.720   4.726  1.4938  1.0949  2.5275
    4SAPS  C218  474   2.234   2.534   4.691 -0.0577  0.4543 -0.4757
    4SAPS  H18R  475   2.149   2.574   4.750  0.2044  0.9750 -0.4437
    4SAPS  H18S  476   2.256   2.428   4.717 -0.6090  0.6347  0.8118
    4SAPS  C219  477   2.184   2.540   4.543 -0.3860 -0.4424 -0.4882
    4SAPS  H19R  478   2.160   2.643   4.510  0.5069 -0.2728 -0.6417
    4SAPS  H19S  479   2.092   2.477   4.541 -0.5445 -0.2731  0.7208
    4SAPS  C220  480   2.291   2.482   4.448 -0.2172  0.8429  0.6976
    4SAPS  H20R  481   2.241   2.452   4.353  2.3310 -0.0970 -0.4543
    4SAPS  H20S  482   2.340   2.387   4.479 -3.0063 -0.2054  2.2706
    4SAPS  H20T  483   2.367   2.558   4.419 -0.5354  0.5552 -0.9973
    4SAPS   C33  484   2.942   3.201   5.651  0.2922  0.1594 -0.1776
    4SAPS   H3X  485   3.047   3.165   5.655  1.6763  3.8183  0.4244
    4SAPS   H3Y  486   2.949   3.311   5.665  2.0209 -0.0761  1.2437
    4SAPS   C34  487   2.874   3.195   5.513  0.2379  0.5073  0.7389
    4SAPS   H4X  488   2.782   3.256   5.507 -0.1320 -0.1310 -0.5726
    4SAPS   H4Y  489   2.845   3.088   5.501  2.3289 -0.1771  1.3188
    4SAPS   C35  490   2.968   3.238   5.405 -0.2725 -0.1931  0.2732
    4SAPS   H5X  491   3.067   3.191   5.424 -1.1540 -2.4303 -0.3878
    4SAPS   H5Y  492   2.984   3.348   5.406 -0.8614 -0.0988 -0.3761
    4SAPS   C36  493   2.935   3.213   5.257  0.0471  0.2891  0.1645
    4SAPS   H6X  494   2.867   3.294   5.224 -0.3361 -0.4678 -0.9662
    4SAPS   H6Y  495   2.879   3.120   5.233  2.2744 -1.4571  1.2462
    4SAPS   C37  496   3.072   3.212   5.173  0.6009 -0.2043 -0.2000
    4SAPS   H7X  497   3.122   3.113   5.176 -0.8240 -0.9290  0.5711
    4SAPS   H7Y  498   3.143   3.290   5.210 -0.0060  0.0189  0.5191
    4SAPS   C38  499   3.028   3.256   5.032 -0.6230 -0.3020 -0.1715
    4SAPS   H8X  500   2.974   3.353   5.039 -1.9796 -1.1243  1.7207
    4SAPS   H8Y  501   2.954   3.182   4.996 -2.0302  0.9403  0.0359
    4SAPS   C39  502   3.131   3.255   4.920 -0.2543  0.6131  0.4282
    4SAPS   H9X  503   3.165   3.152   4.896  1.3154  0.4826  2.8720
    4SAPS   H9Y  504   3.218   3.318   4.947 -1.1659  1.3900  1.6955
    4SAPS  C310  505   3.079   3.327   4.785 -0.2186 -0.5385 -0.3350
    4SAPS  H10X  506   3.158   3.317   4.708  3.2497  5.9294  1.5997
    4SAPS  H10Y  507   3.076   3.437   4.801  3.1863 -0.5836  1.6593
    4SAPS  C311  508   2.946   3.271   4.747 -0.6661 -0.2107 -0.1376
    4SAPS  H11X  509   2.861   3.301   4.812 -0.1538 -0.4674  0.6709
    4SAPS  H11Y  510   2.951   3.160   4.750  0.5139 -0.2276 -1.6380
    4SAPS  C312  511   2.895   3.303   4.604  0.2710 -0.2303  0.7206
    4SAPS  H12X  512   2.977   3.289   4.530 -0.6763  0.9667 -0.6081
    4SAPS  H12Y  513   2.855   3.407   4.607  0.9999  0.0393  1.8730
    4SAPS  C313  514   2.778   3.213   4.549 -0.6379 -0.3999  0.4259
    4SAPS  H13X  515   2.700   3.205   4.627  1.0483  0.9739  2.3640
    4SAPS  H13Y  516   2.830   3.115   4.538  0.3101  0.1855 -0.6715
    4SAPS  C314  517   2.727   3.247   4.411 -0.3686 -0.8551  0.6117
    4SAPS  H14X  518   2.657   3.173   4.368 -1.2387 -0.1496  0.7686
    4SAPS  H14Y  519   2.816   3.263   4.346  0.4874 -0.1354  1.9184
    4SAPS  C315  520   2.642   3.383   4.413 -0.0345 -0.4891 -0.1603
    4SAPS  H15X  521   2.697   3.475   4.386 -0.0930 -0.6532 -0.8637
    4SAPS  H15Y  522   2.605   3.401   4.516  0.3868  1.6349 -0.3438
    4SAPS  C316  523   2.527   3.374   4.320  0.2888  0.0681 -0.2222
    4SAPS  H16X  524   2.461   3.289   4.348  0.4158  0.1308  0.2849
    4SAPS  H16Y  525   2.570   3.371   4.218  1.5493  2.7717  0.1526
    4SAPS  C317  526   2.431   3.496   4.322 -0.2730  0.2672 -1.1190
    4SAPS  H17X  527   2.342   3.478   4.257 -1.8618  1.9591  0.4583
    4SAPS  H17Y  528   2.495   3.580   4.286 -1.2129  0.7901 -1.6418
    4SAPS  C318  529   2.389   3.529   4.470  0.2466 -0.0292  0.6677
    4SAPS  H18X  530   2.341   3.439   4.516  0.6181  0.0974  1.3178
    4SAPS  H18Y  531   2.309   3.604   4.487  0.2578 -0.2110  1.5627
    4SAPS  H18Z  532   2.471   3.558   4.539  1.2188 -2.3426  0.5701
    5SAPS     N  533   4.641   5.518   6.425 -0.4266  0.3819 -0.2843
    5SAPS   HN1  534   4.720   5.565   6.474 -1.0287  0.3099  0.8049
    5SAPS   HN2  535   4.647   5.418   6.453 -1.9087  0.8274  1.8877
    5SAPS   HN3  536   4.638   5.539   6.323 -0.0178 -1.4419 -0.7112
    5SAPS   C12  537   4.504   5.567   6.477  0.5588  0.1513 -0.8245
    5SAPS  H12A  538   4.486   5.670   6.448 -0.5102 -0.1244 -1.1612
    5SAPS   C13  539   4.380   5.492   6.429 -0.2652 -0.0329 -0.8599
    5SAPS  O13A  540   4.387   5.371   6.394 -0.2639  0.1145  0.3777
    5SAPS  O13B  541   4.272   5.549   6.463 -0.3676 -0.2420 -0.6355
    5SAPS   C11  542   4.518   5.569   6.630  0.8106  0.2305 -0.2673
    5SAPS  H11A  543   4.555   5.470   6.663  2.7029  0.7906 -0.6083
    5SAPS  H11B  544   4.419   5.586   6.677  1.0829 -3.1736  1.8588
    5SAPS     P  545   4.724   5.669   6.767  0.0122  0.2094  0.2810
    5SAPS   O13  546   4.763   5.805   6.812 -0.3338  0.2337 -0.3247
    5SAPS   O14  547   4.701   5.562   6.870 -0.5498  0.8163 -0.2068
    5SAPS   O12  548   4.600   5.680   6.667 -0.3787 -0.2099  0.5148
    5SAPS   O11  549   4.831   5.616   6.667 -0.5885  0.0244  0.6252
    5SAPS    C1  550   4.888   5.488   6.685 -0.5043 -0.8833 -0.4028
    5SAPS    HA  551   4.932   5.479   6.786  1.2402  2.1680 -0.7702
    5SAPS    HB  552   4.817   5.404   6.673 -0.8229 -0.8186  0.9369
    5SAPS    C2  553   4.998   5.451   6.580 -0.6366 -0.1553 -0.1456
    5SAPS    HS  554   5.066   5.539   6.582 -3.1905  2.0030  2.3570
    5SAPS   O21  555   4.929   5.438   6.453 -0.1165  0.5860 -0.0770
    5SAPS   C21  556   5.009   5.447   6.349  0.6829 -0.5498 -0.0964
    5SAPS   O22  557   5.119   5.498   6.345 -0.3586 -0.1787  0.1192
    5SAPS   C22  558   4.938   5.395   6.229 -0.0477  0.3607 -0.5727
    5SAPS   H2R  559   4.891   5.300   6.265 -1.1773  1.1106 -0.0111
    5SAPS   H2S  560   4.861   5.473   6.208  0.1146  0.8946  0.7545
    5SAPS    C3  561   5.073   5.321   6.631  0.5395 -0.0025 -0.3520
    5SAPS    HX  562   4.991   5.247   6.631  0.2307  0.3248  0.9245
    5SAPS    HY  563   5.112   5.334   6.734 -1.0038  0.5676  0.1882
    5SAPS   O31  564   5.178   5.277   6.542  0.6654  0.0153 -0.1437
    5SAPS   C31  565   5.291   5.340   6.545  0.2744 -0.4456  0.2318
    5SAPS   O32  566   5.315   5.441   6.605 -0.0979  0.0942 -0.2901
    5SAPS   C32  567   5.393   5.248   6.483 -0.6387 -0.4122  0.2156
    5SAPS   H2X  568   5.338   5.205   6.397 -1.0032  0.6310 -0.0926
    5SAPS   H2Y  569   5.417   5.169   6.557 -2.8579 -1.2430  0.1360
    5SAPS   C23  570   5.028   5.372   6.104  0.4161  0.2284 -0.1981
    5SAPS   H3R  571   5.123   5.328   6.142  0.2421  0.2577  0.2800
    5SAPS   H3S  572   5.060   5.465   6.052  1.9251 -0.7687 -1.1204
    5SAPS   C24  573   4.950   5.292   5.995  0.0703  0.1210 -0.5343
    5SAPS   H4R  574   4.937   5.194   6.046 -1.6959  0.7195  0.2354
    5SAPS   H4S  575   5.012   5.289   5.903  0.9868  2.1051 -0.0273
    5SAPS   C25  576   4.811   5.338   5.958 -0.4811  0.1831 -0.2972
    5SAPS   H5R  577   4.725   5.296   6.012  0.2003 -0.7196  0.0879
    5SAPS   C26  578   4.781   5.433   5.870 -0.3053 -0.8850  0.1238
    5SAPS   H6R  579   4.673   5.454   5.865 -0.0717  0.5350  0.6061
    5SAPS   C27  580   4.872   5.522   5.779  0.5223 -0.4150  0.3973
    5SAPS   H7R  581   4.860   5.492   5.673  0.0590  0.1025  0.2966
    5SAPS   H7S  582   4.980   5.508   5.798  0.7849  1.1618  0.2040
    5SAPS   C28  583   4.836   5.672   5.808 -0.3168  0.4680  0.0544
    5SAPS   H8R  584   4.891   5.713   5.894  0.9959 -0.0656 -0.5052
    5SAPS   C29  585   4.750   5.751   5.735 -0.1138 -0.0666 -0.2847
    5SAPS   H9R  586   4.744   5.856   5.767 -1.4446  0.3334 -1.6959
    5SAPS  C210  587   4.683   5.725   5.605  0.1362 -0.1669  0.3858
    5SAPS  H10R  588   4.645   5.823   5.568  1.4349 -0.4933 -1.9950
    5SAPS  H10S  589   4.593   5.665   5.630 -0.2525 -0.6953 -2.0109
    5SAPS  C211  590   4.750   5.652   5.493 -0.4267  0.9105  0.5115
    5SAPS  H11R  591   4.850   5.612   5.512  0.2256  1.3016 -1.7396
    5SAPS  C212  592   4.691   5.631   5.371 -0.5777  0.3964 -0.3787
    5SAPS  H12R  593   4.761   5.595   5.293  0.5767 -4.0376  2.3433
    5SAPS  C213  594   4.542   5.657   5.345  0.0419 -0.3443  1.1843
    5SAPS  H13R  595   4.529   5.765   5.327  1.5077 -0.4410 -0.8400
    5SAPS  H13S  596   4.471   5.626   5.424 -0.7153  2.3290  1.6292
    5SAPS  C214  597   4.486   5.582   5.227 -0.4654 -0.1645 -0.2026
    5SAPS  H14R  598   4.432   5.490   5.251 -1.6787  0.2554 -1.2063
    5SAPS  C215  599   4.471   5.633   5.105  0.0827  0.2104  0.1468
    5SAPS  H15R  600   4.416   5.579   5.026 -0.2858  1.3084 -0.3720
    5SAPS  C216  601   4.519   5.767   5.049  0.4875 -0.2171 -0.2283
    5SAPS  H16R  602   4.541   5.836   5.133 -0.7514  0.3655 -0.3667
    5SAPS  H16S  603   4.437   5.825   5.002  0.9715  0.9728  0.3400
    5SAPS  C217  604   4.621   5.751   4.937 -0.0670  0.8764 -0.0994
    5SAPS  H17R  605   4.698   5.674   4.960 -0.1210  0.7241 -0.4084
    5SAPS  H17S  606   4.688   5.840   4.934  0.8271  0.2063 -1.7538
    5SAPS  C218  607   4.567   5.719   4.799  0.2311 -0.0229 -0.0495
    5SAPS  H18R  608   4.505   5.810   4.783  0.0430  0.1024  1.2981
    5SAPS  H18S  609   4.503   5.629   4.806  0.1557  0.0598  0.3210
    5SAPS  C219  610   4.666   5.698   4.687  0.8113 -0.0654  0.4422
    5SAPS  H19R  611   4.724   5.604   4.693 -0.2150 -0.6580  1.7381
    5SAPS  H19S  612   4.739   5.781   4.697  2.0103 -0.9172 -0.8130
    5SAPS  C220  613   4.600   5.726   4.557 -0.2832  0.9848 -0.5575
    5SAPS  H20R  614   4.522   5.655   4.521  0.0353 -0.8220  2.0521
    5SAPS  H20S  615   4.675   5.734   4.476 -0.0151 -0.5945 -0.4866
    5SAPS  H20T  616   4.544   5.821   4.569  1.3346  1.7813  1.2438
    5SAPS   C33  617   5.519   5.332   6.441 -0.3818 -0.1252  0.5691
    5SAPS   H3X  618   5.605   5.266   6.420  0.0361  0.5582  0.1411
    5SAPS   H3Y  619   5.554   5.397   6.524 -0.6310 -1.0203  1.4022
    5SAPS   C34  620   5.508   5.416   6.312 -0.4405 -0.6869 -0.0375
    5SAPS   H4X  621   5.600   5.478   6.305 -0.6070 -0.5707 -1.3069
    5SAPS   H4Y  622   5.412   5.471   6.308 -0.1143 -0.1464 -0.5424
    5SAPS   C35  623   5.511   5.334   6.185 -0.4050  0.1862  0.6944
    5SAPS   H5X  624   5.450   5.242   6.193  0.3348 -0.3175  0.5674
    5SAPS   H5Y  625   5.613   5.295   6.167 -0.8900 -0.5967 -0.4786
    5SAPS   C36  626   5.456   5.413   6.060 -0.2838  0.2019  1.1837
    5SAPS   H6X  627   5.491   5.518   6.057 -0.1470  0.1844  1.9174
    5SAPS   H6Y  628   5.346   5.404   6.064 -0.3833 -1.1089 -2.0230
    5SAPS   C37  629   5.507   5.349   5.927 -0.6158 -0.0009 -0.3212
    5SAPS   H7X  630   5.462   5.252   5.896 -1.0808  0.1360 -0.0648
    5SAPS   H7Y  631   5.617   5.353   5.908 -1.0533  1.6391 -3.1625
    5SAPS   C38  632   5.454   5.421   5.802  0.1736 -0.3616 -0.3665
    5SAPS   H8X  633   5.490   5.525   5.790  1.9399 -1.1884 -3.3150
    5SAPS   H8Y  634   5.343   5.417   5.801  0.1059  0.9495 -1.2607
    5SAPS   C39  635   5.497   5.359   5.673 -0.1666 -0.2695  0.4319
    5SAPS   H9X  636   5.469   5.253   5.657 -0.0984  0.0445 -2.2675
    5SAPS   H9Y  637   5.607   5.349   5.658 -0.0471  0.1701  1.0047
    5SAPS  C310  638   5.462   5.434   5.546  0.4009  0.0397 -0.3367
    5SAPS  H10X  639   5.500   5.539   5.550  2.2602 -0.6152  0.2118
    5SAPS  H10Y  640   5.352   5.446   5.553  0.2465 -1.9101  2.6492
    5SAPS  C311  641   5.497   5.362   5.411 -0.4224  0.6364 -0.7905
    5SAPS  H11X  642   5.478   5.253   5.421  0.4956  0.6066  1.1837
    5SAPS  H11Y  643   5.606   5.376   5.397 -0.1812 -0.1358  0.2019
    5SAPS  C312  644   5.428   5.415   5.298 -0.2843  0.1001 -0.0256
    5SAPS  H12X  645   5.423   5.526   5.303  0.2560  0.1838 -1.1406
    5SAPS  H12Y  646   5.326   5.370   5.295  0.3065 -1.3219  0.3800
    5SAPS  C313  647   5.487   5.370   5.161  0.7429 -0.3840 -0.6701
    5SAPS  H13X  648   5.481   5.259   5.148 -2.4051 -0.4829  0.6379
    5SAPS  H13Y  649   5.597   5.385   5.160  1.0559 -1.6569  2.7578
    5SAPS  C314  650   5.418   5.454   5.049  0.8598 -0.8453  0.4982
    5SAPS  H14X  651   5.416   5.563   5.071 -0.3699 -0.5651 -0.8076
    5SAPS  H14Y  652   5.309   5.433   5.043  0.5875  0.4668  0.5433
    5SAPS  C315  653   5.476   5.444   4.911 -0.1123 -0.1456 -0.8442
    5SAPS  H15X  654   5.477   5.337   4.881  0.2955 -1.1118  2.2918
    5SAPS  H15Y  655   5.582   5.475   4.913 -0.2481  0.4550  2.8688
    5SAPS  C316  656   5.391   5.527   4.811  0.1088  0.0628  0.2081
    5SAPS  H16X  657   5.388   5.636   4.832 -0.1544  0.2165 -0.6143
    5SAPS  H16Y  658   5.290   5.483   4.825  1.1894 -2.4182  0.6697
    5SAPS  C317  659   5.433   5.499   4.669  0.1997  0.0822 -0.3756
    5SAPS  H17X  660   5.397   5.398   4.640 -1.5550  0.2690  1.0128
    5SAPS  H17Y  661   5.543   5.503   4.657  0.8409 -0.1353  3.9279
    5SAPS  C318  662   5.361   5.597   4.574 -0.0709  0.3548 -0.1010
    5SAPS  H18X  663   5.250   5.599   4.574 -0.2041 -2.3668 -0.6336
    5SAPS  H18Y  664   5.401   5.589   4.471  0.5686 -0.7997  0.2186
    5SAPS  H18Z  665   5.384   5.701   4.605 -0.9277  1.2403 -2.2704
    6SAPS     N  666   2.045   5.211   6.749  0.0595  0.1222  0.4483
    6SAPS   HN1  667   2.058   5.313   6.759  0.9578 -0.0917  1.6055
    6SAPS   HN2  668   2.128   5.166   6.705  0.2293  0.8529  0.0134
    6SAPS   HN3  669   1.957   5.189   6.698  0.6467  0.6123 -0.8211
    6SAPS   C12  670   2.029   5.166   6.889  0.2057  0.1046 -0.0233
    6SAPS  H12A  671   2.117   5.210   6.933  0.7311 -0.2318 -0.7110
    6SAPS   C13  672   1.902   5.220   6.963 -0.0465  0.4489  0.4391
    6SAPS  O13A  673   1.831   5.305   6.905  0.5814  0.5399  0.2990
    6SAPS  O13B  674   1.879   5.183   7.082  0.0096  0.1702  0.5770
    6SAPS   C11  675   2.045   5.012   6.891  0.0858  0.7449 -0.2839
    6SAPS  H11A  676   2.074   4.986   6.994 -0.3136 -3.0832 -0.9988
    6SAPS  H11B  677   2.137   4.988   6.833  0.4221 -0.3048  0.6449
    6SAPS     P  678   1.923   4.790   6.870 -0.5745 -0.6700  0.0046
    6SAPS   O13  679   2.053   4.717   6.876  0.0215 -0.5533 -0.1902
    6SAPS   O14  680   1.840   4.782   6.993  0.4468  0.1305 -0.5666
    6SAPS   O12  681   1.935   4.941   6.837  0.0556 -0.2387  0.5036
    6SAPS   O11  682   1.843   4.735   6.748 -0.4919  0.1952 -0.3049
    6SAPS    C1  683   1.785   4.811   6.647  0.3164 -0.5886 -0.4028
    6SAPS    HA  684   1.709   4.744   6.602  1.7206 -2.0434 -0.7473
    6SAPS    HB  685   1.724   4.890   6.695 -2.8424 -2.5575 -0.9256
    6SAPS    C2  686   1.878   4.854   6.532  0.6683  1.1611  0.1558
    6SAPS    HS  687   1.978   4.893   6.562  0.9018  0.6508  0.0576
    6SAPS   O21  688   1.797   4.945   6.447  0.1847 -0.4076  0.6982
    6SAPS   C21  689   1.805   5.071   6.485  0.4697 -0.0355  0.4804
    6SAPS   O22  690   1.855   5.121   6.583 -0.3351 -0.2177  0.5035
    6SAPS   C22  691   1.724   5.145   6.379  0.3696  0.5622  0.1520
    6SAPS   H2R  692   1.760   5.123   6.276 -3.0566  1.7145 -1.4610
    6SAPS   H2S  693   1.623   5.099   6.377  1.6320 -2.4216  0.1211
    6SAPS    C3  694   1.915   4.720   6.450  0.0702  0.0046 -0.1449
    6SAPS    HX  695   1.816   4.674   6.426  0.5501 -2.1775  1.7301
    6SAPS    HY  696   1.966   4.643   6.511  0.6750 -1.8053 -2.7653
    6SAPS   O31  697   1.984   4.749   6.326  1.0359  0.2913 -0.3066
    6SAPS   C31  698   2.112   4.784   6.331  0.3279 -0.1698 -0.0095
    6SAPS   O32  699   2.180   4.813   6.423  0.3577  0.1110 -0.1470
    6SAPS   C32  700   2.158   4.784   6.183 -0.3533 -0.2652 -0.2698
    6SAPS   H2X  701   2.168   4.676   6.156 -0.6971 -0.1030 -1.0884
    6SAPS   H2Y  702   2.262   4.822   6.184  0.0756 -1.4203 -0.0283
    6SAPS   C23  703   1.716   5.297   6.410  0.4331  0.5576 -0.3800
    6SAPS   H3R  704   1.820   5.336   6.408  0.8274 -0.0425  2.6623
    6SAPS   H3S  705   1.673   5.306   6.512  0.0360 -0.4565 -0.4412
    6SAPS   C24  706   1.634   5.374   6.305  0.5224 -0.3011 -0.9415
    6SAPS   H4R  707   1.526   5.369   6.330  0.4748  0.9869 -0.8097
    6SAPS   H4S  708   1.643   5.335   6.201 -0.1982  1.0095 -1.5323
    6SAPS   C25  709   1.669   5.522   6.313 -0.1488 -0.3908  0.0306
    6SAPS   H5R  710   1.688   5.569   6.410  0.1461  0.7689 -0.5668
    6SAPS   C26  711   1.704   5.595   6.208 -0.3158 -0.1634 -0.6709
    6SAPS   H6R  712   1.724   5.703   6.213 -1.3937  0.0708 -1.2432
    6SAPS   C27  713   1.695   5.546   6.069 -0.5926 -0.1068 -0.1582
    6SAPS   H7R  714   1.683   5.638   6.008 -2.5759 -0.5537 -0.5239
    6SAPS   H7S  715   1.607   5.482   6.047 -0.2923 -0.3138 -0.7705
    6SAPS   C28  716   1.803   5.461   6.008  0.4028 -0.0646  0.3988
    6SAPS   H8R  717   1.822   5.374   6.072  2.4297  0.5300  0.6751
    6SAPS   C29  718   1.848   5.452   5.881  0.4262  0.1825  0.1270
    6SAPS   H9R  719   1.925   5.374   5.867  0.3759 -0.1006  1.3089
    6SAPS  C210  720   1.827   5.539   5.755  0.1002 -0.6850 -0.1691
    6SAPS  H10R  721   1.922   5.539   5.698  0.0982 -1.5255 -0.1784
    6SAPS  H10S  722   1.816   5.643   5.794 -2.1545 -1.0606  0.3314
    6SAPS  C211  723   1.719   5.497   5.659  0.3343 -0.2366  0.2208
    6SAPS  H11R  724   1.630   5.454   5.708  0.1464 -0.1261 -0.0220
    6SAPS  C212  725   1.719   5.508   5.524  0.1082 -0.2359  0.7487
    6SAPS  H12R  726   1.632   5.477   5.465  0.9026  0.7163 -1.0039
    6SAPS  C213  727   1.836   5.549   5.432 -0.3185  0.5107 -0.1841
    6SAPS  H13R  728   1.848   5.475   5.351 -4.0100  0.0330 -0.4494
    6SAPS  H13S  729   1.925   5.532   5.497  1.5127 -0.5273 -2.8163
    6SAPS  C214  730   1.837   5.692   5.380 -0.0803  0.3842 -0.4159
    6SAPS  H14R  731   1.804   5.774   5.446  1.2557 -0.0066  0.7849
    6SAPS  C215  732   1.868   5.732   5.253 -0.2948  0.5370 -0.1070
    6SAPS  H15R  733   1.855   5.839   5.229 -2.1318 -0.1749 -2.7550
    6SAPS  C216  734   1.907   5.646   5.136 -0.0443 -0.1824  0.2184
    6SAPS  H16R  735   1.916   5.541   5.171 -0.2799 -0.4916 -0.6127
    6SAPS  H16S  736   2.009   5.685   5.116  0.6878 -1.0723  1.9864
    6SAPS  C217  737   1.822   5.648   4.998  0.7611 -0.2348  0.2666
    6SAPS  H17R  738   1.713   5.649   5.019  0.5822  0.0742 -0.6352
    6SAPS  H17S  739   1.831   5.547   4.952 -1.0896 -2.1008  3.5316
    6SAPS  C218  740   1.842   5.773   4.912 -0.1624  0.4879  0.0090
    6SAPS  H18R  741   1.944   5.819   4.913 -0.2375  0.6992 -0.9340
    6SAPS  H18S  742   1.787   5.858   4.958 -0.5140 -0.2863  1.0685
    6SAPS  C219  743   1.798   5.757   4.768  0.1357  0.6125  0.2185
    6SAPS  H19R  744   1.694   5.720   4.776  1.1928 -2.6153  0.6147
    6SAPS  H19S  745   1.857   5.676   4.720 -0.3875  0.4060 -0.0777
    6SAPS  C220  746   1.804   5.884   4.689  0.5999 -0.3013  0.0656
    6SAPS  H20R  747   1.909   5.921   4.685  0.5012  0.2131  1.6345
    6SAPS  H20S  748   1.740   5.962   4.737 -0.5248 -1.5696  0.6864
    6SAPS  H20T  749   1.770   5.856   4.587 -0.3708 -3.3532  1.1285
    6SAPS   C33  750   2.066   4.849   6.074  0.3073  0.2460 -0.0171
    6SAPS   H3X  751   1.973   4.789   6.081  1.7576 -2.1640 -0.1238
    6SAPS   H3Y  752   2.122   4.826   5.981  0.3326  2.1513 -0.5194
    6SAPS   C34  753   2.061   5.003   6.080 -0.3702 -0.0288 -0.0375
    6SAPS   H4X  754   2.165   5.041   6.076 -0.2122 -0.5329 -1.8659
    6SAPS   H4Y  755   2.026   5.040   6.178 -1.1389 -1.1431  0.1309
    6SAPS   C35  756   1.987   5.065   5.959 -0.2129 -0.1878 -0.1693
    6SAPS   H5X  757   1.980   5.171   5.991  1.7381 -0.4248  1.2373
    6SAPS   H5Y  758   1.885   5.020   5.947  0.5315 -2.0221 -0.0073
    6SAPS   C36  759   2.054   5.060   5.818 -0.2865  0.2196 -0.7440
    6SAPS   H6X  760   2.095   4.957   5.815  2.2318  1.1037  0.6709
    6SAPS   H6Y  761   2.143   5.126   5.821  0.1926 -0.4653  0.4149
    6SAPS   C37  762   1.957   5.094   5.703  0.8017 -0.0694  0.5103
    6SAPS   H7X  763   1.891   5.181   5.722 -0.8735 -0.4498 -2.9555
    6SAPS   H7Y  764   1.890   5.008   5.686  0.4437  0.7192 -2.6939
    6SAPS   C38  765   2.035   5.104   5.571 -1.1149  0.0987 -0.2435
    6SAPS   H8X  766   2.103   5.018   5.553  0.0062  1.1434 -1.1352
    6SAPS   H8Y  767   2.100   5.194   5.573 -0.6385 -0.1642 -2.0907
    6SAPS   C39  768   1.946   5.134   5.447  0.6140 -0.4474  0.4918
    6SAPS   H9X  769   1.879   5.218   5.475  0.0110 -0.3195 -1.2242
    6SAPS   H9Y  770   1.879   5.046   5.437 -1.6140  1.0339  1.4622
    6SAPS  C310  771   2.033   5.156   5.323  0.2618  0.2010  0.3831
    6SAPS  H10X  772   2.085   5.062   5.298  0.4026  0.1097  0.9991
    6SAPS  H10Y  773   2.108   5.232   5.354  0.2375  0.0959  0.7112
    6SAPS  C311  774   1.957   5.212   5.204 -0.0657 -0.6506  0.3712
    6SAPS  H11X  775   1.904   5.307   5.225 -0.2777 -0.7119  0.1177
    6SAPS  H11Y  776   1.879   5.138   5.176 -1.0318 -0.2860  1.9899
    6SAPS  C312  777   2.049   5.207   5.089 -0.0142 -0.5221  0.0842
    6SAPS  H12X  778   2.070   5.105   5.052  0.8011 -0.3735  0.1036
    6SAPS  H12Y  779   2.144   5.257   5.117 -0.9873  2.4920 -1.5413
    6SAPS  C313  780   1.988   5.282   4.969 -0.6862  0.3589 -0.7622
    6SAPS  H13X  781   1.992   5.391   4.990  0.3056  0.4173 -1.2330
    6SAPS  H13Y  782   1.879   5.260   4.958 -0.5892 -2.1863  2.0068
    6SAPS  C314  783   2.071   5.257   4.842  0.2847 -0.3875 -0.5389
    6SAPS  H14X  784   2.059   5.151   4.811  1.6149 -0.9306  0.6443
    6SAPS  H14Y  785   2.179   5.279   4.860 -0.0594  1.8658 -0.9555
    6SAPS  C315  786   2.043   5.346   4.717  0.2655 -0.4391  0.0915
    6SAPS  H15X  787   2.056   5.448   4.757 -1.2077  0.2131 -1.0043
    6SAPS  H15Y  788   1.936   5.342   4.687 -0.3172  2.3658  1.5033
    6SAPS  C316  789   2.124   5.313   4.586 -0.4518 -0.2348 -0.5746
    6SAPS  H16X  790   2.119   5.204   4.566 -0.8763  0.2626 -3.8327
    6SAPS  H16Y  791   2.229   5.332   4.615 -1.1173 -0.2049  2.0479
    6SAPS  C317  792   2.086   5.403   4.470  0.7080 -0.3304  0.0699
    6SAPS  H17X  793   2.081   5.510   4.499 -0.4890 -0.6759  1.2581
    6SAPS  H17Y  794   1.983   5.371   4.445  0.7234 -0.3730  0.0616
    6SAPS  C318  795   2.169   5.377   4.339 -0.0656  0.6505 -0.3881
    6SAPS  H18X  796   2.158   5.269   4.317 -1.8439  0.6885  0.1484
    6SAPS  H18Y  797   2.275   5.399   4.360 -0.3490  1.6591  0.0350
    6SAPS  H18Z  798   2.127   5.440   4.258 -1.7238 -1.6051 -1.3764
    7SAPS     N  799   3.629   6.605   6.922 -0.1492 -0.0524  0.4036
    7SAPS   HN1  800   3.689   6.682   6.886 -2.1228  1.2081 -0.3231
    7SAPS   HN2  801   3.653   6.582   7.020 -0.1380  0.3842  0.5050
    7SAPS   HN3  802   3.646   6.517   6.869  0.6504  0.4630 -0.2299
    7SAPS   C12  803   3.486   6.650   6.917  0.2658  0.7126  0.0399
    7SAPS  H12A  804   3.424   6.563   6.898 -0.1485  0.4062  2.5210
    7SAPS   C13  805   3.437   6.711   7.049 -0.0723  0.2930  0.6836
    7SAPS  O13A  806   3.518   6.716   7.148  0.6571  0.0492  0.2730
    7SAPS  O13B  807   3.323   6.761   7.050  0.1708 -0.3096  0.0481
    7SAPS   C11  808   3.478   6.751   6.799  0.5026  0.0707 -0.4464
    7SAPS  H11A  809   3.374   6.791   6.790  0.9346  1.0533 -1.1730
    7SAPS  H11B  810   3.489   6.690   6.707 -1.0947 -1.5365  0.3693
    7SAPS     P  811   3.709   6.852   6.719 -0.0538 -0.0567 -0.0256
    7SAPS   O13  812   3.787   6.965   6.766 -0.5611 -0.0037 -0.0229
    7SAPS   O14  813   3.767   6.715   6.734  0.5665 -0.2461 -0.5566
    7SAPS   O12  814   3.579   6.854   6.806  0.6830 -0.1669 -0.5824
    7SAPS   O11  815   3.657   6.876   6.568  0.3060 -0.5339 -0.1146
    7SAPS    C1  816   3.533   6.943   6.540  0.3193 -0.5429 -0.5418
    7SAPS    HA  817   3.443   6.886   6.574  0.1589 -1.1959 -2.0189
    7SAPS    HB  818   3.527   7.048   6.578 -0.4998  0.2259 -2.6839
    7SAPS    C2  819   3.513   6.951   6.383 -0.5988  0.0659  0.0856
    7SAPS    HS  820   3.408   6.985   6.372 -1.3894 -2.0667  0.5920
    7SAPS   O21  821   3.542   6.834   6.304 -0.2006  0.3352 -0.0028
    7SAPS   C21  822   3.454   6.738   6.320 -0.1053 -0.2899  0.7858
    7SAPS   O22  823   3.347   6.754   6.377 -0.3095  0.3462  0.7687
    7SAPS   C22  824   3.492   6.614   6.241 -0.3381  0.0128 -0.4122
    7SAPS   H2R  825   3.600   6.614   6.213  0.5958 -0.6598  2.7631
    7SAPS   H2S  826   3.473   6.518   6.294 -1.4380 -0.2998 -1.3294
    7SAPS    C3  827   3.603   7.065   6.321  0.3297  0.5057 -0.2366
    7SAPS    HX  828   3.708   7.032   6.306 -0.0262  0.1721 -2.3512
    7SAPS    HY  829   3.602   7.155   6.387 -0.9003  1.9524 -2.1109
    7SAPS   O31  830   3.544   7.108   6.199  0.2944  0.0087 -0.3993
    7SAPS   C31  831   3.619   7.096   6.088 -0.1443 -0.1033  0.3209
    7SAPS   O32  832   3.733   7.060   6.078 -0.6538  0.0504 -0.0602
    7SAPS   C32  833   3.526   7.123   5.973 -0.1807  0.1230 -0.1326
    7SAPS   H2X  834   3.486   7.227   5.980  1.0511  0.6546 -0.6612
    7SAPS   H2Y  835   3.439   7.053   5.973  0.6189 -0.9247 -1.4808
    7SAPS   C23  836   3.399   6.596   6.114 -0.7493  0.9311 -0.3720
    7SAPS   H3R  837   3.399   6.696   6.064  0.2186  0.9738 -0.3075
    7SAPS   H3S  838   3.299   6.574   6.158 -0.4037 -1.2576 -0.5781
    7SAPS   C24  839   3.447   6.492   6.020  0.2201 -0.4171 -0.7420
    7SAPS   H4R  840   3.546   6.512   5.974  0.6920  0.7629  0.6860
    7SAPS   H4S  841   3.381   6.469   5.934  0.3380 -3.0754 -0.2039
    7SAPS   C25  842   3.451   6.359   6.091 -0.3366 -0.4835 -0.0401
    7SAPS   H5R  843   3.347   6.332   6.113 -1.0943  0.6030 -2.0678
    7SAPS   C26  844   3.559   6.279   6.123  0.4159 -0.5089 -0.6885
    7SAPS   H6R  845   3.532   6.194   6.187  0.3523  0.4242  0.5588
    7SAPS   C27  846   3.705   6.306   6.099  0.4500 -0.5407 -0.0814
    7SAPS   H7R  847   3.752   6.340   6.194 -0.0272 -1.2108  0.4092
    7SAPS   H7S  848   3.715   6.384   6.021  0.5625 -0.5825 -0.1096
    7SAPS   C28  849   3.794   6.198   6.055 -0.3292  0.9834 -0.2706
    7SAPS   H8R  850   3.805   6.122   6.134  1.3836  1.0167 -0.4374
    7SAPS   C29  851   3.849   6.168   5.932  0.8335 -0.0912  0.4897
    7SAPS   H9R  852   3.907   6.076   5.919  1.4969  0.5646 -1.6717
    7SAPS  C210  853   3.841   6.244   5.799  0.0355 -0.1515  0.3261
    7SAPS  H10R  854   3.922   6.213   5.730 -1.3064 -3.1614 -0.0151
    7SAPS  H10S  855   3.857   6.352   5.821 -0.0636  0.0750 -0.6318
    7SAPS  C211  856   3.709   6.236   5.732  0.6099  0.2768 -0.3917
    7SAPS  H11R  857   3.621   6.221   5.796 -0.4318  0.0718 -1.8160
    7SAPS  C212  858   3.678   6.273   5.609  0.7236  0.0531  0.6674
    7SAPS  H12R  859   3.574   6.274   5.573  1.3185 -1.5102 -1.3177
    7SAPS  C213  860   3.778   6.327   5.507  0.1111  0.0968  0.3012
    7SAPS  H13R  861   3.845   6.399   5.558  0.5363 -0.0339 -0.0678
    7SAPS  H13S  862   3.723   6.386   5.431  2.0795 -0.8953 -2.0056
    7SAPS  C214  863   3.864   6.221   5.441  0.0709 -0.0324  0.1103
    7SAPS  H14R  864   3.854   6.128   5.498 -0.5131 -0.2411 -0.3247
    7SAPS  C215  865   3.945   6.233   5.328 -0.1402 -0.1828  0.3372
    7SAPS  H15R  866   3.998   6.143   5.293 -1.3478  0.2926 -3.0760
    7SAPS  C216  867   3.962   6.353   5.248 -0.6130  0.2120  0.3354
    7SAPS  H16R  868   4.067   6.381   5.273 -0.3127 -0.8379  0.2931
    7SAPS  H16S  869   3.896   6.441   5.265  0.1373  0.9031 -0.2136
    7SAPS  C217  870   3.964   6.342   5.091 -0.2524 -0.2719 -0.0068
    7SAPS  H17R  871   4.051   6.278   5.066  0.0827  0.1001  0.1944
    7SAPS  H17S  872   3.982   6.445   5.051  3.5317 -0.9385 -0.4118
    7SAPS  C218  873   3.837   6.274   5.034  0.6572  0.6718 -0.4009
    7SAPS  H18R  874   3.751   6.335   5.070 -0.6159 -0.0524 -2.0710
    7SAPS  H18S  875   3.818   6.174   5.076 -0.0443  0.4405 -1.2346
    7SAPS  C219  876   3.842   6.254   4.879  0.1410 -0.4202  0.1948
    7SAPS  H19R  877   3.871   6.349   4.829 -0.9306  0.4242  1.1268
    7SAPS  H19S  878   3.739   6.221   4.852  0.7079 -1.8475 -0.3012
    7SAPS  C220  879   3.944   6.145   4.834 -0.6229 -0.0907  0.4309
    7SAPS  H20R  880   3.892   6.069   4.772  1.7133 -1.2245 -0.2154
    7SAPS  H20S  881   3.986   6.095   4.924 -0.2286  0.7391  0.7160
    7SAPS  H20T  882   4.032   6.195   4.789 -0.5137 -1.3516 -0.8096
    7SAPS   C33  883   3.597   7.103   5.836 -0.2946 -1.0516  0.2214
    7SAPS   H3X  884   3.655   7.008   5.831 -1.2918 -1.6966  0.6189
    7SAPS   H3Y  885   3.665   7.187   5.812 -2.5715  0.3571 -1.8395
    7SAPS   C34  886   3.506   7.113   5.712  0.4552 -0.3060 -0.5342
    7SAPS   H4X  887   3.440   7.202   5.722 -1.4910 -1.7939  0.8064
    7SAPS   H4Y  888   3.426   7.038   5.730  1.0519 -0.2994  2.7846
    7SAPS   C35  889   3.585   7.097   5.585  0.5689 -0.6510 -0.0449
    7SAPS   H5X  890   3.644   7.004   5.574  0.0678 -0.9019 -0.6803
    7SAPS   H5Y  891   3.649   7.187   5.574 -2.6405  1.8137 -0.0509
    7SAPS   C36  892   3.488   7.084   5.467  0.4077  0.1941  0.6467
    7SAPS   H6X  893   3.405   7.158   5.464  1.6889  1.6988  0.9892
    7SAPS   H6Y  894   3.433   6.988   5.467  0.6416  0.0353 -0.8625
    7SAPS   C37  895   3.552   7.087   5.327 -0.8019 -0.4001  0.0572
    7SAPS   H7X  896   3.649   7.033   5.335 -0.7818 -0.5291 -0.8955
    7SAPS   H7Y  897   3.581   7.192   5.305  1.1327 -1.0061 -0.5049
    7SAPS   C38  898   3.448   7.039   5.227 -0.7268 -0.2542 -0.7882
    7SAPS   H8X  899   3.352   7.093   5.241  0.9981  3.5484 -2.2556
    7SAPS   H8Y  900   3.434   6.930   5.245  2.4471 -1.0628 -2.4071
    7SAPS   C39  901   3.496   7.046   5.079  0.0333  0.8153 -0.1905
    7SAPS   H9X  902   3.593   6.995   5.066 -0.8693 -0.4828 -2.2977
    7SAPS   H9Y  903   3.515   7.151   5.046  1.3363  0.1244 -1.7578
    7SAPS  C310  904   3.401   6.973   4.982 -0.7243  0.2258 -0.5445
    7SAPS  H10X  905   3.298   7.012   4.997 -0.2401  1.0037  1.0068
    7SAPS  H10Y  906   3.406   6.866   5.013  2.0313  0.2408 -0.7209
    7SAPS  C311  907   3.444   6.992   4.832 -0.6276  0.3835  0.4857
    7SAPS  H11X  908   3.420   6.909   4.762  0.9789  0.4730 -0.2244
    7SAPS  H11Y  909   3.554   7.007   4.830 -0.3512 -0.6545 -4.2852
    7SAPS  C312  910   3.371   7.116   4.771 -0.6599  0.2212  0.7712
    7SAPS  H12X  911   3.362   7.198   4.846 -0.2611 -0.7718  1.9341
    7SAPS  H12Y  912   3.263   7.097   4.751 -1.5495  2.9141  2.4977
    7SAPS  C313  913   3.416   7.173   4.632  0.0636 -0.3989  0.0578
    7SAPS  H13X  914   3.513   7.223   4.649 -1.3448  2.8009 -0.4231
    7SAPS  H13Y  915   3.338   7.246   4.599 -1.4014 -2.1048 -0.3891
    7SAPS  C314  916   3.431   7.060   4.526 -0.3357  0.2458  0.1027
    7SAPS  H14X  917   3.343   6.993   4.532  0.3887 -0.6322  1.2372
    7SAPS  H14Y  918   3.524   7.006   4.553 -0.6641 -0.2141  0.3291
    7SAPS  C315  919   3.451   7.121   4.388 -0.9484  0.3732  0.5193
    7SAPS  H15X  920   3.551   7.170   4.393  0.4225 -2.1384 -0.2782
    7SAPS  H15Y  921   3.373   7.196   4.362 -1.7283 -1.0278 -1.4099
    7SAPS  C316  922   3.459   7.014   4.275 -0.0729  0.3586 -0.3908
    7SAPS  H16X  923   3.364   6.957   4.277  0.5395 -0.7363 -1.3124
    7SAPS  H16Y  924   3.541   6.945   4.304  0.5166  1.4808  0.7423
    7SAPS  C317  925   3.495   7.065   4.139 -0.3452 -0.2862 -0.6465
    7SAPS  H17X  926   3.477   6.982   4.067 -0.4147  0.4000 -1.4369
    7SAPS  H17Y  927   3.597   7.107   4.135 -0.9828  1.2477 -1.9604
    7SAPS  C318  928   3.405   7.178   4.093  0.0768  0.2702  0.3400
    7SAPS  H18X  929   3.430   7.192   3.986  1.7992  2.2474  0.9408
    7SAPS  H18Y  930   3.414   7.275   4.147 -0.8241  1.3466 -1.3420
    7SAPS  H18Z  931   3.300   7.144   4.107 -1.1226  2.8739 -1.5092
    8SAPS     N  932   2.612   0.531   6.752 -0.2347 -0.2843 -0.2441
    8SAPS   HN1  933   2.625   0.547   6.854  3.2772  1.6757 -0.8398
    8SAPS   HN2  934   2.542   0.454   6.744 -1.9667  1.1788  0.2716
    8SAPS   HN3  935   2.702   0.518   6.701 -0.7857  1.2384 -1.6945
    8SAPS   C12  936   2.543   0.649   6.695  0.0488 -0.9049 -0.3818
    8SAPS  H12A  937   2.445   0.651   6.742  0.5277 -0.2112  0.6404
    8SAPS   C13  938   2.600   0.784   6.746  0.4262  0.0415  0.0994
    8SAPS  O13A  939   2.691   0.793   6.832  0.1813  0.4593 -0.1647
    8SAPS  O13B  940   2.569   0.886   6.676 -0.1467 -0.0504 -0.4306
    8SAPS   C11  941   2.526   0.629   6.540  0.4623  0.2825  0.3622
    8SAPS  H11A  942   2.623   0.623   6.485 -0.1528  0.1909 -0.7471
    8SAPS  H11B  943   2.472   0.717   6.500 -2.0237 -0.7276  1.3027
    8SAPS     P  944   2.292   0.495   6.510 -0.0677 -0.0834 -0.0813
    8SAPS   O13  945   2.268   0.350   6.496 -0.3442  0.4136 -0.1645
    8SAPS   O14  946   2.227   0.553   6.632  0.1569 -0.1549 -0.2754
    8SAPS   O12  947   2.445   0.513   6.523 -0.4791 -0.4192  0.4353
    8SAPS   O11  948   2.239   0.570   6.382 -0.0983 -0.7517 -0.3818
    8SAPS    C1  949   2.307   0.571   6.255  0.5650 -0.0158  0.1090
    8SAPS    HA  950   2.370   0.663   6.251  0.2646  0.1889  0.0692
    8SAPS    HB  951   2.376   0.485   6.238 -0.0235 -0.3642 -0.5558
    8SAPS    C2  952   2.197   0.576   6.139  0.1529  0.3607 -0.0815
    8SAPS    HS  953   2.113   0.505   6.157 -1.1031  1.8023 -0.0823
    8SAPS   O21  954   2.274   0.555   6.023  0.0521  0.0845 -0.1810
    8SAPS   C21  955   2.296   0.434   5.984  1.1506 -0.0254 -0.1232
    8SAPS   O22  956   2.246   0.331   6.032  0.2639 -0.6307 -1.1116
    8SAPS   C22  957   2.389   0.429   5.869  0.0402 -0.1820 -0.3422
    8SAPS   H2R  958   2.337   0.475   5.782  1.0787 -1.3291 -1.6246
    8SAPS   H2S  959   2.477   0.495   5.878  0.1454 -0.3337 -0.2415
    8SAPS    C3  960   2.135   0.721   6.141 -0.2443  0.3158 -0.0250
    8SAPS    HX  961   2.206   0.806   6.153 -2.0575  2.0140 -0.8883
    8SAPS    HY  962   2.065   0.729   6.227  1.0088  0.3772  1.0187
    8SAPS   O31  963   2.054   0.736   6.022 -0.1549  0.3277  0.0845
    8SAPS   C31  964   2.104   0.805   5.923  1.0523 -0.6427  0.2442
    8SAPS   O32  965   2.216   0.850   5.928  0.3970 -1.0076  0.6528
    8SAPS   C32  966   1.993   0.831   5.815 -0.4184  0.2159  0.1063
    8SAPS   H2X  967   1.932   0.917   5.850 -2.0081 -0.5882 -0.6356
    8SAPS   H2Y  968   1.928   0.741   5.806 -1.2174  0.6285  1.4585
    8SAPS   C23  969   2.451   0.288   5.846 -0.0827 -0.5148  0.2065
    8SAPS   H3R  970   2.372   0.226   5.798  1.3654 -2.0271 -0.3368
    8SAPS   H3S  971   2.471   0.238   5.944 -2.3946 -1.8723  0.0380
    8SAPS   C24  972   2.578   0.282   5.750  0.3047  0.6472  1.4321
    8SAPS   H4R  973   2.646   0.365   5.781  0.9670  1.0100 -0.8441
    8SAPS   H4S  974   2.545   0.309   5.648 -0.5710 -2.8516  0.6846
    8SAPS   C25  975   2.651   0.145   5.755  0.9160  0.3341  0.1277
    8SAPS   H5R  976   2.666   0.114   5.859  0.6721  0.9085  0.3383
    8SAPS   C26  977   2.708   0.068   5.661 -1.0778  0.4842  0.1924
    8SAPS   H6R  978   2.765  -0.022   5.690 -1.4432  0.0314 -0.4586
    8SAPS   C27  979   2.706   0.092   5.512  0.8360 -0.4813 -0.2614
    8SAPS   H7R  980   2.729  -0.010   5.473 -0.6338 -0.4155 -1.3883
    8SAPS   H7S  981   2.785   0.165   5.486 -0.9624  1.3792 -0.7651
    8SAPS   C28  982   2.568   0.115   5.460  0.6558 -0.0074  0.6963
    8SAPS   H8R  983   2.478   0.092   5.519 -0.1306  0.3326 -0.3332
    8SAPS   C29  984   2.523   0.164   5.337 -0.0233  0.1789 -0.4639
    8SAPS   H9R  985   2.417   0.165   5.309 -0.1356 -0.1674 -0.0585
    8SAPS  C210  986   2.620   0.210   5.232 -0.4968  0.6788 -0.1603
    8SAPS  H10R  987   2.645   0.117   5.176  1.5212  1.8766 -1.3762
    8SAPS  H10S  988   2.709   0.256   5.280 -1.1858  2.3022 -0.3940
    8SAPS  C211  989   2.564   0.314   5.142 -0.5546  0.5810 -0.6713
    8SAPS  H11R  990   2.533   0.399   5.205  0.5642 -0.2895  1.1456
    8SAPS  C212  991   2.556   0.307   5.009  0.1888 -1.2874 -0.0192
    8SAPS  H12R  992   2.493   0.384   4.963  1.7091  0.0966  0.1389
    8SAPS  C213  993   2.605   0.195   4.919  0.0414  0.0680  0.5595
    8SAPS  H13R  994   2.690   0.139   4.964  0.8460 -0.6878 -1.7691
    8SAPS  H13S  995   2.657   0.244   4.834  2.4890 -1.6695  0.9634
    8SAPS  C214  996   2.495   0.109   4.863  0.1477  0.3985 -0.7413
    8SAPS  H14R  997   2.436   0.065   4.945  0.0390  0.1522 -0.9494
    8SAPS  C215  998   2.447   0.096   4.740  0.1374 -0.3153 -0.4339
    8SAPS  H15R  999   2.368   0.022   4.724  0.2773 -0.9623  1.6320
    8SAPS  C216 1000   2.517   0.151   4.613  0.0992 -0.5249  0.4157
    8SAPS  H16R 1001   2.622   0.179   4.635  0.2467 -1.0317  0.3843
    8SAPS  H16S 1002   2.457   0.232   4.568 -0.6883 -0.1586  2.0519
    8SAPS  C217 1003   2.549   0.054   4.495 -0.0745  0.4771 -0.0937
    8SAPS  H17R 1004   2.613   0.113   4.426 -0.7120 -0.8946 -1.9374
    8SAPS  H17S 1005   2.452   0.032   4.446 -0.5465  0.2559  0.9101
    8SAPS  C218 1006   2.633  -0.072   4.534 -0.1263 -0.1110 -0.1819
    8SAPS  H18R 1007   2.575  -0.144   4.596  2.1616  1.4834  4.2034
    8SAPS  H18S 1008   2.714  -0.046   4.605  1.5344  1.0103 -2.3573
    8SAPS  C219 1009   2.693  -0.149   4.414  0.1800  0.2393  0.9234
    8SAPS  H19R 1010   2.740  -0.075   4.347 -0.7097  0.1439  0.1755
    8SAPS  H19S 1011   2.620  -0.207   4.354  1.7402 -1.0538  0.2318
    8SAPS  C220 1012   2.801  -0.246   4.458  0.1515  0.5878 -0.1412
    8SAPS  H20R 1013   2.901  -0.202   4.476 -0.4406  1.9197  0.0909
    8SAPS  H20S 1014   2.815  -0.322   4.379 -1.7091  0.6517 -0.5773
    8SAPS  H20T 1015   2.778  -0.306   4.549  0.4155 -0.1273 -0.5451
    8SAPS   C33 1016   2.060   0.889   5.688  0.7904  0.1908  0.0496
    8SAPS   H3X 1017   2.133   0.968   5.716 -0.5654  0.9142  1.7342
    8SAPS   H3Y 1018   1.988   0.941   5.622  2.0022  0.6359 -0.9683
    8SAPS   C34 1019   2.130   0.784   5.601  0.3091  0.4255  0.1898
    8SAPS   H4X 1020   2.051   0.707   5.585 -0.0028  0.5493  1.1106
    8SAPS   H4Y 1021   2.214   0.744   5.661 -1.4652 -2.1404  1.1500
    8SAPS   C35 1022   2.173   0.836   5.460  0.9803  0.2041 -1.2258
    8SAPS   H5X 1023   2.201   0.943   5.474 -1.4176  0.9622 -1.8175
    8SAPS   H5Y 1024   2.081   0.832   5.398  0.6851 -1.1558 -0.7356
    8SAPS   C36 1025   2.282   0.753   5.395  0.5105  0.0469 -0.5997
    8SAPS   H6X 1026   2.252   0.646   5.393 -1.9484  0.6826 -1.1115
    8SAPS   H6Y 1027   2.378   0.771   5.447  0.4796 -0.2210 -0.4450
    8SAPS   C37 1028   2.326   0.796   5.254  0.3654  0.5119 -0.3028
    8SAPS   H7X 1029   2.417   0.744   5.217  0.6848  1.3588 -0.7419
    8SAPS   H7Y 1030   2.350   0.903   5.270  0.3101  0.3524  0.9498
    8SAPS   C38 1031   2.214   0.788   5.143 -0.1913 -0.4720 -0.7108
    8SAPS   H8X 1032   2.114   0.825   5.176  0.9955  0.5342  2.0352
    8SAPS   H8Y 1033   2.211   0.681   5.115  2.1751 -0.6105 -0.6060
    8SAPS   C39 1034   2.251   0.863   5.015 -0.3811 -0.1268  0.2989
    8SAPS   H9X 1035   2.214   0.802   4.930 -0.5052 -1.9416  1.5905
    8SAPS   H9Y 1036   2.362   0.872   5.014 -0.2205 -1.7845  0.1379
    8SAPS  C310 1037   2.178   1.000   5.015  0.7742  0.4251 -0.0304
    8SAPS  H10X 1038   2.225   1.068   5.090 -2.2117  1.9088  0.6181
    8SAPS  H10Y 1039   2.070   1.003   5.037  0.7900 -0.3600  0.1936
    8SAPS  C311 1040   2.173   1.054   4.870 -0.2142  0.5113 -0.9009
    8SAPS  H11X 1041   2.271   1.026   4.827 -0.1733 -0.0528 -0.4558
    8SAPS  H11Y 1042   2.163   1.165   4.867  0.9201  0.6573 -0.1642
    8SAPS  C312 1043   2.056   0.988   4.791 -0.8949  0.2563  0.1097
    8SAPS  H12X 1044   1.979   0.960   4.865 -2.1306 -1.9228 -1.8694
    8SAPS  H12Y 1045   2.095   0.897   4.740 -3.3807 -0.1156 -1.2464
    8SAPS  C313 1046   1.995   1.082   4.674  0.1575 -0.1369 -0.1808
    8SAPS  H13X 1047   2.078   1.114   4.608  0.2974 -0.1737 -0.0218
    8SAPS  H13Y 1048   1.950   1.175   4.714  1.2447 -0.0870  1.0125
    8SAPS  C314 1049   1.886   1.011   4.595 -0.0682  0.2138 -0.2774
    8SAPS  H14X 1050   1.797   0.990   4.657  0.8757  1.1456  1.4643
    8SAPS  H14Y 1051   1.926   0.909   4.577 -1.2545  0.0247 -2.2211
    8SAPS  C315 1052   1.816   1.086   4.474  0.3495  0.2473 -0.6514
    8SAPS  H15X 1053   1.745   1.004   4.451 -0.4039  0.1305  1.7433
    8SAPS  H15Y 1054   1.893   1.114   4.399 -0.2145 -0.9420 -1.7173
    8SAPS  C316 1055   1.741   1.212   4.507  0.1372  0.3435  0.2558
    8SAPS  H16X 1056   1.810   1.283   4.558  0.1525  1.4450 -1.2377
    8SAPS  H16Y 1057   1.666   1.191   4.587  0.7733  1.0529  1.0658
    8SAPS  C317 1058   1.674   1.272   4.383 -0.0929  0.1709 -0.2044
    8SAPS  H17X 1059   1.603   1.194   4.349  0.7721 -0.5712 -0.3370
    8SAPS  H17Y 1060   1.745   1.298   4.302 -0.8316  1.8972 -0.3424
    8SAPS  C318 1061   1.588   1.403   4.412 -0.3600  0.8727  0.4310
    8SAPS  H18X 1062   1.654   1.478   4.459 -1.4212  1.5565  0.8425
    8SAPS  H18Y 1063   1.518   1.386   4.496 -0.0344  0.6571  0.6634
    8SAPS  H18Z 1064   1.545   1.450   4.321  1.1405 -1.4951 -1.6660
    9SAPS     N 1065   0.299   5.867   6.550  0.4108  0.0268 -0.2346
    9SAPS   HN1 1066   0.274   5.780   6.602  1.5928 -0.3641 -0.3061
    9SAPS   HN2 1067   0.282   5.845   6.450  0.5771 -0.7856 -0.0931
    9SAPS   HN3 1068   0.400   5.886   6.563 -0.0729  1.6622  1.4919
    9SAPS   C12 1069   0.204   5.978   6.584 -0.0931  0.4317 -0.1330
    9SAPS  H12A 1070   0.175   6.023   6.490  0.6515  2.2774  0.4802
    9SAPS   C13 1071   0.066   5.936   6.645 -0.4170 -0.0152 -0.7883
    9SAPS  O13A 1072   0.021   5.818   6.650 -0.1639  0.5629 -0.2973
    9SAPS  O13B 1073   0.000   6.028   6.698  0.4591  0.3910 -0.1921
    9SAPS   C11 1074   0.277   6.092   6.661  0.0705  0.0013 -0.1550
    9SAPS  H11A 1075   0.301   6.054   6.762  0.4829  0.7640  0.0348
    9SAPS  H11B 1076   0.212   6.182   6.649 -0.4539 -0.4050 -0.4385
    9SAPS     P 1077   0.529   6.171   6.656 -0.2183 -0.2028  0.4331
    9SAPS   O13 1078   0.499   6.216   6.790 -0.4919  0.2495  0.5767
    9SAPS   O14 1079   0.639   6.071   6.645  0.1795 -0.3248 -0.7666
    9SAPS   O12 1080   0.397   6.119   6.583 -0.4267  0.3269 -0.2116
    9SAPS   O11 1081   0.581   6.303   6.574 -0.5702 -0.0581 -0.0232
    9SAPS    C1 1082   0.496   6.360   6.477 -0.1687 -0.2059  0.3108
    9SAPS    HA 1083   0.391   6.324   6.474  0.4127 -1.9501  0.1212
    9SAPS    HB 1084   0.473   6.463   6.511  0.9171  0.1181  0.1074
    9SAPS    C2 1085   0.557   6.361   6.327 -0.4078 -1.2823 -0.2789
    9SAPS    HS 1086   0.520   6.446   6.265  2.5763 -0.0536 -0.5489
    9SAPS   O21 1087   0.547   6.240   6.258  0.0134 -0.2423  0.2374
    9SAPS   C21 1088   0.424   6.206   6.226  0.5420  0.0145  0.3285
    9SAPS   O22 1089   0.325   6.277   6.229  0.0343 -0.3148  0.3513
    9SAPS   C22 1090   0.419   6.062   6.184 -0.0511 -0.7144 -0.1520
    9SAPS   H2R 1091   0.509   6.041   6.123 -0.8734 -0.3238 -1.5269
    9SAPS   H2S 1092   0.416   6.000   6.277 -1.7778 -0.8360 -0.2669
    9SAPS    C3 1093   0.708   6.410   6.337 -0.2023  0.2752  1.0223
    9SAPS    HX 1094   0.765   6.332   6.392  1.6087  1.2111  0.5637
    9SAPS    HY 1095   0.714   6.499   6.404  2.2192  0.4810  0.6315
    9SAPS   O31 1096   0.784   6.435   6.216 -0.6656  0.1217  0.6137
    9SAPS   C31 1097   0.744   6.543   6.150 -0.3625  0.1268 -0.0852
    9SAPS   O32 1098   0.645   6.609   6.186 -0.1256  0.2929 -0.1065
    9SAPS   C32 1099   0.838   6.570   6.037 -0.0039  0.2978 -0.2070
    9SAPS   H2X 1100   0.899   6.478   6.027 -1.8414 -1.1732  1.2233
    9SAPS   H2Y 1101   0.903   6.654   6.070 -2.3322  1.9237  0.5275
    9SAPS   C23 1102   0.309   6.033   6.081 -0.0649 -0.9886 -0.8218
    9SAPS   H3R 1103   0.210   6.054   6.126  1.1853  0.1208  1.6078
    9SAPS   H3S 1104   0.312   5.925   6.052  1.2105 -1.4433  0.8302
    9SAPS   C24 1105   0.320   6.114   5.956 -0.0292 -0.5777  0.0468
    9SAPS   H4R 1106   0.292   6.222   5.957 -2.3964 -1.1268 -0.8988
    9SAPS   H4S 1107   0.241   6.080   5.885 -0.8811 -0.5099  0.9407
    9SAPS   C25 1108   0.454   6.114   5.878  0.3857 -0.0927  0.3553
    9SAPS   H5R 1109   0.527   6.044   5.921 -0.2051 -0.5125  0.6983
    9SAPS   C26 1110   0.488   6.174   5.760  0.6305 -0.0446 -0.2364
    9SAPS   H6R 1111   0.587   6.160   5.713  0.6404 -1.9457  0.2878
    9SAPS   C27 1112   0.386   6.260   5.686 -0.2508  0.6112 -0.7250
    9SAPS   H7R 1113   0.442   6.347   5.645 -2.0249  2.5657  0.8176
    9SAPS   H7S 1114   0.319   6.318   5.753  2.9218  2.7546  0.8499
    9SAPS   C28 1115   0.299   6.174   5.591  0.6074 -0.0748 -0.4553
    9SAPS   H8R 1116   0.249   6.088   5.637 -1.7072  0.7112 -1.3955
    9SAPS   C29 1117   0.293   6.189   5.460 -0.4165  0.3965  0.0669
    9SAPS   H9R 1118   0.226   6.120   5.408 -1.4420  0.8791  0.7048
    9SAPS  C210 1119   0.367   6.288   5.375 -0.3541 -0.3801  0.4071
    9SAPS  H10R 1120   0.466   6.313   5.419  1.1943  0.2381 -3.1178
    9SAPS  H10S 1121   0.317   6.387   5.383  0.8805  0.6562 -2.9792
    9SAPS  C211 1122   0.382   6.238   5.232 -0.9323  0.4584 -0.0028
    9SAPS  H11R 1123   0.454   6.155   5.219  0.6549  1.1671  3.1838
    9SAPS  C212 1124   0.313   6.285   5.122  0.3562  0.2198 -0.4386
    9SAPS  H12R 1125   0.317   6.219   5.034 -2.9428 -1.8730  0.8181
    9SAPS  C213 1126   0.226   6.403   5.114 -0.6903  0.5139 -0.3869
    9SAPS  H13R 1127   0.283   6.488   5.070  1.6588 -1.4464 -1.4253
    9SAPS  H13S 1128   0.199   6.429   5.218  3.0442  1.1209  0.5804
    9SAPS  C214 1129   0.100   6.385   5.030  0.1747  0.4214 -0.2351
    9SAPS  H14R 1130   0.005   6.369   5.082 -1.2612  1.9192 -2.2281
    9SAPS  C215 1131   0.100   6.363   4.897  0.0630 -0.0323 -0.0686
    9SAPS  H15R 1132   0.002   6.345   4.852 -0.0835 -2.1625  0.9941
    9SAPS  C216 1133   0.216   6.366   4.798  0.1091 -0.1943 -0.0208
    9SAPS  H16R 1134   0.295   6.434   4.834 -1.2788  1.3973  0.1603
    9SAPS  H16S 1135   0.180   6.420   4.708  1.8074  0.4656 -0.3458
    9SAPS  C217 1136   0.270   6.234   4.744  0.5394  0.3870  0.4465
    9SAPS  H17R 1137   0.186   6.175   4.704  2.2026 -1.2388 -0.8261
    9SAPS  H17S 1138   0.328   6.176   4.819  1.4005  0.5760 -0.0599
    9SAPS  C218 1139   0.359   6.251   4.621 -0.1455 -0.2331 -0.3678
    9SAPS  H18R 1140   0.295   6.297   4.543 -1.8910  0.6992  1.5186
    9SAPS  H18S 1141   0.388   6.148   4.591 -0.5105 -1.4988  3.0746
    9SAPS  C219 1142   0.479   6.332   4.652 -0.3763  0.3738 -0.2460
    9SAPS  H19R 1143   0.527   6.306   4.749 -1.4379  1.6220  0.6476
    9SAPS  H19S 1144   0.444   6.437   4.658  0.5229  0.6160  1.3179
    9SAPS  C220 1145   0.582   6.330   4.538  0.3596  0.1834 -0.1858
    9SAPS  H20R 1146   0.666   6.402   4.529 -0.3510  0.7858 -2.6795
    9SAPS  H20S 1147   0.529   6.342   4.441 -0.6039  0.4920  0.3750
    9SAPS  H20T 1148   0.632   6.230   4.535 -0.2924 -0.2606  2.0003
    9SAPS   C33 1149   0.760   6.590   5.913  0.2865 -0.3372  0.2276
    9SAPS   H3X 1150   0.674   6.659   5.930  0.7223  0.7213 -1.5377
    9SAPS   H3Y 1151   0.713   6.493   5.887 -1.4550  1.3200 -3.6506
    9SAPS   C34 1152   0.842   6.638   5.792 -0.8974  0.1122 -0.6115
    9SAPS   H4X 1153   0.910   6.552   5.773 -0.4587  0.4350 -0.4903
    9SAPS   H4Y 1154   0.896   6.732   5.814 -0.6070 -0.4678  1.3820
    9SAPS   C35 1155   0.766   6.653   5.663 -0.0862  0.3333  0.4295
    9SAPS   H5X 1156   0.843   6.684   5.588  2.2180 -1.5899  1.8508
    9SAPS   H5Y 1157   0.691   6.734   5.669 -0.4735  0.3208 -2.6604
    9SAPS   C36 1158   0.679   6.530   5.605 -0.4178  0.3344  0.9141
    9SAPS   H6X 1159   0.597   6.505   5.675 -0.9541 -0.2107  0.1136
    9SAPS   H6Y 1160   0.739   6.437   5.603  0.6176  0.9154  2.6864
    9SAPS   C37 1161   0.617   6.558   5.470  0.0617 -0.1999  0.2654
    9SAPS   H7X 1162   0.618   6.668   5.453 -1.6430 -0.2440 -0.2253
    9SAPS   H7Y 1163   0.514   6.518   5.463 -0.0759  0.2359 -0.2076
    9SAPS   C38 1164   0.698   6.502   5.351 -0.2455  0.3466  0.3145
    9SAPS   H8X 1165   0.742   6.403   5.374 -0.5934 -0.1633 -1.0886
    9SAPS   H8Y 1166   0.786   6.568   5.334 -0.1699  1.1115  3.2375
    9SAPS   C39 1167   0.633   6.494   5.217  0.5989 -0.4171  0.4066
    9SAPS   H9X 1168   0.528   6.459   5.219 -0.0420  1.4323  0.9205
    9SAPS   H9Y 1169   0.678   6.409   5.161  2.2384 -1.2947  2.8816
    9SAPS  C310 1170   0.631   6.626   5.149 -0.1605  0.7697 -0.5290
    9SAPS  H10X 1171   0.736   6.662   5.142  0.0270  0.4836  0.5791
    9SAPS  H10Y 1172   0.577   6.704   5.206  2.3720 -0.1665  3.5350
    9SAPS  C311 1173   0.565   6.629   5.009 -0.0691  0.5303  0.3206
    9SAPS  H11X 1174   0.466   6.578   5.014  0.5283 -0.7952 -0.9171
    9SAPS  H11Y 1175   0.623   6.567   4.939 -1.1276 -1.7587  1.3631
    9SAPS  C312 1176   0.555   6.782   4.964 -0.6191 -0.3032 -0.3356
    9SAPS  H12X 1177   0.659   6.821   4.959 -0.1694 -1.1790  1.2465
    9SAPS  H12Y 1178   0.503   6.834   5.047 -2.0392 -0.6093 -1.0057
    9SAPS  C313 1179   0.483   6.799   4.831  0.3659 -0.3483  1.0242
    9SAPS  H13X 1180   0.444   6.902   4.816  1.7501  0.0711 -0.0030
    9SAPS  H13Y 1181   0.389   6.741   4.829 -0.6301  1.2246  0.0625
    9SAPS  C314 1182   0.566   6.755   4.717 -0.1167  0.0544  0.4329
    9SAPS  H14X 1183   0.549   6.648   4.694 -2.6032  0.4405  0.1325
    9SAPS  H14Y 1184   0.674   6.776   4.728  0.7718 -2.1365 -2.7598
    9SAPS  C315 1185   0.504   6.823   4.597  0.1801 -0.3323 -0.5125
    9SAPS  H15X 1186   0.532   6.930   4.590  3.0194 -1.0635 -1.9525
    9SAPS  H15Y 1187   0.394   6.822   4.609  0.3444 -1.7502  1.3548
    9SAPS  C316 1188   0.548   6.760   4.472 -0.1623  0.0709 -0.7055
    9SAPS  H16X 1189   0.578   6.656   4.499 -0.1016  0.1542 -0.4567
    9SAPS  H16Y 1190   0.632   6.812   4.422 -0.7064  0.4731 -1.2250
    9SAPS  C317 1191   0.434   6.742   4.368 -0.0671  0.1297  0.1598
    9SAPS  H17X 1192   0.346   6.725   4.432  0.2898 -1.1152  0.3465
    9SAPS  H17Y 1193   0.446   6.649   4.308  0.5687 -0.2562  0.8767
    9SAPS  C318 1194   0.410   6.859   4.270 -0.2641  0.0185  0.0920
    9SAPS  H18X 1195   0.495   6.891   4.206 -0.3600  0.7209  0.3072
    9SAPS  H18Y 1196   0.386   6.947   4.333  1.5469  0.9155 -0.3981
    9SAPS  H18Z 1197   0.320   6.844   4.207 -0.4745  0.5789  0.2533
   10SAPS     N 1198   1.659   5.447   6.746 -0.5270  0.0013 -0.0948
   10SAPS   HN1 1199   1.709   5.516   6.686 -1.0026  1.4117  1.0865
   10SAPS   HN2 1200   1.720   5.413   6.822  1.4216  0.2574 -1.4655
   10SAPS   HN3 1201   1.635   5.353   6.709  0.7523 -0.4855  0.2770
   10SAPS   C12 1202   1.540   5.524   6.800  0.5457 -0.8543 -0.4338
   10SAPS  H12A 1203   1.461   5.463   6.842 -1.4575  2.0656  0.3659
   10SAPS   C13 1204   1.586   5.637   6.890 -0.6788  0.4608  0.1245
   10SAPS  O13A 1205   1.714   5.659   6.900  0.4604  0.1124 -0.2206
   10SAPS  O13B 1206   1.506   5.720   6.939 -0.2220 -0.5835  0.3459
   10SAPS   C11 1207   1.457   5.579   6.680  0.1827 -0.2799  0.2089
   10SAPS  H11A 1208   1.528   5.637   6.617  0.1368 -0.8455 -0.3770
   10SAPS  H11B 1209   1.380   5.647   6.722 -0.7191 -0.8990 -0.4082
   10SAPS     P 1210   1.253   5.422   6.634 -0.0569  0.2510 -0.3085
   10SAPS   O13 1211   1.258   5.273   6.603 -0.0089 -0.1750 -0.0656
   10SAPS   O14 1212   1.214   5.466   6.769  0.0954 -0.2860 -0.0965
   10SAPS   O12 1213   1.394   5.485   6.594  0.5830  0.4521  0.2726
   10SAPS   O11 1214   1.150   5.483   6.537 -0.1869 -0.3896 -0.9690
   10SAPS    C1 1215   1.139   5.622   6.501 -0.1617 -0.1993  0.0789
   10SAPS    HA 1216   1.037   5.654   6.533  0.1263 -1.0689  2.0269
   10SAPS    HB 1217   1.211   5.693   6.547  1.9827 -2.2389 -0.0059
   10SAPS    C2 1218   1.146   5.634   6.344 -0.7059 -0.5921 -0.3512
   10SAPS    HS 1219   1.109   5.736   6.324 -0.5996 -0.4679  0.0590
   10SAPS   O21 1220   1.082   5.533   6.269 -0.2822  0.2190 -0.4379
   10SAPS   C21 1221   0.954   5.566   6.247 -0.3351  0.4675  0.1904
   10SAPS   O22 1222   0.907   5.673   6.274 -0.7701 -0.3348  0.3266
   10SAPS   C22 1223   0.876   5.446   6.187  0.2304  0.7429 -0.2599
   10SAPS   H2R 1224   0.957   5.380   6.149  0.2455  0.5672  0.0705
   10SAPS   H2S 1225   0.823   5.405   6.276  0.3685  0.2299 -0.4080
   10SAPS    C3 1226   1.296   5.636   6.298 -0.1908 -0.0826  0.0215
   10SAPS    HX 1227   1.358   5.548   6.327  1.4066  0.6287 -1.1010
   10SAPS    HY 1228   1.342   5.722   6.352 -0.7372 -0.0982  0.5228
   10SAPS   O31 1229   1.301   5.650   6.156  0.5127  0.4540  0.1266
   10SAPS   C31 1230   1.321   5.534   6.089  0.3913 -0.0848  0.8358
   10SAPS   O32 1231   1.307   5.422   6.134  0.3101 -0.8187  0.2437
   10SAPS   C32 1232   1.342   5.573   5.942  0.4339 -0.0970  0.1492
   10SAPS   H2X 1233   1.448   5.589   5.912  0.2495 -0.7554 -0.9011
   10SAPS   H2Y 1234   1.275   5.658   5.918 -0.3792 -1.1864 -1.7192
   10SAPS   C23 1235   0.776   5.486   6.078  0.7556 -0.3264  0.8725
   10SAPS   H3R 1236   0.716   5.571   6.117  1.0125  0.3399 -0.1315
   10SAPS   H3S 1237   0.711   5.399   6.055  1.1045 -0.4103  0.1831
   10SAPS   C24 1238   0.826   5.525   5.938 -0.0470  0.1280  0.0938
   10SAPS   H4R 1239   0.871   5.432   5.896 -0.9472  0.1251 -0.9168
   10SAPS   H4S 1240   0.906   5.601   5.952  1.0735 -0.7920 -1.0521
   10SAPS   C25 1241   0.710   5.561   5.845  0.1420 -0.3555 -0.2244
   10SAPS   H5R 1242   0.606   5.552   5.879 -0.0227 -0.4364 -0.7367
   10SAPS   C26 1243   0.712   5.617   5.727 -0.0646 -0.1610 -0.1071
   10SAPS   H6R 1244   0.617   5.653   5.685 -0.1618 -0.6712 -0.3315
   10SAPS   C27 1245   0.834   5.640   5.640 -0.2344 -0.0227  0.4590
   10SAPS   H7R 1246   0.883   5.541   5.636 -1.9909 -0.9738  1.4520
   10SAPS   H7S 1247   0.903   5.705   5.698 -1.0963  0.8105  0.5926
   10SAPS   C28 1248   0.805   5.678   5.497 -0.3239  0.2218 -0.5016
   10SAPS   H8R 1249   0.762   5.591   5.446  0.5239 -0.8143  0.5036
   10SAPS   C29 1250   0.800   5.801   5.447  0.2011 -0.0585  0.0711
   10SAPS   H9R 1251   0.776   5.798   5.339  2.4931 -3.2126 -0.5018
   10SAPS  C210 1252   0.816   5.939   5.511  0.6462 -0.1232  0.4228
   10SAPS  H10R 1253   0.923   5.967   5.492  0.4885 -0.5107 -1.2315
   10SAPS  H10S 1254   0.803   5.936   5.621  0.9748  2.1598  0.5817
   10SAPS  C211 1255   0.729   6.042   5.442  0.4010  0.4890 -0.0178
   10SAPS  H11R 1256   0.636   6.062   5.499 -0.1908  2.2601 -1.5058
   10SAPS  C212 1257   0.743   6.102   5.321  0.1077  0.7840  0.2121
   10SAPS  H12R 1258   0.666   6.164   5.272  0.2546  1.1417  0.4287
   10SAPS  C213 1259   0.869   6.075   5.234  0.3566  0.6514  0.2443
   10SAPS  H13R 1260   0.845   6.007   5.149  2.8634 -0.7141  0.5410
   10SAPS  H13S 1261   0.952   6.021   5.283  0.7155  0.7145 -0.2794
   10SAPS  C214 1262   0.927   6.204   5.183 -0.2415  0.1479  0.1641
   10SAPS  H14R 1263   0.998   6.253   5.250 -0.3244  2.5760 -1.3894
   10SAPS  C215 1264   0.912   6.255   5.061 -0.2893 -0.3381  0.4251
   10SAPS  H15R 1265   0.952   6.355   5.044 -1.2692  0.2935  1.6685
   10SAPS  C216 1266   0.854   6.195   4.936 -0.2271 -0.7891  0.5717
   10SAPS  H16R 1267   0.780   6.263   4.889  0.5050 -1.2681 -1.3824
   10SAPS  H16S 1268   0.797   6.102   4.953  2.0064 -2.3432  0.0515
   10SAPS  C217 1269   0.950   6.167   4.824 -1.2575 -0.8413  0.3777
   10SAPS  H17R 1270   1.020   6.086   4.854  0.7061  0.6832  0.1155
   10SAPS  H17S 1271   1.016   6.251   4.793 -0.0318 -0.9477  2.5456
   10SAPS  C218 1272   0.883   6.128   4.692 -0.7143  0.3693  0.6058
   10SAPS  H18R 1273   0.788   6.185   4.677 -0.9471 -0.1803 -0.0952
   10SAPS  H18S 1274   0.848   6.024   4.709  0.8927 -0.1997  0.5124
   10SAPS  C219 1275   0.977   6.127   4.577  0.5660 -0.1050 -0.6692
   10SAPS  H19R 1276   1.086   6.124   4.599  0.4091 -0.1721  0.1443
   10SAPS  H19S 1277   0.967   6.225   4.525 -2.7494 -0.2090 -0.4418
   10SAPS  C220 1278   0.944   6.014   4.486 -0.0459  0.1156 -0.1425
   10SAPS  H20R 1279   0.999   6.017   4.389 -0.9002 -1.0765 -0.6796
   10SAPS  H20S 1280   0.835   5.997   4.473 -0.0395  1.0969 -1.6780
   10SAPS  H20T 1281   0.984   5.923   4.536  1.9043  0.0239 -1.7491
   10SAPS   C33 1282   1.281   5.469   5.853  0.1293  0.5853  0.2508
   10SAPS   H3X 1283   1.179   5.438   5.887 -0.0756  0.3062 -0.5885
   10SAPS   H3Y 1284   1.332   5.372   5.868 -1.8141 -0.7233 -1.0659
   10SAPS   C34 1285   1.275   5.507   5.701  0.2842  0.2279 -0.2084
   10SAPS   H4X 1286   1.375   5.508   5.652  1.4579 -0.4539  2.0290
   10SAPS   H4Y 1287   1.232   5.608   5.685 -0.6253 -0.3959 -2.0296
   10SAPS   C35 1288   1.177   5.408   5.634 -0.1618  0.3006  0.7671
   10SAPS   H5X 1289   1.086   5.394   5.697  0.4223 -1.4095  1.3018
   10SAPS   H5Y 1290   1.233   5.312   5.629 -0.0902  0.3975 -0.7866
   10SAPS   C36 1291   1.138   5.451   5.495 -0.6339  0.2431  0.6746
   10SAPS   H6X 1292   1.087   5.550   5.504  4.2032  2.9173  3.0351
   10SAPS   H6Y 1293   1.067   5.380   5.448  0.4706  0.9512 -2.2810
   10SAPS   C37 1294   1.255   5.468   5.399  0.4902  0.4936  0.2779
   10SAPS   H7X 1295   1.307   5.370   5.410 -0.8008 -0.2476  0.0212
   10SAPS   H7Y 1296   1.321   5.543   5.447 -1.1300  1.5956  0.8852
   10SAPS   C38 1297   1.230   5.489   5.249  0.0189  0.5722 -0.2407
   10SAPS   H8X 1298   1.188   5.591   5.239  3.6701  2.2975  0.3893
   10SAPS   H8Y 1299   1.159   5.413   5.210  1.2057 -1.6373  1.6363
   10SAPS   C39 1300   1.359   5.483   5.176 -0.2746  0.6229  1.0140
   10SAPS   H9X 1301   1.385   5.375   5.174 -0.9398  0.4706  0.3884
   10SAPS   H9Y 1302   1.432   5.539   5.239  0.5710 -2.2226  2.7937
   10SAPS  C310 1303   1.337   5.539   5.031  0.7493  0.4528 -0.0691
   10SAPS  H10X 1304   1.294   5.641   5.041 -0.5832 -0.1323  0.5135
   10SAPS  H10Y 1305   1.264   5.475   4.977  1.3898 -0.0190 -0.3882
   10SAPS  C311 1306   1.466   5.541   4.953  1.1986  0.0414 -0.4037
   10SAPS  H11X 1307   1.536   5.589   5.025  0.8260  1.8245 -1.1806
   10SAPS  H11Y 1308   1.437   5.601   4.864  0.7111 -0.0237 -0.2872
   10SAPS  C312 1309   1.517   5.403   4.903  0.1290  0.2490 -0.2531
   10SAPS  H12X 1310   1.554   5.368   5.002  0.2383  0.2017 -0.3112
   10SAPS  H12Y 1311   1.609   5.410   4.841  1.5443  1.1352  1.8454
   10SAPS  C313 1312   1.411   5.303   4.851 -0.5721 -0.0181 -0.3183
   10SAPS  H13X 1313   1.321   5.293   4.916 -2.1682 -0.6391 -2.5041
   10SAPS  H13Y 1314   1.462   5.204   4.849 -0.8264 -0.1675  0.2754
   10SAPS  C314 1315   1.374   5.331   4.705 -0.3145 -0.1993  0.6443
   10SAPS  H14X 1316   1.467   5.348   4.648 -0.3153  1.0648  0.9934
   10SAPS  H14Y 1317   1.316   5.426   4.706  0.9396  0.6255 -0.5633
   10SAPS  C315 1318   1.284   5.228   4.627  0.0982  0.6582 -0.1791
   10SAPS  H15X 1319   1.216   5.195   4.708  0.1066 -2.6449 -1.3749
   10SAPS  H15Y 1320   1.353   5.142   4.611  0.8239  1.6758 -3.1116
   10SAPS  C316 1321   1.222   5.289   4.511  0.0961  0.0680 -0.1135
   10SAPS  H16X 1322   1.153   5.370   4.542  0.6156 -0.3558  2.3807
   10SAPS  H16Y 1323   1.149   5.225   4.458  0.2971 -0.3440  0.1061
   10SAPS  C317 1324   1.314   5.346   4.406 -0.5654  0.3991 -0.6694
   10SAPS  H17X 1325   1.368   5.260   4.363 -2.0592 -0.8939 -0.0711
   10SAPS  H17Y 1326   1.397   5.400   4.456 -2.0727  1.5830  0.7046
   10SAPS  C318 1327   1.242   5.423   4.296 -0.2844 -0.0028  0.5286
   10SAPS  H18X 1328   1.320   5.465   4.229  0.7356 -0.7587  1.2235
   10SAPS  H18Y 1329   1.182   5.512   4.324  1.7275  2.0043 -1.1913
   10SAPS  H18Z 1330   1.174   5.356   4.239  2.2520 -2.9286  0.7003
   11SAPS     N 1331   2.323   4.398   1.835  0.0047 -0.5420  0.0455
   11SAPS   HN1 1332   2.330   4.492   1.793 -1.4210 -1.0188 -1.3690
   11SAPS   HN2 1333   2.315   4.319   1.768  0.8904  0.5437 -1.4005
   11SAPS   HN3 1334   2.237   4.398   1.894  1.4110 -2.0982  2.2569
   11SAPS   C12 1335   2.439   4.360   1.930  0.3980 -0.3746  0.7778
   11SAPS  H12A 1336   2.424   4.262   1.972 -0.2348 -1.5066 -1.8516
   11SAPS   C13 1337   2.584   4.339   1.878  0.5197 -0.0593  0.3626
   11SAPS  O13A 1338   2.600   4.337   1.754  0.1132  0.1222 -0.0887
   11SAPS  O13B 1339   2.658   4.264   1.950  0.5822  0.1028  0.3144
   11SAPS   C11 1340   2.426   4.448   2.049  0.0136  0.1848 -0.5302
   11SAPS  H11A 1341   2.439   4.555   2.020  1.1465  0.6301  1.4006
   11SAPS  H11B 1342   2.517   4.439   2.113  0.0728 -1.0836 -0.7804
   11SAPS     P 1343   2.268   4.496   2.254  0.1312 -0.0983  0.1390
   11SAPS   O13 1344   2.320   4.631   2.235 -0.2152  0.8645  0.2352
   11SAPS   O14 1345   2.121   4.481   2.280  0.4504 -0.1833  0.3769
   11SAPS   O12 1346   2.306   4.412   2.121  0.0403 -0.7646  0.2488
   11SAPS   O11 1347   2.365   4.423   2.354  0.0020 -0.4889  0.3278
   11SAPS    C1 1348   2.346   4.287   2.392  0.2144  0.4133  0.2056
   11SAPS    HA 1349   2.245   4.247   2.367  0.6690 -0.3550 -0.4919
   11SAPS    HB 1350   2.412   4.222   2.330 -1.3478  0.2647 -1.3840
   11SAPS    C2 1351   2.361   4.252   2.542  0.2229 -0.2841  0.7914
   11SAPS    HS 1352   2.372   4.142   2.556  1.3297 -0.2647  0.1355
   11SAPS   O21 1353   2.251   4.311   2.620 -0.0312  0.1650 -0.5517
   11SAPS   C21 1354   2.148   4.233   2.633  0.2668  0.8043 -0.2028
   11SAPS   O22 1355   2.137   4.117   2.594  0.1579  0.3742 -0.8380
   11SAPS   C22 1356   2.041   4.301   2.711  0.0589 -0.1114 -0.6573
   11SAPS   H2R 1357   2.062   4.409   2.725  1.4482 -0.5316  0.8210
   11SAPS   H2S 1358   1.949   4.287   2.651  0.3411 -1.6097 -0.7872
   11SAPS    C3 1359   2.493   4.312   2.596 -0.4449  0.3691  0.7447
   11SAPS    HX 1360   2.481   4.423   2.596  1.9750  0.6771  0.7418
   11SAPS    HY 1361   2.574   4.300   2.521 -0.2818 -2.3385  1.2431
   11SAPS   O31 1362   2.531   4.259   2.726 -0.1584 -0.3050  0.6981
   11SAPS   C31 1363   2.589   4.142   2.715 -0.6714  0.1122  0.2813
   11SAPS   O32 1364   2.615   4.086   2.609 -0.2168 -0.1963 -0.0715
   11SAPS   C32 1365   2.600   4.074   2.856  0.0192  0.3108 -0.4717
   11SAPS   H2X 1366   2.706   4.071   2.890 -0.4540  3.5919  1.7051
   11SAPS   H2Y 1367   2.571   3.969   2.832  1.5204 -0.2863  0.1191
   11SAPS   C23 1368   2.029   4.228   2.853  0.4382  0.4664 -0.5970
   11SAPS   H3R 1369   2.020   4.120   2.830  0.5626  0.4805 -0.7122
   11SAPS   H3S 1370   1.932   4.265   2.894 -0.7898 -0.5265 -2.4761
   11SAPS   C24 1371   2.146   4.243   2.952  0.2286  0.3814  0.1947
   11SAPS   H4R 1372   2.145   4.349   2.988 -0.6227 -0.1080  1.6997
   11SAPS   H4S 1373   2.241   4.245   2.895  0.4581  0.5708  0.5782
   11SAPS   C25 1374   2.155   4.134   3.050 -0.6702 -0.2085 -0.3211
   11SAPS   H5R 1375   2.164   4.029   3.018  1.0584 -0.1166 -0.2462
   11SAPS   C26 1376   2.153   4.162   3.186  0.0053 -0.4881  0.1837
   11SAPS   H6R 1377   2.142   4.077   3.255 -0.3379 -0.6749 -0.0995
   11SAPS   C27 1378   2.131   4.298   3.239  0.2584  0.0034 -0.2927
   11SAPS   H7R 1379   2.174   4.381   3.180  0.8463 -1.3535 -1.8538
   11SAPS   H7S 1380   2.188   4.299   3.335  1.1566  0.9745 -0.8115
   11SAPS   C28 1381   1.989   4.336   3.254 -0.5408  0.2208 -0.0688
   11SAPS   H8R 1382   1.941   4.356   3.157 -1.8925 -0.0745  0.5156
   11SAPS   C29 1383   1.913   4.323   3.363  0.1151 -0.1258  0.2115
   11SAPS   H9R 1384   1.806   4.339   3.345  0.0651 -0.5618  0.1067
   11SAPS  C210 1385   1.949   4.268   3.497 -0.1202  0.7277 -0.0414
   11SAPS  H10R 1386   2.053   4.231   3.493 -1.2731 -2.7503 -1.9103
   11SAPS  H10S 1387   1.889   4.174   3.494 -0.4634  0.9626 -1.6589
   11SAPS  C211 1388   1.911   4.358   3.611  0.7243 -0.1270  0.7647
   11SAPS  H11R 1389   1.806   4.382   3.636  1.2649  2.9226  0.4757
   11SAPS  C212 1390   2.001   4.419   3.694  0.3760 -0.6139  0.8404
   11SAPS  H12R 1391   1.952   4.489   3.764  0.3528 -1.3312  1.5619
   11SAPS  C213 1392   2.151   4.424   3.686  0.2961 -0.0091  0.1522
   11SAPS  H13R 1393   2.188   4.527   3.667 -0.6160 -0.2134 -3.2568
   11SAPS  H13S 1394   2.173   4.367   3.594  0.4311 -0.9500  0.7559
   11SAPS  C214 1395   2.196   4.371   3.823  0.8349  0.2896  0.9594
   11SAPS  H14R 1396   2.146   4.412   3.911 -0.0040  1.3299  0.0314
   11SAPS  C215 1397   2.283   4.280   3.838  0.2491  1.4201  0.5011
   11SAPS  H15R 1398   2.312   4.266   3.943 -0.6749 -0.7059  0.5111
   11SAPS  C216 1399   2.354   4.198   3.732 -0.3024 -0.0442  0.1235
   11SAPS  H16R 1400   2.441   4.144   3.776 -0.1180 -2.3893 -2.8176
   11SAPS  H16S 1401   2.399   4.266   3.656  0.7048 -1.9322 -1.0429
   11SAPS  C217 1402   2.276   4.081   3.673 -0.1708 -0.0670  0.1350
   11SAPS  H17R 1403   2.180   4.127   3.640 -1.5899 -1.2829  2.2915
   11SAPS  H17S 1404   2.255   4.009   3.756 -0.8449  0.5049  0.4746
   11SAPS  C218 1405   2.355   4.005   3.564  0.0796 -0.9134  0.4841
   11SAPS  H18R 1406   2.448   3.970   3.613 -1.0747 -1.6686  2.2419
   11SAPS  H18S 1407   2.368   4.070   3.475 -1.5632 -2.4916 -0.9953
   11SAPS  C219 1408   2.263   3.889   3.517 -0.2572  0.6023  1.1465
   11SAPS  H19R 1409   2.163   3.914   3.476  0.1764 -0.6911 -0.8528
   11SAPS  H19S 1410   2.244   3.827   3.607 -1.5462 -0.0193  0.4752
   11SAPS  C220 1411   2.328   3.799   3.414 -0.2356  0.0987  0.2943
   11SAPS  H20R 1412   2.429   3.774   3.454  0.7135  2.9595 -0.1401
   11SAPS  H20S 1413   2.351   3.852   3.319  0.1481 -1.1388 -0.3320
   11SAPS  H20T 1414   2.254   3.718   3.397 -0.6021  0.3453  0.6884
   11SAPS   C33 1415   2.528   4.155   2.971  0.3509 -0.1314 -0.8012
   11SAPS   H3X 1416   2.418   4.150   2.956  0.1675  2.0302 -0.4515
   11SAPS   H3Y 1417   2.556   4.262   2.971 -0.8554  0.2585  2.0617
   11SAPS   C34 1418   2.568   4.102   3.113  0.7193 -0.4168  0.4502
   11SAPS   H4X 1419   2.676   4.077   3.121  0.3474 -2.0667  0.6399
   11SAPS   H4Y 1420   2.501   4.023   3.153 -1.0760  1.3839  1.1810
   11SAPS   C35 1421   2.558   4.214   3.218 -0.2871  0.5082  1.0542
   11SAPS   H5X 1422   2.453   4.251   3.223 -1.2993 -1.8889 -0.5444
   11SAPS   H5Y 1423   2.615   4.305   3.191 -0.5832  1.1275  2.4101
   11SAPS   C36 1424   2.622   4.179   3.354 -0.4333 -0.2808 -0.9117
   11SAPS   H6X 1425   2.731   4.161   3.343  0.0801 -0.2917  2.8209
   11SAPS   H6Y 1426   2.572   4.091   3.400  0.4613  0.2690  1.2410
   11SAPS   C37 1427   2.618   4.301   3.451  0.4850  0.0006  0.3455
   11SAPS   H7X 1428   2.512   4.332   3.466 -0.0651  0.3027 -3.2202
   11SAPS   H7Y 1429   2.669   4.383   3.396  1.1449 -0.9744 -0.5286
   11SAPS   C38 1430   2.702   4.277   3.579  0.1266 -0.1551  0.1547
   11SAPS   H8X 1431   2.809   4.263   3.550  0.9145  0.6558  2.4871
   11SAPS   H8Y 1432   2.661   4.180   3.615 -0.6954  0.0480 -0.2161
   11SAPS   C39 1433   2.692   4.389   3.675  0.2786  0.0234  0.4602
   11SAPS   H9X 1434   2.585   4.418   3.674  0.9247  2.5896 -0.2034
   11SAPS   H9Y 1435   2.755   4.475   3.644  1.5452 -0.3354  1.9144
   11SAPS  C310 1436   2.728   4.348   3.818 -0.1474 -0.2300 -0.3718
   11SAPS  H10X 1437   2.663   4.260   3.838 -1.8667  0.9653 -0.4269
   11SAPS  H10Y 1438   2.700   4.436   3.880  0.3510 -0.4185  0.1273
   11SAPS  C311 1439   2.878   4.308   3.840 -0.8015 -0.3359 -0.0496
   11SAPS  H11X 1440   2.944   4.369   3.774 -0.7923  2.0456  2.0234
   11SAPS  H11Y 1441   2.878   4.200   3.817  0.3113 -0.1233 -1.2192
   11SAPS  C312 1442   2.924   4.336   3.990  0.8010 -0.1828  0.2885
   11SAPS  H12X 1443   2.837   4.304   4.050  2.2358 -2.7276  1.1806
   11SAPS  H12Y 1444   2.953   4.442   4.012  1.2862 -0.1263 -0.5597
   11SAPS  C313 1445   3.028   4.237   4.041 -0.5691 -0.0857 -0.0904
   11SAPS  H13X 1446   3.122   4.244   3.982  0.8056  0.0837  2.0281
   11SAPS  H13Y 1447   2.978   4.138   4.029 -0.6346 -0.1207  0.4427
   11SAPS  C314 1448   3.094   4.255   4.179  0.2171  0.0107 -0.3871
   11SAPS  H14X 1449   3.026   4.214   4.257  3.3218  0.2399  2.6561
   11SAPS  H14Y 1450   3.104   4.358   4.221 -1.6571 -0.5860  1.6906
   11SAPS  C315 1451   3.226   4.180   4.193  1.0370  0.1966 -0.3595
   11SAPS  H15X 1452   3.299   4.233   4.128 -1.3840 -0.6291 -4.0470
   11SAPS  H15Y 1453   3.214   4.074   4.163 -2.2584  0.3809 -0.0111
   11SAPS  C316 1454   3.270   4.196   4.344  0.2760  0.2052  0.1062
   11SAPS  H16X 1455   3.257   4.304   4.364 -0.3513  0.4551 -1.4736
   11SAPS  H16Y 1456   3.380   4.179   4.335  0.5506  1.4648  0.8661
   11SAPS  C317 1457   3.205   4.089   4.434 -0.0862  0.0236 -0.6392
   11SAPS  H17X 1458   3.211   3.990   4.385  2.2467  0.2114 -0.8712
   11SAPS  H17Y 1459   3.101   4.125   4.446  1.4201  4.8334  0.2892
   11SAPS  C318 1460   3.278   4.082   4.576 -0.4090  0.1472 -0.0135
   11SAPS  H18X 1461   3.278   4.188   4.609  0.7249 -0.6632  2.9876
   11SAPS  H18Y 1462   3.388   4.063   4.571 -0.2266  0.4110  2.1486
   11SAPS  H18Z 1463   3.223   4.015   4.646  0.4188 -2.3364 -1.5955
   12SAPS     N 1464   2.757   2.678   1.987 -0.1452 -0.3663  0.1182
   12SAPS   HN1 1465   2.803   2.723   2.069 -2.6684  2.1184  0.3373
   12SAPS   HN2 1466   2.660   2.717   1.984 -0.4335 -1.0433  0.3178
   12SAPS   HN3 1467   2.730   2.577   1.985  0.1332 -0.4764  1.2658
   12SAPS   C12 1468   2.826   2.722   1.857  0.2658 -0.2912 -0.3008
   12SAPS  H12A 1469   2.920   2.669   1.854  0.8429  0.6437 -3.9693
   12SAPS   C13 1470   2.755   2.671   1.728 -0.1779 -0.0441 -0.7337
   12SAPS  O13A 1471   2.649   2.604   1.735  0.3273 -0.2357  0.2742
   12SAPS  O13B 1472   2.815   2.688   1.621  0.3152  0.0779 -0.2122
   12SAPS   C11 1473   2.846   2.879   1.847 -0.5377  0.0420 -0.2762
   12SAPS  H11A 1474   2.894   2.914   1.753 -0.2762 -0.6362 -0.4063
   12SAPS  H11B 1475   2.912   2.898   1.934 -1.3661 -1.9224  0.8583
   12SAPS     P 1476   2.696   3.086   1.869  0.0979 -0.1976 -0.5413
   12SAPS   O13 1477   2.740   3.139   1.737  0.3890  0.3681 -0.3796
   12SAPS   O14 1478   2.560   3.116   1.916  0.0591 -0.0472 -0.2344
   12SAPS   O12 1479   2.719   2.928   1.866 -0.4814  0.3762  0.0091
   12SAPS   O11 1480   2.800   3.135   1.969  0.1561 -0.8117 -0.3117
   12SAPS    C1 1481   2.819   3.075   2.099 -0.1982  0.1896 -0.0200
   12SAPS    HA 1482   2.761   2.981   2.109 -0.1396  0.1249 -0.2658
   12SAPS    HB 1483   2.925   3.042   2.100  0.1065  1.1448  0.3619
   12SAPS    C2 1484   2.806   3.170   2.223  0.7593 -0.0872  0.1876
   12SAPS    HS 1485   2.824   3.111   2.315  1.2253  0.2355  0.3084
   12SAPS   O21 1486   2.670   3.225   2.219  0.0572 -0.1541  0.1664
   12SAPS   C21 1487   2.563   3.153   2.258 -0.0997  0.4523  0.1367
   12SAPS   O22 1488   2.569   3.041   2.308 -1.1179  0.2806  0.8334
   12SAPS   C22 1489   2.429   3.227   2.243  0.9912 -0.4589 -0.3023
   12SAPS   H2R 1490   2.418   3.266   2.140 -0.3939  0.4671  0.1507
   12SAPS   H2S 1491   2.342   3.160   2.261 -0.9849  1.2805 -2.6146
   12SAPS    C3 1492   2.915   3.278   2.217 -0.2710  0.0575 -0.2434
   12SAPS    HX 1493   2.897   3.337   2.125 -0.5288  0.7612  0.2456
   12SAPS    HY 1494   3.016   3.234   2.203 -0.2419 -0.8122  2.1850
   12SAPS   O31 1495   2.917   3.368   2.332 -0.0459  0.1145  0.2027
   12SAPS   C31 1496   2.892   3.499   2.308 -0.1880 -0.4572 -0.0689
   12SAPS   O32 1497   2.886   3.552   2.198 -0.0601  0.5271 -0.2492
   12SAPS   C32 1498   2.871   3.574   2.441 -0.2712  0.0516  0.1138
   12SAPS   H2X 1499   2.797   3.653   2.414 -1.3538 -0.9666  0.0488
   12SAPS   H2Y 1500   2.965   3.623   2.474 -0.9463  1.4722  0.0418
   12SAPS   C23 1501   2.422   3.342   2.347 -0.0144 -0.1287  0.3209
   12SAPS   H3R 1502   2.340   3.416   2.339  2.2856  2.8950  2.3376
   12SAPS   H3S 1503   2.514   3.405   2.343  1.6508 -2.4538 -1.5948
   12SAPS   C24 1504   2.411   3.278   2.490 -0.2194  0.0108 -0.5519
   12SAPS   H4R 1505   2.488   3.201   2.512 -1.1519 -0.3229  1.8911
   12SAPS   H4S 1506   2.309   3.235   2.486  0.4672 -2.0515  1.7675
   12SAPS   C25 1507   2.398   3.385   2.600 -0.0513 -0.3032 -0.0879
   12SAPS   H5R 1508   2.480   3.453   2.629 -0.9482 -0.4648  3.2478
   12SAPS   C26 1509   2.292   3.399   2.682 -0.0626  0.0042 -0.4046
   12SAPS   H6R 1510   2.301   3.469   2.766  1.6641 -0.5157 -0.1172
   12SAPS   C27 1511   2.170   3.309   2.689 -0.5701 -0.2248 -0.7509
   12SAPS   H7R 1512   2.185   3.200   2.700 -1.8853 -0.3451  0.1763
   12SAPS   H7S 1513   2.099   3.334   2.607 -0.9124  2.1057  0.1532
   12SAPS   C28 1514   2.084   3.342   2.811 -0.0017 -0.2721 -0.5952
   12SAPS   H8R 1515   1.976   3.345   2.789 -0.3126 -2.6235  0.3113
   12SAPS   C29 1516   2.115   3.325   2.939 -0.1788  0.5558 -0.1663
   12SAPS   H9R 1517   2.046   3.368   3.014 -1.1773  1.6186 -1.6405
   12SAPS  C210 1518   2.237   3.274   3.005  0.1002  0.1166 -0.5736
   12SAPS  H10R 1519   2.278   3.359   3.065  1.7438 -1.5277  0.7840
   12SAPS  H10S 1520   2.315   3.244   2.932  0.3731 -2.8991  0.8046
   12SAPS  C211 1521   2.222   3.159   3.094  0.0040 -0.3806  0.0360
   12SAPS  H11R 1522   2.241   3.065   3.040 -0.8291 -1.6020  1.7652
   12SAPS  C212 1523   2.180   3.153   3.221  0.0548 -0.6343  0.0558
   12SAPS  H12R 1524   2.137   3.060   3.260 -0.9089  0.1459  0.8930
   12SAPS  C213 1525   2.138   3.275   3.303 -0.3911 -0.1131 -0.6065
   12SAPS  H13R 1526   2.029   3.265   3.320 -0.0100 -1.8756  1.1281
   12SAPS  H13S 1527   2.155   3.373   3.253 -0.2146 -0.6115 -1.5607
   12SAPS  C214 1528   2.206   3.272   3.443 -0.4856  0.3831 -0.5720
   12SAPS  H14R 1529   2.311   3.305   3.435 -0.7528  1.1634 -0.9667
   12SAPS  C215 1530   2.140   3.257   3.559  0.1542  0.0917 -0.5303
   12SAPS  H15R 1531   2.202   3.264   3.649  1.8213 -1.0412 -1.5336
   12SAPS  C216 1532   1.993   3.243   3.585  0.0258  0.0964 -0.0155
   12SAPS  H16R 1533   1.959   3.144   3.622 -0.3462  0.2456  0.0431
   12SAPS  H16S 1534   1.935   3.263   3.492  0.6706  1.2307 -0.2043
   12SAPS  C217 1535   1.938   3.354   3.681 -0.5897 -0.7323  0.0568
   12SAPS  H17R 1536   1.950   3.455   3.636  1.4236 -1.6423 -1.6126
   12SAPS  H17S 1537   1.998   3.352   3.774 -0.7344  2.2910  0.3155
   12SAPS  C218 1538   1.791   3.342   3.701 -0.4206 -0.4975 -0.0240
   12SAPS  H18R 1539   1.749   3.334   3.598  0.2957 -2.2320 -0.2187
   12SAPS  H18S 1540   1.751   3.430   3.755 -1.0567 -0.5567 -0.3895
   12SAPS  C219 1541   1.759   3.215   3.784  0.1107 -0.1846 -0.0458
   12SAPS  H19R 1542   1.849   3.204   3.848  0.5044 -1.0042 -0.7251
   12SAPS  H19S 1543   1.742   3.130   3.715  1.1782  0.7845 -1.5507
   12SAPS  C220 1544   1.637   3.248   3.871  0.6243  0.0569  0.6740
   12SAPS  H20R 1545   1.652   3.338   3.934  1.6953  0.5419 -0.2369
   12SAPS  H20S 1546   1.618   3.166   3.943  1.2444  0.3416  1.1625
   12SAPS  H20T 1547   1.546   3.261   3.808 -0.7354 -1.8677  2.1150
   12SAPS   C33 1548   2.814   3.491   2.557 -0.7903  1.0738 -0.5585
   12SAPS   H3X 1549   2.893   3.425   2.599 -1.6850  1.3667  1.7501
   12SAPS   H3Y 1550   2.739   3.420   2.515  1.4752 -1.4519 -0.5795
   12SAPS   C34 1551   2.759   3.581   2.674  0.4322  0.4666  0.3049
   12SAPS   H4X 1552   2.709   3.515   2.748  0.5226  2.1253  1.9178
   12SAPS   H4Y 1553   2.672   3.640   2.638 -0.4906 -1.1385 -0.2004
   12SAPS   C35 1554   2.865   3.664   2.751  0.6851  0.3001 -0.3635
   12SAPS   H5X 1555   2.888   3.746   2.680  0.1253  0.0435 -0.8463
   12SAPS   H5Y 1556   2.959   3.610   2.773  0.7540  0.1272 -1.0576
   12SAPS   C36 1557   2.796   3.704   2.886  0.2934  0.1496 -0.0782
   12SAPS   H6X 1558   2.758   3.607   2.927 -0.8289  0.1977 -0.9783
   12SAPS   H6Y 1559   2.712   3.775   2.879  0.3497  0.2763  0.4841
   12SAPS   C37 1560   2.896   3.770   2.980 -0.0972 -0.2734 -0.3890
   12SAPS   H7X 1561   2.938   3.866   2.944 -0.5638  0.1852  0.2628
   12SAPS   H7Y 1562   2.988   3.708   2.982  1.4376  1.8725 -1.0796
   12SAPS   C38 1563   2.832   3.781   3.118  0.3556  0.1935 -0.8544
   12SAPS   H8X 1564   2.799   3.677   3.136 -1.7494 -0.0562 -4.9171
   12SAPS   H8Y 1565   2.741   3.843   3.103 -1.3744 -2.1792 -0.7362
   12SAPS   C39 1566   2.929   3.834   3.225  0.2437 -0.0364 -0.6232
   12SAPS   H9X 1567   2.921   3.943   3.207 -0.7472  0.0582  0.3036
   12SAPS   H9Y 1568   3.038   3.813   3.216  0.8063  1.6975  1.4736
   12SAPS  C310 1569   2.885   3.803   3.370 -0.4134 -0.7565  0.6621
   12SAPS  H10X 1570   2.891   3.694   3.387  1.9819 -0.7239  0.3461
   12SAPS  H10Y 1571   2.779   3.837   3.373  0.3316  2.0696 -1.2190
   12SAPS  C311 1572   2.978   3.874   3.469 -1.1537 -0.2639  0.0121
   12SAPS  H11X 1573   2.974   3.979   3.436  0.3512  0.3942  1.7290
   12SAPS  H11Y 1574   3.082   3.835   3.462 -2.1552 -4.2243  2.9990
   12SAPS  C312 1575   2.939   3.859   3.616 -0.0919 -0.2711  0.2530
   12SAPS  H12X 1576   3.013   3.923   3.668  0.5058  0.0677 -0.9744
   12SAPS  H12Y 1577   2.962   3.753   3.640  1.3401 -0.4256 -1.5253
   12SAPS  C313 1578   2.796   3.897   3.655  0.2660 -0.3474 -0.0205
   12SAPS  H13X 1579   2.709   3.835   3.624 -0.0048  1.1448 -2.5030
   12SAPS  H13Y 1580   2.774   4.000   3.621  0.0751 -0.3826 -0.0028
   12SAPS  C314 1581   2.777   3.895   3.808  0.4264 -0.0940  0.6071
   12SAPS  H14X 1582   2.864   3.950   3.849  1.0127 -0.3628 -0.2665
   12SAPS  H14Y 1583   2.784   3.789   3.841  0.3828 -0.3815 -0.2942
   12SAPS  C315 1584   2.652   3.954   3.856 -0.4072  0.2361  0.2295
   12SAPS  H15X 1585   2.566   3.893   3.821 -1.2000  2.2618 -1.5984
   12SAPS  H15Y 1586   2.638   4.060   3.824 -1.9905 -0.6447 -2.2975
   12SAPS  C316 1587   2.647   3.960   4.007 -0.0417  0.5107  0.0444
   12SAPS  H16X 1588   2.703   4.044   4.055 -1.0948  1.3381 -0.1490
   12SAPS  H16Y 1589   2.689   3.867   4.051 -0.1033  0.0525 -0.8532
   12SAPS  C317 1590   2.508   3.980   4.057  0.2363 -1.0894  0.1760
   12SAPS  H17X 1591   2.442   3.891   4.058 -0.6562 -0.4601 -0.8052
   12SAPS  H17Y 1592   2.468   4.050   3.982 -0.9010 -4.4093 -2.5756
   12SAPS  C318 1593   2.492   4.050   4.194 -0.0039  0.5811  0.2717
   12SAPS  H18X 1594   2.540   4.149   4.207  1.4254 -0.1333  0.5573
   12SAPS  H18Y 1595   2.535   3.981   4.270 -0.8317 -1.5966 -1.1211
   12SAPS  H18Z 1596   2.389   4.067   4.232  0.1646  0.4303  0.8131
   13SAPS     N 1597   4.246   2.794   1.760 -0.2117  0.8077 -0.4136
   13SAPS   HN1 1598   4.191   2.861   1.818  0.3724  0.0735  1.0662
   13SAPS   HN2 1599   4.323   2.760   1.822  0.3310 -0.4303 -1.7122
   13SAPS   HN3 1600   4.289   2.852   1.685 -2.9214  0.1477 -2.6121
   13SAPS   C12 1601   4.178   2.664   1.719  0.0959 -0.0449 -0.2565
   13SAPS  H12A 1602   4.105   2.707   1.653  0.3558  1.0862  0.1783
   13SAPS   C13 1603   4.279   2.567   1.653  0.4225  0.4265  0.1342
   13SAPS  O13A 1604   4.386   2.612   1.612  0.1173 -0.0988 -0.6093
   13SAPS  O13B 1605   4.235   2.456   1.616 -0.1719 -0.0804  0.1818
   13SAPS   C11 1606   4.116   2.599   1.853  0.2207 -0.0567 -0.0447
   13SAPS  H11A 1607   4.191   2.571   1.930  0.2916  2.0958  0.7277
   13SAPS  H11B 1608   4.076   2.502   1.816 -2.5359  0.6041  0.9274
   13SAPS     P 1609   3.864   2.702   1.856 -0.1501 -0.1219  0.0554
   13SAPS   O13 1610   3.890   2.789   1.738  0.3258  0.4909 -0.2594
   13SAPS   O14 1611   3.793   2.576   1.832 -0.0582  0.3917 -0.5195
   13SAPS   O12 1612   4.008   2.669   1.917  1.0758  0.0807 -0.0963
   13SAPS   O11 1613   3.790   2.789   1.968 -0.3806  0.0092 -0.3185
   13SAPS    C1 1614   3.873   2.846   2.081 -0.4208  0.4780  0.2402
   13SAPS    HA 1615   3.981   2.850   2.057 -0.7248  0.5964 -1.2434
   13SAPS    HB 1616   3.832   2.949   2.087 -1.9032 -0.1666  3.4804
   13SAPS    C2 1617   3.834   2.789   2.218 -0.0519 -0.3656 -0.3906
   13SAPS    HS 1618   3.881   2.838   2.306  2.0634 -2.1409 -0.4613
   13SAPS   O21 1619   3.867   2.652   2.232  0.5023  0.1481 -0.2793
   13SAPS   C21 1620   3.998   2.626   2.226  0.1668 -0.2387 -0.2158
   13SAPS   O22 1621   4.076   2.716   2.255 -0.6154  0.3824  0.7907
   13SAPS   C22 1622   4.020   2.476   2.192 -0.0872 -0.2582 -0.9831
   13SAPS   H2R 1623   3.926   2.426   2.221 -1.0958  2.5412  1.0834
   13SAPS   H2S 1624   4.030   2.450   2.084 -2.0707  0.2576 -1.3247
   13SAPS    C3 1625   3.685   2.812   2.237  0.8072 -0.2299 -0.5467
   13SAPS    HX 1626   3.630   2.736   2.178 -1.3336  0.5997  0.2852
   13SAPS    HY 1627   3.652   2.913   2.205  0.7774  1.0657  3.0241
   13SAPS   O31 1628   3.647   2.783   2.376 -0.2255  0.5634  0.0744
   13SAPS   C31 1629   3.663   2.893   2.451  0.1328 -0.1161  0.1571
   13SAPS   O32 1630   3.705   2.999   2.416 -0.4682 -0.2524  0.0121
   13SAPS   C32 1631   3.621   2.855   2.594  0.3342 -0.3943 -0.4459
   13SAPS   H2X 1632   3.667   2.758   2.624 -0.7679 -1.5312 -2.2545
   13SAPS   H2Y 1633   3.510   2.854   2.593  0.2267 -0.0347  2.5902
   13SAPS   C23 1634   4.136   2.409   2.264 -0.3073 -0.5425 -0.0272
   13SAPS   H3R 1635   4.223   2.472   2.233 -0.9823  0.4462  0.0294
   13SAPS   H3S 1636   4.137   2.305   2.226  0.1853 -0.7292  0.4881
   13SAPS   C24 1637   4.125   2.409   2.419 -0.2299  0.6014  0.5010
   13SAPS   H4R 1638   4.115   2.516   2.447  1.4062  1.1808 -0.9680
   13SAPS   H4S 1639   4.226   2.376   2.451 -0.2549 -1.5219 -1.3586
   13SAPS   C25 1640   4.024   2.315   2.480  0.1059 -0.7232  0.3154
   13SAPS   H5R 1641   4.012   2.220   2.427 -3.6103 -0.3220  0.1909
   13SAPS   C26 1642   3.912   2.350   2.549 -0.5446 -0.2590 -0.3831
   13SAPS   H6R 1643   3.848   2.276   2.600 -1.0334  0.1219 -0.4263
   13SAPS   C27 1644   3.861   2.492   2.564  0.1116  0.9712 -0.2667
   13SAPS   H7R 1645   3.753   2.495   2.539 -0.4496 -0.3800  1.8064
   13SAPS   H7S 1646   3.892   2.551   2.475  1.3122  0.9253  0.1093
   13SAPS   C28 1647   3.898   2.582   2.678  0.0429  0.3887 -0.3046
   13SAPS   H8R 1648   3.932   2.682   2.647 -0.9966  0.3018 -1.8215
   13SAPS   C29 1649   3.878   2.553   2.807  0.2524 -0.3060  0.4603
   13SAPS   H9R 1650   3.922   2.619   2.883 -0.8566  0.3108  0.5894
   13SAPS  C210 1651   3.841   2.417   2.858 -0.2205  0.3349 -0.2260
   13SAPS  H10R 1652   3.889   2.407   2.957  1.2846  1.3296 -0.8279
   13SAPS  H10S 1653   3.892   2.339   2.796 -0.3276 -0.8458  1.1216
   13SAPS  C211 1654   3.690   2.394   2.856  0.0587 -0.6468  0.2644
   13SAPS  H11R 1655   3.653   2.351   2.761 -0.8718  1.4939 -0.3999
   13SAPS  C212 1656   3.616   2.401   2.965  0.3333  0.3171  0.6249
   13SAPS  H12R 1657   3.509   2.383   2.948  0.1843  1.9746 -0.4064
   13SAPS  C213 1658   3.660   2.461   3.094  0.0129 -0.7293 -0.2734
   13SAPS  H13R 1659   3.745   2.405   3.139  0.3857  0.4057  0.4931
   13SAPS  H13S 1660   3.573   2.439   3.160  0.4233 -1.8478 -0.0816
   13SAPS  C214 1661   3.681   2.615   3.104  0.0817 -0.7404  0.3181
   13SAPS  H14R 1662   3.670   2.675   3.012 -0.5815  3.3077  2.7987
   13SAPS  C215 1663   3.719   2.678   3.210  0.6464 -0.5634 -0.3620
   13SAPS  H15R 1664   3.747   2.784   3.203  0.6661 -0.4251  1.2608
   13SAPS  C216 1665   3.750   2.623   3.348  0.1107  0.4737  0.1939
   13SAPS  H16R 1666   3.850   2.654   3.386 -0.1007  0.3342  0.8804
   13SAPS  H16S 1667   3.775   2.515   3.336  1.8103  0.8819 -0.2160
   13SAPS  C217 1668   3.630   2.645   3.438  0.7237  1.0023 -0.3016
   13SAPS  H17R 1669   3.545   2.585   3.400  0.3404  1.7902 -0.7174
   13SAPS  H17S 1670   3.590   2.749   3.431  0.3210  0.7846 -1.4754
   13SAPS  C218 1671   3.665   2.627   3.578  0.2213  0.1459  0.4210
   13SAPS  H18R 1672   3.748   2.694   3.608 -1.2301  1.8026  0.8806
   13SAPS  H18S 1673   3.693   2.520   3.590  0.5736 -0.0544 -1.7619
   13SAPS  C219 1674   3.552   2.662   3.674 -0.3986 -0.3750 -0.4985
   13SAPS  H19R 1675   3.459   2.612   3.639  0.2212 -1.4417 -0.6916
   13SAPS  H19S 1676   3.543   2.772   3.669  3.8758  0.2020  0.7188
   13SAPS  C220 1677   3.583   2.615   3.820  0.1917  0.0117  0.2047
   13SAPS  H20R 1678   3.680   2.649   3.863 -0.1734 -2.0811  3.0136
   13SAPS  H20S 1679   3.562   2.509   3.845  0.5776 -0.5304 -1.6504
   13SAPS  H20T 1680   3.511   2.671   3.883  0.4538 -0.6740  1.1453
   13SAPS   C33 1681   3.662   2.961   2.695 -1.0235  0.1724  0.3038
   13SAPS   H3X 1682   3.643   3.062   2.653  1.7731  0.9507  0.7018
   13SAPS   H3Y 1683   3.770   2.956   2.721 -1.1513 -1.8165  0.6531
   13SAPS   C34 1684   3.592   2.946   2.830  0.1923 -0.5670  0.9202
   13SAPS   H4X 1685   3.615   2.848   2.876  1.0412  0.4381  2.7236
   13SAPS   H4Y 1686   3.485   2.960   2.801  0.9888  3.6126 -0.7261
   13SAPS   C35 1687   3.619   3.052   2.936 -0.7874 -0.1400 -0.0688
   13SAPS   H5X 1688   3.623   3.153   2.890 -0.4623  0.9439  2.1561
   13SAPS   H5Y 1689   3.720   3.027   2.977  0.1696 -2.5941 -3.4378
   13SAPS   C36 1690   3.509   3.059   3.042 -0.0476 -0.2415  0.3408
   13SAPS   H6X 1691   3.490   2.953   3.067  1.0807 -0.6972 -0.6427
   13SAPS   H6Y 1692   3.419   3.116   3.012  2.2358  3.4772 -0.0861
   13SAPS   C37 1693   3.564   3.135   3.159  0.0799 -0.2589 -0.3617
   13SAPS   H7X 1694   3.577   3.240   3.123 -2.4070  0.2679  0.0997
   13SAPS   H7Y 1695   3.658   3.085   3.192  0.5447 -1.2299 -2.9463
   13SAPS   C38 1696   3.460   3.125   3.269 -0.7124 -0.0499  0.6023
   13SAPS   H8X 1697   3.431   3.019   3.280 -0.1327 -0.2735  0.0476
   13SAPS   H8Y 1698   3.375   3.190   3.237 -0.2747  1.9705  3.1734
   13SAPS   C39 1699   3.499   3.185   3.403  0.7573  0.4828 -0.3297
   13SAPS   H9X 1700   3.408   3.188   3.466 -0.6398  0.3543 -2.2535
   13SAPS   H9Y 1701   3.537   3.286   3.379  2.3226 -0.2665 -1.1926
   13SAPS  C310 1702   3.615   3.113   3.472  0.4794 -0.6606 -1.2863
   13SAPS  H10X 1703   3.720   3.123   3.438  1.2455 -4.1031 -0.3808
   13SAPS  H10Y 1704   3.593   3.005   3.457 -1.6096 -0.3881 -0.5636
   13SAPS  C311 1705   3.604   3.139   3.625 -0.5398  0.1484 -0.2553
   13SAPS  H11X 1706   3.498   3.112   3.642 -0.9661 -0.8512 -3.6447
   13SAPS  H11Y 1707   3.620   3.248   3.644 -1.9704 -0.1387  3.2804
   13SAPS  C312 1708   3.698   3.046   3.701  0.0720 -0.3798 -0.0649
   13SAPS  H12X 1709   3.803   3.069   3.671 -0.6136  0.3996 -2.0568
   13SAPS  H12Y 1710   3.677   2.943   3.665  0.4433  0.0844 -1.7214
   13SAPS  C313 1711   3.695   3.038   3.859  0.0370  0.0791  0.5573
   13SAPS  H13X 1712   3.740   2.944   3.898 -1.8993 -0.4834  1.5734
   13SAPS  H13Y 1713   3.586   3.036   3.882 -0.0007 -2.8552  0.4667
   13SAPS  C314 1714   3.777   3.153   3.927 -0.1064  0.4240 -0.1428
   13SAPS  H14X 1715   3.752   3.252   3.884 -2.9593 -0.0123  0.3057
   13SAPS  H14Y 1716   3.886   3.134   3.915  0.1930  1.5588  0.6208
   13SAPS  C315 1717   3.726   3.158   4.068 -0.3866  0.3048 -1.0253
   13SAPS  H15X 1718   3.710   3.055   4.108  2.8094  0.9751  2.5109
   13SAPS  H15Y 1719   3.625   3.202   4.075  0.2775  1.8221 -0.6413
   13SAPS  C316 1720   3.818   3.229   4.165 -0.1959  0.1037 -0.1708
   13SAPS  H16X 1721   3.826   3.333   4.127 -0.5445 -0.3981 -1.7231
   13SAPS  H16Y 1722   3.921   3.190   4.151 -0.7667 -0.3481 -4.7698
   13SAPS  C317 1723   3.778   3.231   4.309 -0.2312 -0.1462  0.0072
   13SAPS  H17X 1724   3.849   3.291   4.371  0.2241 -1.2299  0.5545
   13SAPS  H17Y 1725   3.764   3.128   4.349 -1.8864 -1.0884 -2.7190
   13SAPS  C318 1726   3.638   3.287   4.328 -1.0141  0.0660  0.4585
   13SAPS  H18X 1727   3.607   3.289   4.434  1.1705 -2.4586  1.2430
   13SAPS  H18Y 1728   3.564   3.221   4.277 -2.3509  3.1331 -1.9948
   13SAPS  H18Z 1729   3.635   3.394   4.298  2.1220 -0.1504 -1.0593
   14SAPS     N 1730   4.506   3.147   1.797 -0.2463 -0.0602  0.0148
   14SAPS   HN1 1731   4.540   3.050   1.785  1.3550  0.6067 -1.2196
   14SAPS   HN2 1732   4.586   3.207   1.824 -1.6925  2.9232 -1.8164
   14SAPS   HN3 1733   4.438   3.145   1.876 -1.9761 -2.7516 -1.3982
   14SAPS   C12 1734   4.435   3.199   1.671 -0.2986  0.3704 -0.2690
   14SAPS  H12A 1735   4.507   3.251   1.610  2.6808  0.1909  2.8074
   14SAPS   C13 1736   4.389   3.081   1.582  0.5683 -0.3879 -0.0519
   14SAPS  O13A 1737   4.393   2.965   1.626 -0.2407 -0.3169 -0.2540
   14SAPS  O13B 1738   4.354   3.101   1.464 -0.1733 -0.2785  0.2907
   14SAPS   C11 1739   4.312   3.280   1.717 -0.3042  0.5872 -0.4597
   14SAPS  H11A 1740   4.231   3.281   1.641 -0.9306 -2.0328  0.0686
   14SAPS  H11B 1741   4.351   3.384   1.722 -0.9701  0.8386 -0.4623
   14SAPS     P 1742   4.123   3.151   1.844  0.2319  0.1506 -0.0032
   14SAPS   O13 1743   4.057   3.152   1.715  0.4877  0.3084 -0.0626
   14SAPS   O14 1744   4.163   3.015   1.896 -0.2005  0.7318 -0.3083
   14SAPS   O12 1745   4.255   3.241   1.841  0.8042  0.4024  0.2659
   14SAPS   O11 1746   4.032   3.222   1.953  0.1629  0.2831 -0.0087
   14SAPS    C1 1747   4.048   3.361   1.998 -0.3301  0.5198 -0.2474
   14SAPS    HA 1748   4.089   3.421   1.914  0.2507  0.0340 -0.3138
   14SAPS    HB 1749   3.947   3.400   2.026 -0.5418 -0.6151  0.6461
   14SAPS    C2 1750   4.140   3.370   2.124 -0.6691 -0.0457 -0.5822
   14SAPS    HS 1751   4.245   3.358   2.091 -0.4125  2.0835 -0.7055
   14SAPS   O21 1752   4.098   3.268   2.215 -0.2359  0.0391 -0.6135
   14SAPS   C21 1753   4.184   3.226   2.306  0.5864  0.4951 -0.3233
   14SAPS   O22 1754   4.303   3.254   2.313 -0.6752 -0.4562  0.0755
   14SAPS   C22 1755   4.099   3.141   2.399  0.0846 -0.5542 -1.0706
   14SAPS   H2R 1756   4.017   3.211   2.427 -0.6060 -2.2858  1.6429
   14SAPS   H2S 1757   4.043   3.065   2.340 -1.1558 -1.0956  0.7031
   14SAPS    C3 1758   4.129   3.515   2.182 -0.3459  0.5259 -0.2823
   14SAPS    HX 1759   4.026   3.555   2.187 -0.3448  0.5014 -0.0329
   14SAPS    HY 1760   4.187   3.571   2.105 -1.2772  0.6101 -0.9328
   14SAPS   O31 1761   4.178   3.543   2.314 -0.0012  0.1454  0.0455
   14SAPS   C31 1762   4.308   3.571   2.328  0.1775 -0.4883 -0.3537
   14SAPS   O32 1763   4.394   3.597   2.248 -0.0324  0.0675 -0.1358
   14SAPS   C32 1764   4.337   3.565   2.477 -0.4795 -0.5679 -0.4207
   14SAPS   H2X 1765   4.310   3.461   2.505 -2.9257  0.3125  0.7601
   14SAPS   H2Y 1766   4.271   3.637   2.531  0.9555 -0.7767  1.7307
   14SAPS   C23 1767   4.172   3.088   2.518 -0.6062 -0.0460  0.4162
   14SAPS   H3R 1768   4.245   3.019   2.472  2.3286  0.8784  3.2855
   14SAPS   H3S 1769   4.099   3.027   2.575  0.4215 -0.4852  1.2919
   14SAPS   C24 1770   4.238   3.188   2.612  0.1559 -0.2241 -0.1429
   14SAPS   H4R 1771   4.319   3.245   2.562  0.4429 -0.9316 -0.5083
   14SAPS   H4S 1772   4.292   3.115   2.677 -0.7210 -0.4495  0.3529
   14SAPS   C25 1773   4.137   3.275   2.691 -0.1221 -0.4156 -0.1205
   14SAPS   H5R 1774   4.093   3.354   2.628  1.4645  0.1221 -0.6000
   14SAPS   C26 1775   4.114   3.265   2.820 -0.5702 -0.1321 -0.1045
   14SAPS   H6R 1776   4.030   3.325   2.857  1.9152  4.2699 -0.9539
   14SAPS   C27 1777   4.154   3.156   2.906  0.3120 -0.0694 -0.2251
   14SAPS   H7R 1778   4.109   3.183   3.004 -0.1393 -0.3897 -0.3436
   14SAPS   H7S 1779   4.263   3.153   2.930  0.4335  0.6055 -0.6545
   14SAPS   C28 1780   4.095   3.024   2.874  0.0421 -0.1111 -0.4428
   14SAPS   H8R 1781   4.069   3.015   2.767  1.7202  2.5240 -1.1817
   14SAPS   C29 1782   4.057   2.928   2.960  1.1424 -0.6395 -0.0784
   14SAPS   H9R 1783   3.996   2.844   2.923  0.0662  0.6553 -1.3876
   14SAPS  C210 1784   4.081   2.934   3.107  0.0388  0.3147  0.1521
   14SAPS  H10R 1785   4.191   2.947   3.115 -0.2848  2.6548  2.0966
   14SAPS  H10S 1786   4.055   2.831   3.141 -0.1603  0.5153  0.6123
   14SAPS  C211 1787   4.009   3.035   3.190  0.2766 -0.2273  0.1367
   14SAPS  H11R 1788   3.970   3.118   3.129  0.5467  0.5299  0.9684
   14SAPS  C212 1789   3.991   3.039   3.323 -0.5950 -0.5065  0.4190
   14SAPS  H12R 1790   3.933   3.124   3.361  0.1170  1.6642 -2.9674
   14SAPS  C213 1791   4.047   2.945   3.420 -1.1092  0.4345 -0.9563
   14SAPS  H13R 1792   4.129   3.000   3.470  1.3725 -0.6846 -3.4862
   14SAPS  H13S 1793   4.102   2.860   3.373  0.0876  0.0995  0.9609
   14SAPS  C214 1794   3.959   2.878   3.528 -0.0472 -1.1736  0.3924
   14SAPS  H14R 1795   3.854   2.860   3.502  0.4351 -1.0672 -1.8190
   14SAPS  C215 1796   3.993   2.838   3.651 -0.8496  0.2594 -0.3674
   14SAPS  H15R 1797   3.917   2.795   3.718 -0.3370  1.7395  1.2272
   14SAPS  C216 1798   4.131   2.842   3.718  0.1694 -0.1400  0.2791
   14SAPS  H16R 1799   4.215   2.862   3.647 -0.3665 -3.7599 -1.6464
   14SAPS  H16S 1800   4.152   2.735   3.739 -3.3052 -1.4201 -1.8967
   14SAPS  C217 1801   4.129   2.928   3.841 -0.6238  0.0658 -0.2762
   14SAPS  H17R 1802   4.052   2.897   3.915 -0.5931  0.7117  0.0287
   14SAPS  H17S 1803   4.106   3.029   3.801  1.1469  0.5463 -0.1333
   14SAPS  C218 1804   4.259   2.941   3.918 -0.9762  0.2798  0.1899
   14SAPS  H18R 1805   4.330   2.978   3.841 -1.5117  0.4635 -0.2292
   14SAPS  H18S 1806   4.298   2.841   3.944 -1.0233 -0.2050 -1.4778
   14SAPS  C219 1807   4.236   3.026   4.047 -0.3236  0.5193  0.1195
   14SAPS  H19R 1808   4.173   3.116   4.028 -3.2604 -0.7505  2.8227
   14SAPS  H19S 1809   4.333   3.068   4.080  0.3729  0.5893 -1.8987
   14SAPS  C220 1810   4.165   2.959   4.168  0.2094  0.5404  0.2100
   14SAPS  H20R 1811   4.174   3.011   4.266  0.4579 -1.0341  1.0594
   14SAPS  H20S 1812   4.205   2.856   4.175  1.8449  0.8544 -2.9861
   14SAPS  H20T 1813   4.057   2.955   4.144 -0.2770 -0.1048  2.2599
   14SAPS   C33 1814   4.480   3.597   2.516 -0.3434  0.0492  1.1967
   14SAPS   H3X 1815   4.521   3.686   2.463 -1.5108 -0.9235 -1.4852
   14SAPS   H3Y 1816   4.537   3.504   2.496  1.7933  1.6585 -0.8220
   14SAPS   C34 1817   4.490   3.640   2.663 -0.1239 -0.1336  0.5451
   14SAPS   H4X 1818   4.407   3.711   2.685 -1.3302 -1.2694 -0.2012
   14SAPS   H4Y 1819   4.587   3.688   2.688 -1.1577  1.2682  2.0521
   14SAPS   C35 1820   4.472   3.527   2.766 -0.5396 -0.9037  0.1477
   14SAPS   H5X 1821   4.516   3.435   2.723 -0.0998 -1.6447  2.0444
   14SAPS   H5Y 1822   4.363   3.508   2.770 -0.7337  0.1690  0.2091
   14SAPS   C36 1823   4.526   3.566   2.907 -0.3925  0.3701  0.4387
   14SAPS   H6X 1824   4.490   3.668   2.931 -0.0884  0.1448  1.9278
   14SAPS   H6Y 1825   4.636   3.571   2.920 -0.4039  0.9500  0.3093
   14SAPS   C37 1826   4.457   3.464   3.001  0.1471 -0.1912 -0.2895
   14SAPS   H7X 1827   4.465   3.359   2.965  1.1258  0.4274 -2.0003
   14SAPS   H7Y 1828   4.348   3.484   2.997 -0.1906 -1.8785 -0.5840
   14SAPS   C38 1829   4.507   3.466   3.150  0.2701  0.1721 -0.3675
   14SAPS   H8X 1830   4.608   3.511   3.142  0.5143 -0.4190 -0.6572
   14SAPS   H8Y 1831   4.526   3.360   3.178 -1.1219  0.5911  2.6361
   14SAPS   C39 1832   4.406   3.522   3.251 -1.1940  0.9683 -0.0315
   14SAPS   H9X 1833   4.312   3.462   3.253 -0.8447  0.4371  0.5487
   14SAPS   H9Y 1834   4.383   3.625   3.216 -0.5150  0.3869 -2.3845
   14SAPS  C310 1835   4.472   3.539   3.396  0.2846  0.3180 -0.0110
   14SAPS  H10X 1836   4.578   3.552   3.363 -0.4785  0.4827 -2.5491
   14SAPS  H10Y 1837   4.468   3.447   3.459 -0.7199  0.4923  0.1800
   14SAPS  C311 1838   4.413   3.662   3.476 -0.5697  0.6882 -0.1585
   14SAPS  H11X 1839   4.303   3.653   3.486 -0.5464  0.2137 -0.2787
   14SAPS  H11Y 1840   4.439   3.749   3.413  0.6460  0.1184 -0.4776
   14SAPS  C312 1841   4.468   3.674   3.614  0.0490  0.2110  0.6922
   14SAPS  H12X 1842   4.573   3.705   3.598 -0.9198  3.5315  0.0346
   14SAPS  H12Y 1843   4.450   3.582   3.673 -0.4233 -0.2386 -0.1416
   14SAPS  C313 1844   4.411   3.795   3.687 -0.3161  0.1436  0.2388
   14SAPS  H13X 1845   4.308   3.773   3.722 -0.0640  1.3147  1.8677
   14SAPS  H13Y 1846   4.416   3.877   3.612  2.1451  0.5135  0.6965
   14SAPS  C314 1847   4.489   3.846   3.816  1.0422 -0.0155 -0.1675
   14SAPS  H14X 1848   4.440   3.939   3.853  0.0022 -0.0505 -1.3667
   14SAPS  H14Y 1849   4.596   3.859   3.791  1.5866  0.0014  1.9526
   14SAPS  C315 1850   4.487   3.734   3.917 -0.9107  0.3154  0.5453
   14SAPS  H15X 1851   4.547   3.656   3.867  0.4958 -0.0377  2.6688
   14SAPS  H15Y 1852   4.386   3.693   3.939 -0.0667 -1.3325  1.5508
   14SAPS  C316 1853   4.568   3.774   4.041 -0.3498 -0.6399 -0.1968
   14SAPS  H16X 1854   4.671   3.808   4.016 -0.7439  1.2726  0.6175
   14SAPS  H16Y 1855   4.583   3.693   4.116 -0.2643 -0.6129 -0.1856
   14SAPS  C317 1856   4.498   3.887   4.120 -0.2752 -0.6110 -0.2468
   14SAPS  H17X 1857   4.390   3.877   4.143  0.1555 -2.6761  1.2398
   14SAPS  H17Y 1858   4.511   3.991   4.084  1.3033  0.2250  2.4390
   14SAPS  C318 1859   4.573   3.903   4.256 -0.0932  0.2901  0.1188
   14SAPS  H18X 1860   4.552   4.006   4.292 -1.7419  0.0356 -0.0320
   14SAPS  H18Y 1861   4.683   3.890   4.245 -0.2446 -1.8425  0.7442
   14SAPS  H18Z 1862   4.540   3.832   4.335  0.7719  2.8921  3.0070
   15SAPS     N 1863   2.710   4.600   1.665  0.1650  0.2769 -0.1315
   15SAPS   HN1 1864   2.684   4.503   1.691 -0.4343  0.1483 -1.1847
   15SAPS   HN2 1865   2.637   4.626   1.596  0.0011 -1.4723 -0.6529
   15SAPS   HN3 1866   2.806   4.598   1.626  0.5185 -1.2705  0.7601
   15SAPS   C12 1867   2.693   4.692   1.788  0.7029  0.1777  0.0504
   15SAPS  H12A 1868   2.739   4.788   1.774  0.5582  0.5833  2.0161
   15SAPS   C13 1869   2.543   4.716   1.816 -0.2628 -0.2695 -0.7477
   15SAPS  O13A 1870   2.456   4.640   1.771  0.2788  0.5212  0.2984
   15SAPS  O13B 1871   2.518   4.790   1.917 -0.0269 -0.2543  0.4471
   15SAPS   C11 1872   2.765   4.634   1.910  0.2159 -0.8683  0.0194
   15SAPS  H11A 1873   2.703   4.556   1.960 -1.6552 -0.6339 -1.7727
   15SAPS  H11B 1874   2.772   4.715   1.985 -0.7215 -1.8992  1.2791
   15SAPS     P 1875   3.035   4.638   1.946  0.6572 -0.3599 -0.0551
   15SAPS   O13 1876   3.138   4.536   1.936 -0.0826 -0.1382 -0.8271
   15SAPS   O14 1877   3.052   4.765   1.877 -0.4624 -0.0288 -0.1055
   15SAPS   O12 1878   2.893   4.576   1.894 -0.5536 -0.3795  0.5730
   15SAPS   O11 1879   3.011   4.677   2.098  0.3388 -0.0363  0.0238
   15SAPS    C1 1880   2.933   4.599   2.194  0.1109 -0.4341 -0.2311
   15SAPS    HA 1881   2.847   4.661   2.229  1.0527  1.6592 -1.4548
   15SAPS    HB 1882   2.903   4.494   2.173  2.5039 -1.1437 -0.4184
   15SAPS    C2 1883   3.022   4.560   2.315 -0.3487  0.3626 -0.7197
   15SAPS    HS 1884   2.956   4.515   2.392  0.3164 -0.7361 -0.7617
   15SAPS   O21 1885   3.108   4.672   2.363  0.0264  0.2065  0.1077
   15SAPS   C21 1886   3.058   4.740   2.463 -0.2877  0.0310  1.1027
   15SAPS   O22 1887   2.950   4.734   2.508  0.5123  0.7414 -0.4809
   15SAPS   C22 1888   3.178   4.824   2.508  0.0027  0.0250 -0.2856
   15SAPS   H2R 1889   3.274   4.768   2.496  0.7772  1.6137 -2.1712
   15SAPS   H2S 1890   3.199   4.912   2.443  2.2387  1.2444  1.8994
   15SAPS    C3 1891   3.110   4.440   2.279 -0.3512  0.1482  0.4644
   15SAPS    HX 1892   3.151   4.454   2.176  1.0491 -1.2306  0.7982
   15SAPS    HY 1893   3.037   4.357   2.276 -1.2908  0.4451  5.7949
   15SAPS   O31 1894   3.202   4.413   2.387  0.7433 -0.6551  0.3557
   15SAPS   C31 1895   3.330   4.418   2.371 -0.5989  0.8010 -1.0513
   15SAPS   O32 1896   3.389   4.446   2.267 -0.0860  0.1347 -0.7032
   15SAPS   C32 1897   3.393   4.387   2.507 -0.1902  0.1062  0.5265
   15SAPS   H2X 1898   3.366   4.281   2.527 -1.1987  0.4854  1.2011
   15SAPS   H2Y 1899   3.352   4.460   2.580 -1.4754  2.6727 -2.5370
   15SAPS   C23 1900   3.169   4.867   2.650 -0.2780 -0.0814  0.2597
   15SAPS   H3R 1901   3.076   4.917   2.685  1.0354  1.8581  1.1725
   15SAPS   H3S 1902   3.238   4.953   2.652 -0.4749  0.0698  0.6759
   15SAPS   C24 1903   3.202   4.761   2.752  0.5721 -0.3626 -0.3839
   15SAPS   H4R 1904   3.255   4.805   2.840 -1.3395 -0.3317  0.8189
   15SAPS   H4S 1905   3.281   4.691   2.717  0.5298 -1.3512  1.3636
   15SAPS   C25 1906   3.084   4.681   2.803 -0.1953  0.6251  0.4268
   15SAPS   H5R 1907   3.049   4.615   2.722 -1.3830  0.6303  0.9192
   15SAPS   C26 1908   3.040   4.664   2.928 -0.1403  0.0155 -0.2984
   15SAPS   H6R 1909   2.948   4.605   2.938 -0.0292 -0.3765 -1.4108
   15SAPS   C27 1910   3.087   4.751   3.045  0.2154  0.0927  0.1437
   15SAPS   H7R 1911   2.989   4.789   3.084 -0.0900 -1.4863  1.0047
   15SAPS   H7S 1912   3.139   4.843   3.012 -2.6032  2.4718  1.7420
   15SAPS   C28 1913   3.164   4.685   3.156  0.0781 -0.0390  0.1822
   15SAPS   H8R 1914   3.228   4.602   3.121 -0.6328 -0.2858 -0.5589
   15SAPS   C29 1915   3.156   4.707   3.286 -0.0295  0.1384 -0.8125
   15SAPS   H9R 1916   3.230   4.656   3.349 -0.9892 -0.7842 -0.3929
   15SAPS  C210 1917   3.055   4.792   3.363 -0.2862 -0.6627 -0.4396
   15SAPS  H10R 1918   2.972   4.818   3.294 -0.9659  1.0959  0.9725
   15SAPS  H10S 1919   3.098   4.890   3.392  0.0278 -1.2277  1.0915
   15SAPS  C211 1920   3.002   4.720   3.481 -0.9712 -0.5065  0.3257
   15SAPS  H11R 1921   2.947   4.627   3.462 -1.6756  0.4684 -3.0531
   15SAPS  C212 1922   3.024   4.759   3.612 -0.2602  0.3593 -0.1937
   15SAPS  H12R 1923   2.985   4.699   3.696 -0.1398  1.5853  0.7563
   15SAPS  C213 1924   3.105   4.886   3.656  0.8988 -0.7398  0.3110
   15SAPS  H13R 1925   3.179   4.899   3.574 -1.3134 -1.1899 -1.8779
   15SAPS  H13S 1926   3.165   4.867   3.747  1.9291 -2.4304 -0.6576
   15SAPS  C214 1927   3.009   5.004   3.673 -0.0579 -0.3941  0.1230
   15SAPS  H14R 1928   3.022   5.075   3.590 -0.1687 -0.8762 -0.3072
   15SAPS  C215 1929   2.932   5.035   3.780 -0.2650  0.3212  0.1856
   15SAPS  H15R 1930   2.881   5.132   3.789  2.2630  2.1572 -2.9100
   15SAPS  C216 1931   2.917   4.933   3.887 -0.2238 -0.1895  0.0097
   15SAPS  H16R 1932   2.941   4.829   3.856 -2.7580 -1.8378  2.9298
   15SAPS  H16S 1933   2.812   4.939   3.922 -0.1282 -2.0564  0.7007
   15SAPS  C217 1934   3.000   4.977   4.010 -0.6700 -0.3004  0.2343
   15SAPS  H17R 1935   2.971   5.077   4.050 -0.5424 -1.1815  2.6890
   15SAPS  H17S 1936   3.108   4.990   3.986 -0.8618  1.1964  0.0930
   15SAPS  C218 1937   2.977   4.875   4.127 -0.5043 -0.3748  0.7874
   15SAPS  H18R 1938   2.872   4.845   4.145 -0.5334  0.1676  1.5947
   15SAPS  H18S 1939   3.008   4.927   4.220  1.3229  0.6631 -0.3423
   15SAPS  C219 1940   3.059   4.741   4.110  0.1408  0.4975 -0.4180
   15SAPS  H19R 1941   3.164   4.774   4.121  0.6625 -0.5258 -2.0483
   15SAPS  H19S 1942   3.039   4.686   4.016 -0.7165 -1.2119  0.7226
   15SAPS  C220 1943   3.031   4.640   4.225 -0.2645 -0.9626 -0.7608
   15SAPS  H20R 1944   3.021   4.707   4.313 -1.4293 -0.4396 -1.2669
   15SAPS  H20S 1945   3.111   4.564   4.232  0.0371 -0.5841  0.1023
   15SAPS  H20T 1946   2.927   4.600   4.219 -1.6796  2.1720  0.4954
   15SAPS   C33 1947   3.548   4.399   2.505  0.8959  0.5211  0.6987
   15SAPS   H3X 1948   3.568   4.498   2.461  0.4414  0.0971 -0.5039
   15SAPS   H3Y 1949   3.594   4.323   2.438 -0.0354  1.5887 -1.2268
   15SAPS   C34 1950   3.598   4.386   2.655  0.7280 -0.7325 -0.0920
   15SAPS   H4X 1951   3.561   4.293   2.702 -1.7965 -1.2805 -2.8475
   15SAPS   H4Y 1952   3.563   4.475   2.711 -1.8755 -0.0120 -2.6278
   15SAPS   C35 1953   3.752   4.385   2.659 -0.0132 -0.1490 -1.1415
   15SAPS   H5X 1954   3.788   4.462   2.587  2.4788  1.3383  1.4783
   15SAPS   H5Y 1955   3.783   4.287   2.616 -0.2584 -0.3599 -0.8451
   15SAPS   C36 1956   3.819   4.419   2.790  0.1737  0.3182 -0.5145
   15SAPS   H6X 1957   3.768   4.492   2.856  2.2087  1.3661 -0.0285
   15SAPS   H6Y 1958   3.916   4.469   2.768  0.2009  0.3315 -0.3701
   15SAPS   C37 1959   3.846   4.289   2.880 -0.1386 -0.3560  0.8698
   15SAPS   H7X 1960   3.914   4.226   2.818  0.5213 -0.1693  1.3889
   15SAPS   H7Y 1961   3.751   4.232   2.883  0.4539 -1.6313 -1.7722
   15SAPS   C38 1962   3.909   4.307   3.022 -0.1546  0.5952 -0.7358
   15SAPS   H8X 1963   4.009   4.356   3.014  1.1381 -2.0885 -2.8584
   15SAPS   H8Y 1964   3.940   4.205   3.052  0.6313  0.9811 -0.2016
   15SAPS   C39 1965   3.818   4.372   3.130  0.3452 -0.0557 -0.2083
   15SAPS   H9X 1966   3.727   4.309   3.140  0.5537 -0.3573 -0.1944
   15SAPS   H9Y 1967   3.792   4.477   3.103  0.4433  0.0853  0.2282
   15SAPS  C310 1968   3.884   4.383   3.272 -0.9010  0.3121  0.2996
   15SAPS  H10X 1969   3.974   4.448   3.275 -1.5888  1.2874  0.4077
   15SAPS  H10Y 1970   3.909   4.276   3.290  0.1146  0.6281  0.8117
   15SAPS  C311 1971   3.792   4.432   3.377  0.1842 -0.8038  0.7446
   15SAPS  H11X 1972   3.692   4.397   3.345  0.0810  1.4979 -1.8669
   15SAPS  H11Y 1973   3.790   4.543   3.383 -2.0873 -0.7546  0.0564
   15SAPS  C312 1974   3.803   4.375   3.519  0.2459 -0.5044 -0.7211
   15SAPS  H12X 1975   3.835   4.269   3.509 -2.6200 -1.2487 -3.4899
   15SAPS  H12Y 1976   3.705   4.365   3.571  0.5067 -1.0995 -0.3370
   15SAPS  C313 1977   3.911   4.444   3.610 -0.1819  1.0225  0.0099
   15SAPS  H13X 1978   3.864   4.525   3.670 -0.9518  0.6879 -0.1245
   15SAPS  H13Y 1979   3.997   4.480   3.550 -0.0689 -0.2230 -0.6031
   15SAPS  C314 1980   3.973   4.340   3.707  0.5171 -0.7467 -0.0191
   15SAPS  H14X 1981   4.054   4.379   3.772 -0.2472 -2.4414  2.0929
   15SAPS  H14Y 1982   4.030   4.271   3.641  1.9690  1.0714 -0.7405
   15SAPS  C315 1983   3.873   4.277   3.803 -0.2738  0.0734 -0.0262
   15SAPS  H15X 1984   3.918   4.219   3.886 -0.9313  1.7106  1.5449
   15SAPS  H15Y 1985   3.814   4.208   3.739 -0.1253 -1.0744  1.0420
   15SAPS  C316 1986   3.789   4.378   3.873 -0.3813  0.1404  0.3755
   15SAPS  H16X 1987   3.728   4.437   3.801 -2.9817  0.3710  2.5774
   15SAPS  H16Y 1988   3.842   4.445   3.944  0.7596 -0.4424  0.0895
   15SAPS  C317 1989   3.674   4.314   3.959 -0.0729  0.7360  0.0317
   15SAPS  H17X 1990   3.593   4.286   3.887  0.2369  1.2075 -0.5114
   15SAPS  H17Y 1991   3.643   4.394   4.029 -0.3515  1.1568 -0.5648
   15SAPS  C318 1992   3.708   4.177   4.034  0.4380 -0.1819  0.2556
   15SAPS  H18X 1993   3.619   4.118   4.062  1.0716 -2.0862 -1.4718
   15SAPS  H18Y 1994   3.765   4.197   4.127 -3.5067  0.9847  2.6462
   15SAPS  H18Z 1995   3.771   4.117   3.965 -1.7966 -0.8968 -1.2603
   16SAPS     N 1996   4.409   4.144   1.428  0.3590 -0.1584  0.4397
   16SAPS   HN1 1997   4.443   4.070   1.363  2.9849 -0.7556  2.3559
   16SAPS   HN2 1998   4.341   4.204   1.377  0.6294  1.0527  1.4750
   16SAPS   HN3 1999   4.492   4.205   1.442  0.6475 -0.7340  1.2940
   16SAPS   C12 2000   4.369   4.077   1.559  0.3084 -0.1152  0.2346
   16SAPS  H12A 2001   4.264   4.101   1.569  0.4419  0.6104 -0.0318
   16SAPS   C13 2002   4.382   3.922   1.574  0.7452  0.0688 -0.5061
   16SAPS  O13A 2003   4.444   3.860   1.482  0.6202  0.1182  0.2766
   16SAPS  O13B 2004   4.383   3.882   1.692  0.1092 -0.6250 -0.7558
   16SAPS   C11 2005   4.445   4.147   1.674 -0.2586 -0.1454  0.6161
   16SAPS  H11A 2006   4.554   4.133   1.658  0.4916  4.6981 -0.3107
   16SAPS  H11B 2007   4.406   4.109   1.770 -0.6518 -3.0946 -0.6223
   16SAPS     P 2008   4.374   4.382   1.785 -0.1943  0.1010  0.0409
   16SAPS   O13 2009   4.429   4.519   1.783  0.4534 -0.4885 -0.6760
   16SAPS   O14 2010   4.226   4.365   1.782 -0.2301 -0.5234  0.1983
   16SAPS   O12 2011   4.430   4.289   1.663  0.7325 -0.0386 -0.1862
   16SAPS   O11 2012   4.423   4.311   1.914  0.3883  0.1956  0.5127
   16SAPS    C1 2013   4.563   4.275   1.938  1.1216 -0.0771 -0.6927
   16SAPS    HA 2014   4.578   4.166   1.948 -4.2484 -1.2500 -2.3504
   16SAPS    HB 2015   4.632   4.309   1.858 -0.2725  0.8251 -1.5440
   16SAPS    C2 2016   4.616   4.342   2.070 -1.0337 -0.4705  0.3145
   16SAPS    HS 2017   4.714   4.292   2.085 -1.0173  0.0885  2.4103
   16SAPS   O21 2018   4.529   4.312   2.176 -0.5435  0.4844 -0.2675
   16SAPS   C21 2019   4.552   4.188   2.223  0.3221  0.0934 -0.5774
   16SAPS   O22 2020   4.637   4.112   2.183 -0.1553  0.3490  0.5513
   16SAPS   C22 2021   4.466   4.166   2.344 -0.4770 -1.0145  0.2252
   16SAPS   H2R 2022   4.506   4.224   2.430 -0.6131  2.8529 -2.0946
   16SAPS   H2S 2023   4.367   4.215   2.329 -0.6473 -1.3077  0.3789
   16SAPS    C3 2024   4.630   4.497   2.039 -1.2346  0.8182 -0.2607
   16SAPS    HX 2025   4.528   4.522   2.005 -1.7464 -1.4584 -0.5882
   16SAPS    HY 2026   4.697   4.524   1.955  0.0655 -0.0619  0.4480
   16SAPS   O31 2027   4.666   4.575   2.155  0.3063 -0.4393  0.4243
   16SAPS   C31 2028   4.562   4.608   2.234 -0.2337  0.8613 -0.0409
   16SAPS   O32 2029   4.446   4.586   2.211  0.3271 -0.4025  0.0391
   16SAPS   C32 2030   4.619   4.672   2.364 -1.0937 -0.0333  0.1881
   16SAPS   H2X 2031   4.648   4.777   2.343 -0.1500 -0.5192 -1.1003
   16SAPS   H2Y 2032   4.715   4.619   2.386  0.2453  2.0482 -0.3195
   16SAPS   C23 2033   4.454   4.015   2.371  0.7630  1.1865 -0.3033
   16SAPS   H3R 2034   4.547   3.990   2.426  0.0014  0.5018  0.7194
   16SAPS   H3S 2035   4.437   3.954   2.280  0.4906  0.3354  0.2969
   16SAPS   C24 2036   4.332   3.989   2.464  0.2762  0.1968 -0.0965
   16SAPS   H4R 2037   4.317   4.071   2.537  1.3583  2.7839 -2.5782
   16SAPS   H4S 2038   4.358   3.897   2.520  1.9334  0.1566 -0.8789
   16SAPS   C25 2039   4.206   3.975   2.386  0.2754  0.6403 -0.4194
   16SAPS   H5R 2040   4.209   4.004   2.280 -1.5548  0.0619 -0.6563
   16SAPS   C26 2041   4.077   3.959   2.439 -0.0482  0.0701 -0.6152
   16SAPS   H6R 2042   3.988   3.955   2.375 -0.0247 -0.7243 -0.5988
   16SAPS   C27 2043   4.049   3.953   2.591  0.6660  1.4566  0.2461
   16SAPS   H7R 2044   3.945   3.990   2.597 -0.4082 -1.2614 -0.2479
   16SAPS   H7S 2045   4.102   4.019   2.664  0.1720 -1.1770  3.2202
   16SAPS   C28 2046   4.057   3.809   2.640 -0.3519 -0.5934 -0.3239
   16SAPS   H8R 2047   4.048   3.734   2.560 -1.0457 -1.9669  1.0022
   16SAPS   C29 2048   4.088   3.768   2.765  0.0678  0.4601  1.1443
   16SAPS   H9R 2049   4.090   3.659   2.772  0.2742  0.3735  0.0175
   16SAPS  C210 2050   4.116   3.857   2.886 -0.1863  0.6158  0.5065
   16SAPS  H10R 2051   4.018   3.871   2.938 -0.3207  0.6861  0.2362
   16SAPS  H10S 2052   4.135   3.961   2.855 -0.9155  0.4108 -0.6992
   16SAPS  C211 2053   4.236   3.813   2.977  0.7106  0.3254  0.1166
   16SAPS  H11R 2054   4.299   3.739   2.925  1.0151  0.2194  0.6282
   16SAPS  C212 2055   4.256   3.864   3.098 -0.2717  0.1504  0.3966
   16SAPS  H12R 2056   4.339   3.812   3.150  0.3648 -0.2334 -0.9688
   16SAPS  C213 2057   4.162   3.962   3.155 -0.2551 -0.9403  0.0696
   16SAPS  H13R 2058   4.060   3.918   3.157 -0.7097  0.0764  1.0507
   16SAPS  H13S 2059   4.147   4.060   3.104 -0.4189 -1.1988 -0.3767
   16SAPS  C214 2060   4.196   4.003   3.296 -0.4987 -0.7277  0.4638
   16SAPS  H14R 2061   4.292   4.053   3.315 -0.0377 -1.5995  0.5064
   16SAPS  C215 2062   4.127   3.968   3.404  0.0815  0.2441  1.2133
   16SAPS  H15R 2063   4.166   4.013   3.497  3.9809 -1.0879  0.3925
   16SAPS  C216 2064   4.000   3.891   3.401  0.1577  0.7667 -0.3906
   16SAPS  H16R 2065   3.994   3.825   3.491  0.0586 -0.1790 -1.0732
   16SAPS  H16S 2066   3.992   3.825   3.312 -3.6475  0.7610 -0.2217
   16SAPS  C217 2067   3.866   3.972   3.396  0.9829 -0.1768  0.3957
   16SAPS  H17R 2068   3.880   4.066   3.453  1.3612  1.6432 -2.5223
   16SAPS  H17S 2069   3.774   3.928   3.442  1.6706  0.6632  2.7233
   16SAPS  C218 2070   3.833   4.025   3.254 -0.2167 -0.0065 -0.1084
   16SAPS  H18R 2071   3.924   4.058   3.201  0.1555 -1.0475 -0.1197
   16SAPS  H18S 2072   3.768   4.113   3.279 -1.3174 -0.1346 -2.2800
   16SAPS  C219 2073   3.748   3.931   3.165  0.3260  0.0131  0.3409
   16SAPS  H19R 2074   3.666   3.891   3.229  0.9399 -1.5384  0.2100
   16SAPS  H19S 2075   3.809   3.844   3.132 -2.0353 -0.5904 -2.9524
   16SAPS  C220 2076   3.702   3.991   3.029  0.4824  0.1689 -0.3426
   16SAPS  H20R 2077   3.658   3.906   2.972 -3.1076  1.3913  0.3572
   16SAPS  H20S 2078   3.779   4.034   2.962  0.5722 -2.0019 -1.7622
   16SAPS  H20T 2079   3.626   4.069   3.051 -1.7287 -2.1847  0.9126
   16SAPS   C33 2080   4.526   4.687   2.488  0.4371 -0.5524 -0.0760
   16SAPS   H3X 2081   4.468   4.593   2.502  0.3964 -0.3431  1.2963
   16SAPS   H3Y 2082   4.450   4.761   2.454 -0.2595 -1.3487 -0.2909
   16SAPS   C34 2083   4.587   4.724   2.619 -0.8657 -0.4828  0.3497
   16SAPS   H4X 2084   4.655   4.812   2.611 -2.2890  0.6614  0.2459
   16SAPS   H4Y 2085   4.641   4.639   2.666  1.8908 -0.3091 -2.1705
   16SAPS   C35 2086   4.495   4.777   2.726  0.0377  0.2129 -0.0362
   16SAPS   H5X 2087   4.396   4.733   2.702  0.4789 -0.5236 -0.5603
   16SAPS   H5Y 2088   4.481   4.887   2.719 -0.6886  0.0255 -2.6777
   16SAPS   C36 2089   4.511   4.733   2.875 -0.0891  0.0453 -0.0239
   16SAPS   H6X 2090   4.513   4.622   2.880 -2.0709  0.0186  0.9206
   16SAPS   H6Y 2091   4.421   4.769   2.928  1.0525  1.7801  0.8023
   16SAPS   C37 2092   4.632   4.797   2.949 -0.1418  0.1017 -0.0530
   16SAPS   H7X 2093   4.648   4.899   2.907 -0.6869 -0.5818 -2.0158
   16SAPS   H7Y 2094   4.719   4.742   2.910  0.4744  2.0831 -1.6403
   16SAPS   C38 2095   4.642   4.763   3.095 -0.3404 -0.1258 -0.0286
   16SAPS   H8X 2096   4.740   4.796   3.136 -0.7080  0.3181  0.5033
   16SAPS   H8Y 2097   4.627   4.656   3.120 -2.4192  0.4931  1.6861
   16SAPS   C39 2098   4.548   4.839   3.178  0.2791 -0.2240 -1.2548
   16SAPS   H9X 2099   4.439   4.817   3.171 -0.0783  0.3396  1.3794
   16SAPS   H9Y 2100   4.559   4.948   3.161 -0.3972  0.0834  0.0943
   16SAPS  C310 2101   4.580   4.814   3.331 -0.5143  0.6031 -0.2094
   16SAPS  H10X 2102   4.683   4.844   3.359  0.0718 -1.3202 -0.1616
   16SAPS  H10Y 2103   4.577   4.703   3.341  1.2526  0.5508 -0.0745
   16SAPS  C311 2104   4.476   4.886   3.408 -0.4851 -0.0552 -0.6825
   16SAPS  H11X 2105   4.380   4.852   3.364 -1.0755  0.0562  0.4837
   16SAPS  H11Y 2106   4.472   4.992   3.375  0.4695 -0.0124 -0.6917
   16SAPS  C312 2107   4.484   4.880   3.561  0.1307  0.2518  0.1371
   16SAPS  H12X 2108   4.402   4.950   3.590  1.4194  1.6772  0.4629
   16SAPS  H12Y 2109   4.579   4.924   3.599  1.3670 -2.8724  0.9093
   16SAPS  C313 2110   4.465   4.735   3.617 -0.0525 -0.5016  0.6276
   16SAPS  H13X 2111   4.550   4.674   3.580 -0.7385  0.1975 -2.3910
   16SAPS  H13Y 2112   4.369   4.692   3.583  0.9220 -2.3615  0.1065
   16SAPS  C314 2113   4.480   4.729   3.766  0.3274 -0.5547 -0.7482
   16SAPS  H14X 2114   4.580   4.768   3.794  0.7196 -0.6329 -1.9812
   16SAPS  H14Y 2115   4.475   4.627   3.809 -0.2590  0.2801  1.3173
   16SAPS  C315 2116   4.373   4.816   3.839 -0.6923 -0.1722  0.1187
   16SAPS  H15X 2117   4.270   4.819   3.798 -0.9889  2.0466  0.8653
   16SAPS  H15Y 2118   4.418   4.917   3.833  3.0660 -1.5811  1.3349
   16SAPS  C316 2119   4.371   4.779   3.988 -0.7875  0.9932 -0.3404
   16SAPS  H16X 2120   4.318   4.859   4.045 -0.1279  1.6035 -0.5803
   16SAPS  H16Y 2121   4.472   4.772   4.033 -1.5416  1.5652  1.5324
   16SAPS  C317 2122   4.286   4.645   4.020  0.2218 -0.0973  0.2001
   16SAPS  H17X 2123   4.295   4.623   4.129 -2.1984 -0.4797  0.3900
   16SAPS  H17Y 2124   4.344   4.567   3.966 -0.2689  0.0566 -0.5503
   16SAPS  C318 2125   4.135   4.646   3.981 -0.4284  0.1575  0.8962
   16SAPS  H18X 2126   4.091   4.743   4.012 -1.2108  0.0435  0.1626
   16SAPS  H18Y 2127   4.081   4.565   4.034 -0.1155 -0.4300  0.3371
   16SAPS  H18Z 2128   4.138   4.629   3.871 -3.3896  1.5213  0.5279
   17SAPS     N 2129   0.443   4.596   1.998  0.4637  0.0767 -0.2836
   17SAPS   HN1 2130   0.417   4.697   2.003  1.6717  0.3455  1.8808
   17SAPS   HN2 2131   0.381   4.544   1.934 -2.4578  1.2893  1.3911
   17SAPS   HN3 2132   0.443   4.547   2.089 -0.2956 -0.3641 -0.5186
   17SAPS   C12 2133   0.582   4.598   1.954  0.3166  0.2701 -0.0978
   17SAPS  H12A 2134   0.585   4.548   1.858  0.2749  1.0959 -0.5372
   17SAPS   C13 2135   0.628   4.749   1.933 -0.3174  1.0978  0.2032
   17SAPS  O13A 2136   0.547   4.844   1.955 -0.0445 -0.0863  0.3703
   17SAPS  O13B 2137   0.749   4.770   1.903 -0.2168 -0.3336  0.2881
   17SAPS   C11 2138   0.681   4.520   2.056 -0.5311 -0.6017 -0.1039
   17SAPS  H11A 2139   0.682   4.562   2.159 -1.2737 -1.0888  0.1090
   17SAPS  H11B 2140   0.780   4.552   2.017 -1.0339  1.9117  0.4645
   17SAPS     P 2141   0.794   4.288   2.078 -0.1319  0.2408  0.0672
   17SAPS   O13 2142   0.747   4.155   2.120  0.4893  0.3493  0.0553
   17SAPS   O14 2143   0.875   4.294   1.957  0.0090  0.1105 -0.4009
   17SAPS   O12 2144   0.658   4.377   2.058  0.0425  0.0611 -0.1012
   17SAPS   O11 2145   0.876   4.355   2.196 -1.0778 -0.5169 -0.2526
   17SAPS    C1 2146   0.831   4.338   2.329  0.1310  0.6232 -0.1393
   17SAPS    HA 2147   0.722   4.357   2.340 -0.3533 -1.1327 -1.5023
   17SAPS    HB 2148   0.851   4.235   2.366 -0.3764  0.8344  0.7620
   17SAPS    C2 2149   0.902   4.434   2.423  0.0338  0.4367 -0.5209
   17SAPS    HS 2150   1.004   4.394   2.439  0.2630  1.2750  0.1868
   17SAPS   O21 2151   0.827   4.445   2.550  0.0937  0.4535 -0.1883
   17SAPS   C21 2152   0.842   4.346   2.635 -0.2041  0.6231  0.3987
   17SAPS   O22 2153   0.895   4.236   2.618  0.1332 -0.2813 -0.0712
   17SAPS   C22 2154   0.788   4.394   2.771 -0.1927 -0.0680  0.5336
   17SAPS   H2R 2155   0.837   4.489   2.802  1.2930 -1.2492  1.9841
   17SAPS   H2S 2156   0.680   4.408   2.753 -0.1730 -1.4914 -0.9458
   17SAPS    C3 2157   0.904   4.576   2.359  0.0448 -0.4185  0.2121
   17SAPS    HX 2158   0.801   4.610   2.334  0.2031 -0.8443 -1.0986
   17SAPS    HY 2159   0.969   4.559   2.271 -1.0714  2.1772 -1.2505
   17SAPS   O31 2160   0.977   4.659   2.453  0.0349  0.0799 -0.3882
   17SAPS   C31 2161   0.960   4.785   2.438  0.0583  0.5530 -0.0624
   17SAPS   O32 2162   0.902   4.845   2.348 -0.0638 -0.2932 -0.4316
   17SAPS   C32 2163   1.049   4.861   2.547  0.4734  0.4582  0.2134
   17SAPS   H2X 2164   1.155   4.867   2.516  0.5287  1.6008  0.5715
   17SAPS   H2Y 2165   1.048   4.801   2.641  3.5896 -2.5497 -1.4505
   17SAPS   C23 2166   0.802   4.285   2.879 -0.1794  0.2099  0.1107
   17SAPS   H3R 2167   0.907   4.251   2.885 -0.8286 -1.7326  1.3191
   17SAPS   H3S 2168   0.749   4.194   2.844  0.6915 -0.1697 -0.2494
   17SAPS   C24 2169   0.755   4.321   3.020  0.1827 -0.2109  0.2789
   17SAPS   H4R 2170   0.767   4.238   3.092 -0.3456 -1.4850 -1.0624
   17SAPS   H4S 2171   0.645   4.329   3.020  0.1244 -0.9288  0.9349
   17SAPS   C25 2172   0.816   4.454   3.069 -0.4005  0.0837 -0.1259
   17SAPS   H5R 2173   0.912   4.478   3.020 -0.6033 -0.4773 -0.8160
   17SAPS   C26 2174   0.782   4.514   3.185 -0.7207  0.0846  0.0964
   17SAPS   H6R 2175   0.832   4.607   3.217 -0.4918 -0.5511  1.6316
   17SAPS   C27 2176   0.665   4.472   3.276  0.8377 -0.5047 -0.0440
   17SAPS   H7R 2177   0.692   4.372   3.315 -0.3015 -0.3025  1.3402
   17SAPS   H7S 2178   0.577   4.460   3.208  0.7959  3.0310 -0.8104
   17SAPS   C28 2179   0.634   4.560   3.393 -0.0513 -0.6218 -0.0881
   17SAPS   H8R 2180   0.652   4.669   3.386  0.2329 -0.5794  1.0301
   17SAPS   C29 2181   0.619   4.522   3.521  0.2560  0.4634 -0.2266
   17SAPS   H9R 2182   0.615   4.599   3.599  0.8311 -0.9549  1.2636
   17SAPS  C210 2183   0.618   4.381   3.571  0.2033  1.0402 -0.4078
   17SAPS  H10R 2184   0.719   4.337   3.558  0.6521  2.1228 -0.6988
   17SAPS  H10S 2185   0.554   4.317   3.506 -2.5254  1.2409  1.9030
   17SAPS  C211 2186   0.564   4.368   3.717  0.0473  1.5545  0.9066
   17SAPS  H11R 2187   0.543   4.462   3.770 -2.3351  1.5782  0.0271
   17SAPS  C212 2188   0.547   4.250   3.780  0.3136  0.7296 -0.7971
   17SAPS  H12R 2189   0.505   4.248   3.882 -0.8967 -1.6055 -1.2736
   17SAPS  C213 2190   0.544   4.105   3.719  0.2248 -0.3391  0.2763
   17SAPS  H13R 2191   0.641   4.061   3.749  1.5271  2.7227  0.9219
   17SAPS  H13S 2192   0.542   4.115   3.608 -1.2061 -3.0326 -0.0317
   17SAPS  C214 2193   0.418   4.022   3.753 -0.0189  0.0946 -0.2076
   17SAPS  H14R 2194   0.319   4.050   3.715 -1.3031  1.1132  3.4366
   17SAPS  C215 2195   0.416   3.924   3.847 -0.2778  0.5482 -0.0988
   17SAPS  H15R 2196   0.324   3.867   3.869  1.0046 -1.0914  1.3394
   17SAPS  C216 2197   0.532   3.877   3.928 -0.0199  0.3300 -0.4685
   17SAPS  H16R 2198   0.514   3.845   4.032 -0.1994  1.5903 -0.0941
   17SAPS  H16S 2199   0.611   3.955   3.931  0.4020 -0.1164  1.7810
   17SAPS  C217 2200   0.595   3.746   3.867 -0.1293 -0.5496  0.1564
   17SAPS  H17R 2201   0.640   3.762   3.767  1.5843 -0.5970  0.8765
   17SAPS  H17S 2202   0.519   3.666   3.850 -1.6037  0.7359  0.4916
   17SAPS  C218 2203   0.697   3.685   3.965 -0.2593  1.0456  0.7384
   17SAPS  H18R 2204   0.663   3.666   4.069  2.6458  0.1944  1.6419
   17SAPS  H18S 2205   0.776   3.763   3.979 -1.4371  2.2051  1.0852
   17SAPS  C219 2206   0.758   3.560   3.904  0.4928  0.0357  0.3829
   17SAPS  H19R 2207   0.787   3.589   3.800  0.0906  1.0177  0.5304
   17SAPS  H19S 2208   0.680   3.481   3.897  1.7184 -1.1135 -1.3078
   17SAPS  C220 2209   0.879   3.501   3.969 -0.9489  0.6271  0.3700
   17SAPS  H20R 2210   0.874   3.470   4.076 -1.2202 -0.4514  0.0440
   17SAPS  H20S 2211   0.968   3.567   3.960 -0.5202  0.1938  1.2506
   17SAPS  H20T 2212   0.906   3.409   3.913  1.3241 -0.4930  3.0199
   17SAPS   C33 2213   1.004   5.012   2.556 -0.3754 -0.2933  0.0058
   17SAPS   H3X 2214   0.894   5.022   2.562 -0.1368  2.6233  1.3171
   17SAPS   H3Y 2215   1.036   5.068   2.466 -0.1912 -0.3950  0.0076
   17SAPS   C34 2216   1.052   5.077   2.692 -0.0219  0.0847 -0.8620
   17SAPS   H4X 2217   1.036   5.186   2.674 -0.5167 -0.0181 -1.0743
   17SAPS   H4Y 2218   1.156   5.049   2.718 -0.8028  0.6504  3.7941
   17SAPS   C35 2219   0.959   5.041   2.813  0.4155 -0.2132 -0.6575
   17SAPS   H5X 2220   0.982   4.935   2.838  4.2541  0.0047 -2.5513
   17SAPS   H5Y 2221   0.850   5.038   2.793  0.4252  1.6987 -1.1606
   17SAPS   C36 2222   0.988   5.118   2.941 -0.7072  0.3045  0.8267
   17SAPS   H6X 2223   0.948   5.222   2.935  0.3882  1.2088  5.6305
   17SAPS   H6Y 2224   1.097   5.117   2.959 -0.8065  0.8781  1.4856
   17SAPS   C37 2225   0.925   5.060   3.070  0.1696  0.0081 -0.8199
   17SAPS   H7X 2226   0.941   5.143   3.143 -0.4452  0.4477 -1.1704
   17SAPS   H7Y 2227   0.982   4.978   3.117 -0.6128  1.9085  4.0676
   17SAPS   C38 2228   0.778   5.033   3.067 -0.2697  0.3655 -0.5066
   17SAPS   H8X 2229   0.741   4.945   3.009  0.3265 -0.8883  0.9312
   17SAPS   H8Y 2230   0.732   5.124   3.023 -3.0673 -1.3508 -1.3956
   17SAPS   C39 2231   0.723   5.032   3.211  0.3183  0.3242 -0.2386
   17SAPS   H9X 2232   0.771   5.123   3.254  1.7169 -0.4840 -0.0003
   17SAPS   H9Y 2233   0.764   4.950   3.273 -0.7976 -0.8608 -1.0363
   17SAPS  C310 2234   0.573   5.029   3.223  0.0755  0.3991 -0.4928
   17SAPS  H10X 2235   0.534   4.925   3.215 -1.5923  0.6829  2.3847
   17SAPS  H10Y 2236   0.536   5.094   3.141 -0.3579  1.5081  0.5485
   17SAPS  C311 2237   0.522   5.081   3.355  0.3245  0.2901  0.3051
   17SAPS  H11X 2238   0.418   5.118   3.343 -0.4468 -2.0879 -1.0040
   17SAPS  H11Y 2239   0.596   5.160   3.383  0.0796  0.7484 -0.3214
   17SAPS  C312 2240   0.537   4.977   3.468  0.3490 -0.6047 -0.4603
   17SAPS  H12X 2241   0.639   4.936   3.448  0.1378 -0.7225 -1.3584
   17SAPS  H12Y 2242   0.462   4.896   3.452  0.9690 -1.3625  0.4297
   17SAPS  C313 2243   0.504   5.033   3.610  0.3239 -0.5987 -0.4938
   17SAPS  H13X 2244   0.400   5.073   3.608  0.7570  0.6147  0.2247
   17SAPS  H13Y 2245   0.567   5.122   3.632 -2.3856  1.3337 -0.1001
   17SAPS  C314 2246   0.523   4.935   3.728  0.1896 -0.5089  0.1212
   17SAPS  H14X 2247   0.452   4.855   3.701 -0.0985  0.2246 -1.4070
   17SAPS  H14Y 2248   0.492   4.972   3.828 -0.4041  0.1789 -0.3038
   17SAPS  C315 2249   0.665   4.881   3.732 -0.8255  1.0984  0.0500
   17SAPS  H15X 2250   0.732   4.967   3.752 -1.2994  1.0904  1.9291
   17SAPS  H15Y 2251   0.693   4.846   3.630  0.3441  1.3518  0.2651
   17SAPS  C316 2252   0.684   4.765   3.833  0.1752 -0.0011 -0.5304
   17SAPS  H16X 2253   0.779   4.709   3.828 -1.2041 -2.4706 -0.4817
   17SAPS  H16Y 2254   0.601   4.694   3.813  1.6083 -1.9257  0.0013
   17SAPS  C317 2255   0.672   4.816   3.978  0.1803 -0.4053  0.0438
   17SAPS  H17X 2256   0.581   4.876   3.997  2.2683  3.2798 -0.5605
   17SAPS  H17Y 2257   0.761   4.882   3.988 -0.3649  0.2946  0.3162
   17SAPS  C318 2258   0.686   4.699   4.071  0.5036  0.0257  0.6475
   17SAPS  H18X 2259   0.702   4.731   4.176  0.0807 -0.8883  0.9947
   17SAPS  H18Y 2260   0.765   4.628   4.041 -0.4418 -0.6323 -0.4005
   17SAPS  H18Z 2261   0.596   4.634   4.065  0.4716  0.0682  0.6611
   18SAPS     N 2262   4.549   2.905   2.204  0.0500 -0.2067 -0.4161
   18SAPS   HN1 2263   4.606   2.967   2.143  0.3497  1.0327  1.0703
   18SAPS   HN2 2264   4.457   2.952   2.213 -0.0089 -0.0601 -1.6325
   18SAPS   HN3 2265   4.587   2.897   2.300 -2.3942  3.7196  1.0942
   18SAPS   C12 2266   4.525   2.772   2.146  0.2615 -0.1360  0.2816
   18SAPS  H12A 2267   4.450   2.716   2.199 -1.0430  1.8117  0.6021
   18SAPS   C13 2268   4.473   2.783   1.998  0.1689  0.7608  1.2246
   18SAPS  O13A 2269   4.474   2.895   1.936  0.5351 -0.5647 -0.2521
   18SAPS  O13B 2270   4.425   2.680   1.939 -0.3097 -0.5179  0.0342
   18SAPS   C11 2271   4.662   2.686   2.161 -0.1921  0.3610 -0.1420
   18SAPS  H11A 2272   4.741   2.742   2.108  0.9129 -1.0113 -0.0098
   18SAPS  H11B 2273   4.644   2.591   2.106  0.2773  0.9055 -1.2716
   18SAPS     P 2274   4.813   2.545   2.323  0.1610  0.0251  0.3877
   18SAPS   O13 2275   4.745   2.415   2.306  0.4520  0.1224 -0.5298
   18SAPS   O14 2276   4.923   2.576   2.234 -0.4490  0.1816  0.6054
   18SAPS   O12 2277   4.699   2.656   2.294 -0.0376  0.2762 -0.3497
   18SAPS   O11 2278   4.851   2.573   2.476 -0.0722 -0.6825 -0.4376
   18SAPS    C1 2279   4.781   2.664   2.562 -0.0699 -0.4708  0.1459
   18SAPS    HA 2280   4.859   2.700   2.633 -0.1395 -0.6595  0.3195
   18SAPS    HB 2281   4.734   2.752   2.512 -1.7589 -2.1939 -1.4599
   18SAPS    C2 2282   4.656   2.602   2.635  0.6694 -0.2669  0.2891
   18SAPS    HS 2283   4.623   2.684   2.702 -0.4489 -1.1588  0.8594
   18SAPS   O21 2284   4.685   2.480   2.704 -0.8221  0.6864 -0.1372
   18SAPS   C21 2285   4.727   2.503   2.834 -0.0362 -0.4406  0.3991
   18SAPS   O22 2286   4.732   2.611   2.881 -0.1569 -0.3655  0.3051
   18SAPS   C22 2287   4.719   2.374   2.914 -0.3654  0.1254 -0.2014
   18SAPS   H2R 2288   4.616   2.338   2.893  0.4185 -1.5553 -1.3608
   18SAPS   H2S 2289   4.784   2.301   2.861 -1.2315  1.2580 -3.0429
   18SAPS    C3 2290   4.531   2.571   2.551  0.0165  0.0972 -0.2283
   18SAPS    HX 2291   4.555   2.491   2.477 -0.1945 -0.3255  0.1554
   18SAPS    HY 2292   4.510   2.664   2.494  0.0851  1.2786  1.5788
   18SAPS   O31 2293   4.421   2.529   2.634 -0.0689 -0.0288  0.8059
   18SAPS   C31 2294   4.350   2.630   2.688 -0.0329  0.1296 -0.4941
   18SAPS   O32 2295   4.372   2.747   2.676  0.1694  0.7022  0.4717
   18SAPS   C32 2296   4.251   2.575   2.777  0.3984  0.1122 -0.2401
   18SAPS   H2X 2297   4.188   2.495   2.731 -1.9932  1.7240  0.0173
   18SAPS   H2Y 2298   4.177   2.646   2.819 -0.9800 -1.0191 -0.6716
   18SAPS   C23 2299   4.750   2.388   3.062 -0.3344 -0.6235 -0.5371
   18SAPS   H3R 2300   4.665   2.450   3.096 -0.2323 -0.6522 -0.2208
   18SAPS   H3S 2301   4.844   2.445   3.079  0.6232 -2.1275 -0.5432
   18SAPS   C24 2302   4.756   2.255   3.133 -0.1791  0.3242  0.2340
   18SAPS   H4R 2303   4.820   2.181   3.080 -0.4525  1.6601 -2.0914
   18SAPS   H4S 2304   4.652   2.217   3.128 -0.9874  2.3980  0.4300
   18SAPS   C25 2305   4.814   2.268   3.271 -0.5233  0.4354  0.1306
   18SAPS   H5R 2306   4.909   2.323   3.279 -0.1827  0.0181 -0.8398
   18SAPS   C26 2307   4.768   2.203   3.382 -0.9228  0.4955 -0.6899
   18SAPS   H6R 2308   4.833   2.226   3.467 -0.2512 -0.4500 -0.9349
   18SAPS   C27 2309   4.666   2.091   3.381  0.3330 -0.5653 -0.6203
   18SAPS   H7R 2310   4.702   2.006   3.443 -0.3523 -0.5932 -0.2449
   18SAPS   H7S 2311   4.646   2.048   3.280  0.1054 -0.0230 -0.8077
   18SAPS   C28 2312   4.536   2.158   3.420  0.7653  0.5953  0.9040
   18SAPS   H8R 2313   4.503   2.221   3.337  0.3298  0.1949  0.7680
   18SAPS   C29 2314   4.470   2.164   3.535 -0.4465  0.0483  0.4002
   18SAPS   H9R 2315   4.375   2.219   3.534  0.3974  1.5306 -0.1534
   18SAPS  C210 2316   4.511   2.109   3.668  0.6693  0.1763  0.3067
   18SAPS  H10R 2317   4.616   2.132   3.697  1.1867 -0.4597 -0.9664
   18SAPS  H10S 2318   4.516   1.999   3.655  2.3099  0.2881 -0.2926
   18SAPS  C211 2319   4.437   2.148   3.789  0.4875 -0.2964 -0.6681
   18SAPS  H11R 2320   4.367   2.232   3.775 -3.1183 -3.3200 -2.4674
   18SAPS  C212 2321   4.466   2.106   3.921  0.1402  0.1668  0.0820
   18SAPS  H12R 2322   4.401   2.135   4.005 -2.2488 -3.2865 -0.3582
   18SAPS  C213 2323   4.570   2.002   3.960  0.2706 -0.1631 -0.2718
   18SAPS  H13R 2324   4.603   1.954   3.865 -0.5065  0.2778 -0.7776
   18SAPS  H13S 2325   4.534   1.924   4.031 -1.6490  1.8261  1.0761
   18SAPS  C214 2326   4.689   2.064   4.025  0.5741 -0.6684  0.6869
   18SAPS  H14R 2327   4.731   2.150   3.971  1.5577 -2.3170 -1.3102
   18SAPS  C215 2328   4.762   2.027   4.131  0.6346 -0.0679 -0.0047
   18SAPS  H15R 2329   4.856   2.079   4.155  1.2243 -1.2646  0.3640
   18SAPS  C216 2330   4.727   1.903   4.206  0.1366  0.5009 -0.4176
   18SAPS  H16R 2331   4.643   1.842   4.166  0.6108  0.7176 -1.8063
   18SAPS  H16S 2332   4.696   1.919   4.311 -1.2939  0.0121 -0.7353
   18SAPS  C217 2333   4.850   1.808   4.187 -0.0099 -0.3241 -1.0442
   18SAPS  H17R 2334   4.833   1.730   4.264  1.4470  0.0483 -0.2863
   18SAPS  H17S 2335   4.943   1.866   4.208 -0.2744 -0.0064 -0.7198
   18SAPS  C218 2336   4.853   1.747   4.043 -0.4749  0.3591 -0.0701
   18SAPS  H18R 2337   4.875   1.821   3.963  0.9786  0.9603  0.8566
   18SAPS  H18S 2338   4.751   1.703   4.035 -0.4496  0.4423 -1.0082
   18SAPS  C219 2339   4.951   1.631   4.025  0.2477 -0.3109  0.7764
   18SAPS  H19R 2340   4.934   1.572   4.118  0.7611  0.9463  1.7018
   18SAPS  H19S 2341   5.053   1.673   4.039  0.0024  0.3973  0.5046
   18SAPS  C220 2342   4.929   1.560   3.884  0.1319 -0.0680 -0.7724
   18SAPS  H20R 2343   4.822   1.537   3.861 -0.1543  0.9592 -0.5338
   18SAPS  H20S 2344   4.982   1.463   3.889  0.3559  0.1029  3.1346
   18SAPS  H20T 2345   4.975   1.627   3.808  1.5998  1.1716  1.1077
   18SAPS   C33 2346   4.319   2.511   2.890  0.0950  0.6036 -0.1668
   18SAPS   H3X 2347   4.402   2.446   2.855 -0.5682  1.0703 -2.8468
   18SAPS   H3Y 2348   4.244   2.437   2.925  2.1424 -2.1362 -1.2014
   18SAPS   C34 2349   4.342   2.602   3.013 -0.5667 -0.0754 -1.2228
   18SAPS   H4X 2350   4.301   2.704   2.999  0.2718  0.1482 -2.2002
   18SAPS   H4Y 2351   4.451   2.625   3.010 -0.5365 -0.2643 -1.5466
   18SAPS   C35 2352   4.327   2.538   3.147  0.6596 -0.2149 -0.1996
   18SAPS   H5X 2353   4.378   2.598   3.225 -3.6432 -0.5234  3.2211
   18SAPS   H5Y 2354   4.377   2.439   3.148  0.0214 -0.5914  2.8940
   18SAPS   C36 2355   4.185   2.514   3.199 -0.0280  0.0223  0.3172
   18SAPS   H6X 2356   4.127   2.444   3.135  0.2792 -0.5230  0.6317
   18SAPS   H6Y 2357   4.120   2.604   3.194  0.0771  0.0380 -1.4745
   18SAPS   C37 2358   4.180   2.456   3.340  0.4011  0.4140  0.8776
   18SAPS   H7X 2359   4.229   2.356   3.347  0.8512  0.4927 -0.6538
   18SAPS   H7Y 2360   4.070   2.446   3.348  0.6540 -1.8824  2.5716
   18SAPS   C38 2361   4.228   2.554   3.451  0.0641 -0.1204 -0.1271
   18SAPS   H8X 2362   4.173   2.650   3.445  0.3455  0.0092 -0.7676
   18SAPS   H8Y 2363   4.332   2.585   3.427  0.0633  1.0508  1.2707
   18SAPS   C39 2364   4.209   2.486   3.589 -0.2212 -0.4391 -1.3688
   18SAPS   H9X 2365   4.245   2.554   3.670 -2.3995 -1.3931  0.5084
   18SAPS   H9Y 2366   4.280   2.401   3.595  0.7479  0.0127 -4.6699
   18SAPS  C310 2367   4.068   2.441   3.631 -0.4383 -0.8408  0.8761
   18SAPS  H10X 2368   4.049   2.366   3.552 -2.5941 -1.2644  1.7465
   18SAPS  H10Y 2369   4.008   2.534   3.621  0.4010 -0.5334 -2.2055
   18SAPS  C311 2370   4.061   2.393   3.779 -0.2589  0.5882  0.5732
   18SAPS  H11X 2371   4.145   2.320   3.787  0.6964  1.7319  1.2466
   18SAPS  H11Y 2372   3.970   2.329   3.776 -0.4898  0.7150  3.0021
   18SAPS  C312 2373   4.077   2.497   3.900 -0.8428  1.0258  0.3002
   18SAPS  H12X 2374   4.008   2.582   3.881 -0.0889  1.2757 -1.6034
   18SAPS  H12Y 2375   4.184   2.529   3.901  0.2795 -1.9894 -2.6413
   18SAPS  C313 2376   4.025   2.429   4.033 -0.6306  0.7144  0.0916
   18SAPS  H13X 2377   4.057   2.323   4.044 -1.0251  0.5029 -0.7000
   18SAPS  H13Y 2378   3.915   2.439   4.046 -0.3288  1.0272  3.1274
   18SAPS  C314 2379   4.073   2.501   4.160  0.3164  0.5740 -0.0992
   18SAPS  H14X 2380   4.056   2.610   4.154  1.6902  0.9442  1.7929
   18SAPS  H14Y 2381   4.183   2.484   4.161  0.6420  2.4957  0.6870
   18SAPS  C315 2382   4.005   2.447   4.291  0.3209  0.5813  0.1976
   18SAPS  H15X 2383   4.037   2.341   4.291  0.2652  0.5640  0.3625
   18SAPS  H15Y 2384   3.896   2.457   4.305  0.1597  0.9298 -1.1782
   18SAPS  C316 2385   4.069   2.509   4.410  0.5768  0.0161  0.4023
   18SAPS  H16X 2386   4.041   2.616   4.423 -1.0927 -0.4299  0.6971
   18SAPS  H16Y 2387   4.178   2.498   4.388  0.6873  0.5418  0.6563
   18SAPS  C317 2388   4.042   2.442   4.546 -0.9629 -0.7916 -1.1064
   18SAPS  H17X 2389   4.059   2.333   4.534 -0.5122 -1.2695  2.6238
   18SAPS  H17Y 2390   3.934   2.455   4.569 -0.2959 -0.5215  2.4575
   18SAPS  C318 2391   4.124   2.490   4.663 -0.5464 -0.3173 -0.0113
   18SAPS  H18X 2392   4.105   2.596   4.689 -0.5620 -0.8537  2.4506
   18SAPS  H18Y 2393   4.233   2.476   4.649 -0.4449  0.5817 -0.1765
   18SAPS  H18Z 2394   4.092   2.442   4.758 -0.0365 -0.1320  0.2537
   19SAPS     N 2395   4.730   0.158   2.178  0.5651 -0.4193  0.1820
   19SAPS   HN1 2396   4.815   0.202   2.218  0.6586  0.3838 -0.8535
   19SAPS   HN2 2397   4.678   0.130   2.263  1.9493 -0.5059  1.0203
   19SAPS   HN3 2398   4.752   0.069   2.128  1.8219 -1.0600  1.7926
   19SAPS   C12 2399   4.662   0.261   2.089  0.1118  0.1701 -0.6921
   19SAPS  H12A 2400   4.687   0.360   2.126  0.0581 -0.5504  1.3991
   19SAPS   C13 2401   4.694   0.265   1.937 -0.4353  0.2883  0.9054
   19SAPS  O13A 2402   4.783   0.187   1.894 -0.3133  0.2505  0.5193
   19SAPS  O13B 2403   4.656   0.353   1.859  0.0525 -0.1486 -0.3511
   19SAPS   C11 2404   4.505   0.232   2.098  0.5582  0.6010  0.0336
   19SAPS  H11A 2405   4.471   0.133   2.061 -1.8336  1.4408 -0.2322
   19SAPS  H11B 2406   4.444   0.297   2.031 -0.4998 -2.1299 -1.8217
   19SAPS     P 2407   4.391   0.373   2.293 -0.1045 -0.4903 -0.3262
   19SAPS   O13 2408   4.484   0.487   2.296 -0.0591  0.2891  1.0805
   19SAPS   O14 2409   4.271   0.384   2.214 -0.4353 -0.1437 -0.1588
   19SAPS   O12 2410   4.468   0.243   2.238 -0.2431  0.1988 -0.1605
   19SAPS   O11 2411   4.357   0.325   2.440 -1.2964 -0.1898  0.2000
   19SAPS    C1 2412   4.365   0.182   2.465  0.6202  0.3415  0.3725
   19SAPS    HA 2413   4.350   0.111   2.381 -0.3448  1.1189 -0.1391
   19SAPS    HB 2414   4.465   0.170   2.511  0.8968 -2.1470 -0.7553
   19SAPS    C2 2415   4.242   0.146   2.555  0.2784 -0.1809 -0.0790
   19SAPS    HS 2416   4.147   0.156   2.498  0.3869 -1.0382 -0.4353
   19SAPS   O21 2417   4.239   0.231   2.668 -0.1261 -0.4117 -0.1230
   19SAPS   C21 2418   4.142   0.325   2.671  0.1685 -0.4157  0.6034
   19SAPS   O22 2419   4.075   0.354   2.573 -0.2270  0.1268 -0.2460
   19SAPS   C22 2420   4.128   0.375   2.812 -0.3476 -0.5767 -0.0935
   19SAPS   H2R 2421   4.122   0.283   2.873  0.7822  0.0991  1.0888
   19SAPS   H2S 2422   4.220   0.428   2.842 -1.2526  1.0708 -0.1079
   19SAPS    C3 2423   4.248  -0.005   2.605 -0.8824 -0.7955 -0.0806
   19SAPS    HX 2424   4.355  -0.034   2.612 -0.5161 -0.2364 -2.4931
   19SAPS    HY 2425   4.205  -0.062   2.520 -2.0961 -0.3290  0.2121
   19SAPS   O31 2426   4.182  -0.019   2.735 -0.8589 -0.1285 -0.9398
   19SAPS   C31 2427   4.067  -0.077   2.731 -0.4130 -0.3603 -0.1703
   19SAPS   O32 2428   4.011  -0.108   2.628 -0.8807 -0.2145 -0.0307
   19SAPS   C32 2429   4.012  -0.087   2.877 -0.0467  0.5679  0.1869
   19SAPS   H2X 2430   4.024   0.016   2.918 -0.5549  1.0843 -0.9332
   19SAPS   H2Y 2431   4.087  -0.147   2.933  0.8147  2.4174  1.1121
   19SAPS   C23 2432   4.004   0.462   2.842 -0.2613 -0.3493 -0.1583
   19SAPS   H3R 2433   3.919   0.397   2.812 -1.3135 -0.6156  3.0328
   19SAPS   H3S 2434   4.001   0.556   2.783 -0.6988 -1.8020 -2.6148
   19SAPS   C24 2435   3.999   0.497   2.994 -0.6033  0.3748 -0.1701
   19SAPS   H4R 2436   3.911   0.563   3.006 -1.2082 -0.4307 -0.0656
   19SAPS   H4S 2437   4.090   0.557   3.012 -1.6670  1.7287  0.7962
   19SAPS   C25 2438   3.999   0.376   3.084 -1.1808 -0.0508 -0.2160
   19SAPS   H5R 2439   4.100   0.336   3.099 -1.7120 -1.2114  0.4567
   19SAPS   C26 2440   3.909   0.320   3.167  0.2592  0.4310 -0.5656
   19SAPS   H6R 2441   3.938   0.229   3.222  0.3052  1.0753  0.4933
   19SAPS   C27 2442   3.767   0.367   3.178  0.2129  0.6390  0.4259
   19SAPS   H7R 2443   3.705   0.294   3.234 -1.5358 -0.0862 -2.2229
   19SAPS   H7S 2444   3.713   0.374   3.081 -0.2924 -0.4020  0.6198
   19SAPS   C28 2445   3.753   0.492   3.257 -0.0870 -0.3373 -0.4263
   19SAPS   H8R 2446   3.730   0.586   3.205  3.8755  2.1380  1.7356
   19SAPS   C29 2447   3.764   0.496   3.393  0.4075  0.2738 -0.6195
   19SAPS   H9R 2448   3.749   0.596   3.437  0.0490 -0.6433  1.4490
   19SAPS  C210 2449   3.821   0.390   3.484  0.2019 -0.1652 -0.2833
   19SAPS  H10R 2450   3.897   0.428   3.556 -0.2516 -1.2329  0.7950
   19SAPS  H10S 2451   3.884   0.312   3.437 -0.0509 -1.0541  0.8075
   19SAPS  C211 2452   3.711   0.326   3.565 -0.0600  0.6495  0.2880
   19SAPS  H11R 2453   3.671   0.229   3.533  1.6628 -0.2517  0.7498
   19SAPS  C212 2454   3.648   0.381   3.674 -0.5325 -0.2924 -0.0067
   19SAPS  H12R 2455   3.567   0.331   3.729  1.2346  0.9688  4.1399
   19SAPS  C213 2456   3.692   0.512   3.732  0.0274 -0.5439 -0.2854
   19SAPS  H13R 2457   3.633   0.600   3.698 -0.9972 -0.6742  1.0564
   19SAPS  H13S 2458   3.800   0.521   3.709  0.9805 -2.9819  2.5087
   19SAPS  C214 2459   3.672   0.532   3.881  0.6076  0.1064  0.1468
   19SAPS  H14R 2460   3.569   0.566   3.897 -0.2931 -3.5766  3.9563
   19SAPS  C215 2461   3.758   0.521   3.987 -0.0894 -0.3123 -0.5182
   19SAPS  H15R 2462   3.720   0.558   4.083 -2.1152 -1.4786 -0.8164
   19SAPS  C216 2463   3.900   0.469   3.986  0.2433 -0.4504 -0.0858
   19SAPS  H16R 2464   3.889   0.361   3.962 -1.2018 -0.3096 -0.1419
   19SAPS  H16S 2465   3.928   0.477   4.093 -1.9898 -0.4684  0.5294
   19SAPS  C217 2466   4.002   0.546   3.901  0.2493  0.1662 -0.1050
   19SAPS  H17R 2467   3.984   0.653   3.925  3.6832  0.4868  1.7721
   19SAPS  H17S 2468   3.974   0.534   3.795  0.8570 -2.4086 -0.0433
   19SAPS  C218 2469   4.152   0.520   3.919 -0.3496  0.0187  0.0246
   19SAPS  H18R 2470   4.176   0.414   3.895 -0.2404 -0.5080  2.2490
   19SAPS  H18S 2471   4.182   0.522   4.026 -2.2059 -2.1785  0.6534
   19SAPS  C219 2472   4.253   0.620   3.864  0.1038  0.0299 -0.9331
   19SAPS  H19R 2473   4.224   0.717   3.907  3.0064  1.6798 -2.3969
   19SAPS  H19S 2474   4.248   0.630   3.753  0.5607  2.3731 -0.7791
   19SAPS  C220 2475   4.400   0.586   3.899 -0.5587  0.3973 -0.1511
   19SAPS  H20R 2476   4.427   0.499   3.836  0.3290  1.2701 -1.0112
   19SAPS  H20S 2477   4.397   0.574   4.010 -0.1953  0.2091 -0.1589
   19SAPS  H20T 2478   4.468   0.670   3.874  0.1040 -0.3409 -0.9233
   19SAPS   C33 2479   3.867  -0.135   2.888  0.2898 -0.0035  0.4812
   19SAPS   H3X 2480   3.857  -0.241   2.853  1.0409  0.6021 -1.7985
   19SAPS   H3Y 2481   3.801  -0.063   2.835  1.8117  1.7226  0.8586
   19SAPS   C34 2482   3.799  -0.112   3.024 -0.5087 -0.0404  0.1140
   19SAPS   H4X 2483   3.690  -0.096   3.007 -0.4206  0.2578 -0.1898
   19SAPS   H4Y 2484   3.848  -0.019   3.062 -1.2321  0.4871 -0.2111
   19SAPS   C35 2485   3.805  -0.234   3.113 -0.1056  0.2537 -0.3915
   19SAPS   H5X 2486   3.904  -0.261   3.155 -0.7551 -1.5087  0.0869
   19SAPS   H5Y 2487   3.769  -0.323   3.057 -0.6098  0.3427 -0.2105
   19SAPS   C36 2488   3.719  -0.211   3.243  0.0639 -0.8152  0.6669
   19SAPS   H6X 2489   3.722  -0.301   3.308  0.6829 -0.0045  1.8037
   19SAPS   H6Y 2490   3.619  -0.199   3.197  1.0533 -1.9532 -2.0119
   19SAPS   C37 2491   3.758  -0.090   3.335  0.3195  0.2491  0.2645
   19SAPS   H7X 2492   3.759   0.007   3.279  0.0127 -0.0915 -0.3389
   19SAPS   H7Y 2493   3.861  -0.112   3.369  0.3762 -2.0464 -1.2181
   19SAPS   C38 2494   3.664  -0.075   3.451  0.4678 -0.3211  0.2232
   19SAPS   H8X 2495   3.578  -0.144   3.444  0.3654 -0.7309  3.8006
   19SAPS   H8Y 2496   3.625   0.029   3.445  1.8363  0.2168  0.0545
   19SAPS   C39 2497   3.736  -0.115   3.576  0.8815 -0.3329 -0.2861
   19SAPS   H9X 2498   3.819  -0.044   3.594  0.0433  1.1008 -1.7462
   19SAPS   H9Y 2499   3.780  -0.215   3.558  1.1319 -0.0653 -1.1989
   19SAPS  C310 2500   3.651  -0.135   3.699 -0.0768 -0.3505 -0.2403
   19SAPS  H10X 2501   3.599  -0.232   3.686 -1.3095  0.3428 -0.6137
   19SAPS  H10Y 2502   3.583  -0.047   3.709  0.4663  0.0723 -0.2389
   19SAPS  C311 2503   3.736  -0.157   3.822  0.1145 -0.8376 -0.0110
   19SAPS  H11X 2504   3.785  -0.063   3.854 -0.8166 -0.2108 -0.3982
   19SAPS  H11Y 2505   3.817  -0.222   3.783  0.5491 -1.5089  1.9004
   19SAPS  C312 2506   3.668  -0.230   3.943 -0.3350 -0.0208  0.1220
   19SAPS  H12X 2507   3.640  -0.335   3.918  0.6073 -0.7541  1.9691
   19SAPS  H12Y 2508   3.584  -0.162   3.969  0.3284  1.3537 -1.2166
   19SAPS  C313 2509   3.769  -0.227   4.063  0.0916  0.0926  0.7370
   19SAPS  H13X 2510   3.722  -0.268   4.155  1.2971 -2.1191  0.4425
   19SAPS  H13Y 2511   3.793  -0.124   4.095 -0.2616  0.8679 -1.3690
   19SAPS  C314 2512   3.887  -0.316   4.034 -0.6304  0.9966 -0.3504
   19SAPS  H14X 2513   3.949  -0.280   3.949 -1.5467  0.0893 -1.4349
   19SAPS  H14Y 2514   3.873  -0.422   4.006  2.2763  0.6634 -0.8648
   19SAPS  C315 2515   3.983  -0.316   4.151 -0.9114 -0.2907 -0.2382
   19SAPS  H15X 2516   3.992  -0.212   4.189 -1.9456 -0.4651  0.5434
   19SAPS  H15Y 2517   4.085  -0.343   4.115 -1.5046 -1.7714 -0.8982
   19SAPS  C316 2518   3.932  -0.420   4.254 -0.1272  0.0076  0.2544
   19SAPS  H16X 2519   3.914  -0.517   4.203 -0.2928  0.0814  0.1692
   19SAPS  H16Y 2520   3.831  -0.380   4.277 -1.5897 -2.0378 -2.1168
   19SAPS  C317 2521   4.020  -0.435   4.373 -0.3529  0.7239 -0.5288
   19SAPS  H17X 2522   4.006  -0.348   4.441 -2.7268  0.7586 -0.9726
   19SAPS  H17Y 2523   4.125  -0.431   4.336  0.3641  1.8590  1.4751
   19SAPS  C318 2524   3.995  -0.575   4.443 -0.1673  0.0462 -0.1342
   19SAPS  H18X 2525   3.887  -0.597   4.448 -0.6173  1.7689 -1.2368
   19SAPS  H18Y 2526   4.046  -0.561   4.541  1.3537 -0.0160 -0.8816
   19SAPS  H18Z 2527   4.050  -0.651   4.384  0.7428  1.3156 -0.9777
   20SAPS     N 2528   4.906   0.368   1.699  0.4592  0.5974 -0.1911
   20SAPS   HN1 2529   4.854   0.299   1.757 -0.5763  0.9436 -0.6757
   20SAPS   HN2 2530   4.871   0.466   1.701  0.2678  0.5271 -0.0636
   20SAPS   HN3 2531   4.898   0.329   1.602  3.8118 -0.0284 -0.3221
   20SAPS   C12 2532   5.048   0.369   1.750  0.6158 -0.0357  0.8328
   20SAPS  H12A 2533   5.085   0.268   1.741  0.0048 -0.1967 -0.0502
   20SAPS   C13 2534   5.138   0.469   1.677  0.0413  0.5729  0.1538
   20SAPS  O13A 2535   5.095   0.529   1.575 -0.0592 -0.2979 -1.1580
   20SAPS  O13B 2536   5.256   0.480   1.720  0.2442  0.4542 -1.0057
   20SAPS   C11 2537   5.050   0.386   1.907 -0.4038 -0.0117 -0.1061
   20SAPS  H11A 2538   5.155   0.364   1.939 -0.3826 -0.0320 -0.1911
   20SAPS  H11B 2539   4.989   0.303   1.949 -1.0429  1.1349  1.3319
   20SAPS     P 2540   4.966   0.528   2.113 -0.6709  0.3005 -0.5366
   20SAPS   O13 2541   5.055   0.615   2.192  0.7753  0.2157  0.3518
   20SAPS   O14 2542   4.824   0.574   2.112 -0.8115  0.8490  0.1351
   20SAPS   O12 2543   5.020   0.509   1.967  0.4660  0.9139  0.3713
   20SAPS   O11 2544   4.972   0.388   2.172 -0.6139  0.4246 -0.3729
   20SAPS    C1 2545   5.090   0.322   2.214 -0.1288 -0.2467  0.1641
   20SAPS    HA 2546   5.063   0.218   2.188  0.2216 -0.7388  1.6703
   20SAPS    HB 2547   5.174   0.354   2.148 -0.7405  1.1636  0.0235
   20SAPS    C2 2548   5.128   0.324   2.367 -0.0894 -0.1145  0.0583
   20SAPS    HS 2549   5.155   0.222   2.400  0.1025  0.1435  0.7187
   20SAPS   O21 2550   5.023   0.363   2.452 -0.0038  0.2191 -0.0129
   20SAPS   C21 2551   4.911   0.309   2.430  0.9197 -0.5714  0.0918
   20SAPS   O22 2552   4.896   0.199   2.385  1.2482  0.1529  0.4393
   20SAPS   C22 2553   4.802   0.417   2.457 -0.0613  0.2387 -0.2169
   20SAPS   H2R 2554   4.820   0.503   2.390 -1.1545 -1.6727 -3.1564
   20SAPS   H2S 2555   4.706   0.374   2.423 -0.1238  0.7105 -0.6457
   20SAPS    C3 2556   5.255   0.410   2.389 -0.3502 -0.3114  0.5872
   20SAPS    HX 2557   5.225   0.513   2.357 -1.2485 -0.2574  1.5331
   20SAPS    HY 2558   5.324   0.365   2.315  0.1801  0.0857  0.8353
   20SAPS   O31 2559   5.315   0.398   2.516  0.6602  0.0024  0.0932
   20SAPS   C31 2560   5.423   0.457   2.547 -0.2696  0.2355 -0.1950
   20SAPS   O32 2561   5.499   0.517   2.475  0.0881  0.0320 -0.2030
   20SAPS   C32 2562   5.437   0.423   2.701 -0.2216  0.4058  0.0468
   20SAPS   H2X 2563   5.423   0.313   2.710  0.8653 -0.0153 -2.6147
   20SAPS   H2Y 2564   5.363   0.487   2.755  0.6739  2.5341 -1.1059
   20SAPS   C23 2565   4.783   0.450   2.600  0.2195 -0.2047 -0.3345
   20SAPS   H3R 2566   4.865   0.515   2.637 -0.8586  1.0079 -0.0114
   20SAPS   H3S 2567   4.805   0.364   2.666 -1.7464  0.9663  2.0266
   20SAPS   C24 2568   4.642   0.501   2.639 -0.7778  1.1100 -0.0754
   20SAPS   H4R 2569   4.639   0.506   2.749 -2.2502 -0.4727  0.0178
   20SAPS   H4S 2570   4.561   0.431   2.609  0.2692  0.0746 -0.5715
   20SAPS   C25 2571   4.632   0.638   2.574 -0.3270  0.4725 -0.0946
   20SAPS   H5R 2572   4.659   0.647   2.468  0.3121 -0.9705 -0.0825
   20SAPS   C26 2573   4.620   0.749   2.650 -0.0936 -0.8129  0.1701
   20SAPS   H6R 2574   4.599   0.847   2.605  2.1900 -0.0085  0.7143
   20SAPS   C27 2575   4.595   0.757   2.804  0.0066 -0.2477  0.0079
   20SAPS   H7R 2576   4.589   0.866   2.823 -1.2751 -0.5931  1.8553
   20SAPS   H7S 2577   4.693   0.729   2.850  0.5401  2.7674  0.8867
   20SAPS   C28 2578   4.473   0.693   2.862  0.9756  0.3270 -0.1784
   20SAPS   H8R 2579   4.386   0.687   2.794  1.0926  1.4676 -0.4537
   20SAPS   C29 2580   4.470   0.621   2.978 -0.2272 -0.2609  0.0589
   20SAPS   H9R 2581   4.376   0.576   3.012 -0.1995  1.4937  2.8167
   20SAPS  C210 2582   4.581   0.593   3.073 -0.8861 -0.7311  0.1347
   20SAPS  H10R 2583   4.671   0.650   3.040 -1.0119 -0.1806  0.7022
   20SAPS  H10S 2584   4.615   0.488   3.085  3.0486  0.1948 -1.2759
   20SAPS  C211 2585   4.559   0.659   3.207 -0.0271 -0.1791  0.6174
   20SAPS  H11R 2586   4.528   0.597   3.293  0.9127  0.3633  1.3708
   20SAPS  C212 2587   4.564   0.792   3.237 -0.2693  0.1259  0.2682
   20SAPS  H12R 2588   4.536   0.825   3.338 -1.9610 -1.1033  0.2429
   20SAPS  C213 2589   4.599   0.903   3.137 -0.5528 -0.3341 -0.3730
   20SAPS  H13R 2590   4.513   0.939   3.077 -0.5955  2.2084  1.0679
   20SAPS  H13S 2591   4.675   0.874   3.062 -0.5846  2.1167 -1.4248
   20SAPS  C214 2592   4.660   1.020   3.201 -0.7733  0.8798 -1.3621
   20SAPS  H14R 2593   4.762   1.043   3.166  0.1329 -2.6580 -1.4751
   20SAPS  C215 2594   4.609   1.106   3.293  0.7689  0.2315  0.1744
   20SAPS  H15R 2595   4.666   1.190   3.333  0.4204  1.8462 -2.4575
   20SAPS  C216 2596   4.474   1.099   3.358 -0.9185  0.2450 -0.6666
   20SAPS  H16R 2597   4.411   1.014   3.323  0.9672 -2.8856  2.8202
   20SAPS  H16S 2598   4.415   1.193   3.349  0.8706  1.8631  2.8573
   20SAPS  C217 2599   4.496   1.057   3.503 -0.6795  0.0407 -0.3748
   20SAPS  H17R 2600   4.532   1.152   3.548  0.0675  1.0773 -2.9456
   20SAPS  H17S 2601   4.573   0.978   3.510 -0.2173  0.6213  1.4944
   20SAPS  C218 2602   4.374   1.020   3.579 -0.0079  0.1882  0.1307
   20SAPS  H18R 2603   4.317   0.933   3.542 -0.5685 -1.0403  3.5087
   20SAPS  H18S 2604   4.299   1.100   3.561  0.8946  0.4211 -3.1500
   20SAPS  C219 2605   4.414   0.998   3.723  0.0715 -0.7421  0.5383
   20SAPS  H19R 2606   4.502   1.063   3.744 -0.6518  0.7796 -0.8824
   20SAPS  H19S 2607   4.458   0.896   3.730  2.5411  0.3624  2.6900
   20SAPS  C220 2608   4.303   1.024   3.831  0.2670 -0.3169 -0.1234
   20SAPS  H20R 2609   4.341   1.025   3.936 -1.9952  2.0862  0.7892
   20SAPS  H20S 2610   4.210   0.972   3.802  1.9154 -1.9315 -2.9144
   20SAPS  H20T 2611   4.269   1.130   3.822  0.1606  0.1513  3.9221
   20SAPS   C33 2612   5.576   0.443   2.758 -0.2598 -0.0375  0.0568
   20SAPS   H3X 2613   5.597   0.552   2.755 -1.3440  0.2260  1.0947
   20SAPS   H3Y 2614   5.649   0.379   2.703 -1.4751 -1.3135 -0.1227
   20SAPS   C34 2615   5.578   0.401   2.907  0.8515  0.2550 -0.0552
   20SAPS   H4X 2616   5.559   0.292   2.917  1.6310  0.2264  1.4706
   20SAPS   H4Y 2617   5.497   0.455   2.961 -0.9615 -1.9965 -0.3676
   20SAPS   C35 2618   5.712   0.431   2.972 -0.0245 -0.4052  0.8983
   20SAPS   H5X 2619   5.744   0.535   2.946  0.5295  0.0810  3.3243
   20SAPS   H5Y 2620   5.793   0.370   2.926 -0.4241  0.1234 -0.5769
   20SAPS   C36 2621   5.700   0.402   3.115  0.0183  0.0425  0.2716
   20SAPS   H6X 2622   5.678   0.293   3.113 -1.2293  0.2715 -2.9158
   20SAPS   H6Y 2623   5.615   0.458   3.159 -1.3706 -1.4516 -0.4242
   20SAPS   C37 2624   5.833   0.435   3.194 -0.0410 -0.1291 -0.2735
   20SAPS   H7X 2625   5.870   0.536   3.169  2.1585 -1.2261 -1.7385
   20SAPS   H7Y 2626   5.907   0.364   3.151 -1.0694 -0.0627 -2.3047
   20SAPS   C38 2627   5.830   0.403   3.347 -0.3236  0.3112 -0.0404
   20SAPS   H8X 2628   5.791   0.300   3.358  1.2632 -0.4660 -1.2458
   20SAPS   H8Y 2629   5.752   0.474   3.383 -2.6097 -0.0539 -3.7260
   20SAPS   C39 2630   5.965   0.409   3.412 -0.4745 -0.0863 -0.0957
   20SAPS   H9X 2631   6.012   0.503   3.375 -3.1459  0.3391 -2.7627
   20SAPS   H9Y 2632   6.027   0.324   3.377 -1.3466 -0.2494 -1.2977
   20SAPS  C310 2633   5.963   0.408   3.568  1.0311  0.5631 -0.4728
   20SAPS  H10X 2634   5.889   0.330   3.599  0.6292  1.1479  0.0622
   20SAPS  H10Y 2635   5.925   0.510   3.589  0.4401  0.0275  1.3325
   20SAPS  C311 2636   6.111   0.388   3.622  0.2317 -0.2350  0.6394
   20SAPS  H11X 2637   6.184   0.436   3.554  0.2171 -2.2839 -0.9407
   20SAPS  H11Y 2638   6.119   0.278   3.610 -2.1351 -0.3454 -0.5935
   20SAPS  C312 2639   6.133   0.444   3.765  0.2423 -0.1532 -0.2361
   20SAPS  H12X 2640   6.047   0.412   3.827  1.4161  1.3827  2.3652
   20SAPS  H12Y 2641   6.125   0.555   3.755 -0.1251 -0.4089 -3.9756
   20SAPS  C313 2642   6.259   0.408   3.835  0.7881  0.5208 -0.0958
   20SAPS  H13X 2643   6.341   0.459   3.782  0.8669 -1.3111 -1.8763
   20SAPS  H13Y 2644   6.265   0.300   3.809  1.3839  0.6299 -0.4087
   20SAPS  C314 2645   6.262   0.434   3.984 -0.1342 -0.3665 -0.4626
   20SAPS  H14X 2646   6.364   0.411   4.021  0.9462  1.0309 -2.4013
   20SAPS  H14Y 2647   6.190   0.360   4.026 -3.7398  3.5191  0.8354
   20SAPS  C315 2648   6.232   0.578   4.025  0.0418 -0.1095 -0.3691
   20SAPS  H15X 2649   6.127   0.610   4.007  0.3931  1.0281 -0.4181
   20SAPS  H15Y 2650   6.297   0.634   3.956  0.6674 -0.0909  0.2258
   20SAPS  C316 2651   6.270   0.581   4.172 -0.0507  0.3389 -0.6232
   20SAPS  H16X 2652   6.380   0.577   4.186  0.1253  2.1525 -1.1866
   20SAPS  H16Y 2653   6.227   0.491   4.221 -0.6620  1.4894  1.0707
   20SAPS  C317 2654   6.206   0.690   4.257  0.1629  0.8651  0.1915
   20SAPS  H17X 2655   6.096   0.675   4.256  0.4136 -1.2574  0.3652
   20SAPS  H17Y 2656   6.228   0.792   4.218 -0.9779  0.8990 -0.4113
   20SAPS  C318 2657   6.255   0.701   4.403  0.4494 -0.1371 -0.7196
   20SAPS  H18X 2658   6.358   0.742   4.396  0.2067  0.6759  0.2177
   20SAPS  H18Y 2659   6.239   0.600   4.446  1.5551 -0.6227 -1.3961
   20SAPS  H18Z 2660   6.202   0.780   4.461 -2.3888 -2.4443  0.0244
   21CHL1    C3 2661   1.451   3.684   5.965  0.6227  0.8027 -0.4698
   21CHL1    H3 2662   1.533   3.611   5.984  0.4287  0.6990 -0.0107
   21CHL1    O3 2663   1.363   3.682   6.078 -1.0667  0.3816  0.2121
   21CHL1   H3' 2664   1.426   3.691   6.150 -0.8759  0.0365  0.0922
   21CHL1    C4 2665   1.499   3.828   5.947 -0.0035  0.1105  0.0458
   21CHL1   H4A 2666   1.409   3.892   5.953 -1.3315 -1.5580 -0.9174
   21CHL1   H4B 2667   1.559   3.836   6.040 -1.9668  0.5147  1.3248
   21CHL1    C5 2668   1.568   3.862   5.818 -0.3301  0.5881  0.3481
   21CHL1    C6 2669   1.678   3.949   5.815 -0.6525  0.5275  0.1689
   21CHL1    H6 2670   1.706   3.984   5.915  0.8771 -0.3535  0.0782
   21CHL1    C7 2671   1.757   3.976   5.691 -0.3350 -0.2108 -0.0761
   21CHL1   H7A 2672   1.796   4.080   5.696  0.3944 -0.4137 -1.2767
   21CHL1   H7B 2673   1.851   3.918   5.685  0.4622  1.0466 -0.1583
   21CHL1    C8 2674   1.679   3.931   5.562  0.0747 -0.1203  0.0779
   21CHL1    H8 2675   1.596   4.003   5.546  1.1672  1.2091  0.2636
   21CHL1   C14 2676   1.774   3.940   5.443 -0.0379 -0.1945 -0.5057
   21CHL1   H14 2677   1.849   3.858   5.442  1.1447  0.7848  1.7286
   21CHL1   C15 2678   1.861   4.062   5.424 -0.4895 -0.8166 -0.0507
   21CHL1  H15A 2679   1.808   4.159   5.435  0.3073 -0.4489  0.6880
   21CHL1  H15B 2680   1.951   4.066   5.490 -1.5508 -1.7899  1.5161
   21CHL1   C16 2681   1.903   4.051   5.276 -0.1307 -0.6184 -0.4654
   21CHL1  H16A 2682   1.878   4.148   5.226  1.9429  0.3368  0.2174
   21CHL1  H16B 2683   2.014   4.046   5.274 -0.0193  0.6478  0.6197
   21CHL1   C17 2684   1.823   3.934   5.211 -0.2873 -0.4408  1.1551
   21CHL1   H17 2685   1.888   3.844   5.217 -0.5191 -0.8167 -1.0333
   21CHL1   C13 2686   1.699   3.915   5.314  0.5603 -0.2787 -0.1406
   21CHL1   C18 2687   1.597   4.028   5.284  0.8195  0.2538 -0.1263
   21CHL1  H18A 2688   1.647   4.127   5.296  0.9462  0.4165 -1.7538
   21CHL1  H18B 2689   1.563   4.018   5.179  1.8390 -1.1543 -0.3398
   21CHL1  H18C 2690   1.507   4.022   5.350  0.6188  3.4485  0.0917
   21CHL1   C12 2691   1.642   3.771   5.315  0.3051 -0.4861  0.2466
   21CHL1  H12A 2692   1.584   3.779   5.221  1.4537  4.5145 -0.3522
   21CHL1  H12B 2693   1.721   3.693   5.314  0.3347 -0.5193  1.9857
   21CHL1   C11 2694   1.544   3.756   5.437  0.2023  0.0152  0.3974
   21CHL1  H11A 2695   1.453   3.810   5.402  0.1141 -0.6431 -0.4447
   21CHL1  H11B 2696   1.513   3.649   5.444  1.2292 -0.2602  1.0192
   21CHL1    C9 2697   1.606   3.796   5.577  0.1324 -0.4041 -0.2236
   21CHL1    H9 2698   1.681   3.719   5.603 -0.1260 -0.9816 -1.1356
   21CHL1   C10 2699   1.499   3.794   5.693 -0.0202 -0.4621 -0.6489
   21CHL1   C19 2700   1.378   3.883   5.651  0.1617  0.8350 -0.7655
   21CHL1  H19A 2701   1.412   3.986   5.624  2.1055  0.8396  1.3337
   21CHL1  H19B 2702   1.322   3.835   5.568 -2.0333  1.4715  0.2789
   21CHL1  H19C 2703   1.303   3.875   5.732  0.2956  0.3739 -0.6857
   21CHL1    C1 2704   1.451   3.650   5.722  0.3453  0.2650 -0.0065
   21CHL1   H1A 2705   1.395   3.613   5.633 -0.7923  1.8702 -0.0006
   21CHL1   H1B 2706   1.537   3.580   5.729  1.1521  0.9103 -2.3315
   21CHL1    C2 2707   1.366   3.633   5.848 -1.5078 -0.5495 -0.7486
   21CHL1   H2A 2708   1.348   3.526   5.868 -1.1369 -0.6642 -1.0120
   21CHL1   H2B 2709   1.269   3.686   5.835 -0.1186  1.6729 -3.0630
   21CHL1   C20 2710   1.794   3.964   5.059 -0.1535 -0.4494 -0.3004
   21CHL1   H20 2711   1.722   4.048   5.049 -2.3673 -2.4234 -1.8087
   21CHL1   C21 2712   1.737   3.836   5.002 -0.0412 -0.0901  0.1953
   21CHL1  H21A 2713   1.807   3.753   5.024  1.2375  0.6768 -0.8297
   21CHL1  H21B 2714   1.734   3.853   4.892  1.5644  0.4425  0.2073
   21CHL1  H21C 2715   1.633   3.823   5.039 -0.5755  1.0258 -0.8245
   21CHL1   C22 2716   1.926   4.003   4.989  0.2717  0.7602 -0.2600
   21CHL1  H22A 2717   1.959   4.094   5.042 -2.9713  2.1882 -0.4359
   21CHL1  H22B 2718   2.002   3.923   5.000 -1.1136 -1.1476 -3.2183
   21CHL1   C23 2719   1.915   4.049   4.847  0.2622 -0.4590 -0.2057
   21CHL1  H23A 2720   2.006   4.097   4.807  0.9648 -1.3673  0.2621
   21CHL1  H23B 2721   1.906   3.951   4.794  0.5433 -0.7442  0.2761
   21CHL1   C24 2722   1.788   4.133   4.825  0.5047  0.4453 -0.2574
   21CHL1  H24A 2723   1.702   4.066   4.804  0.0790  0.8415  0.2122
   21CHL1  H24B 2724   1.773   4.205   4.908 -2.9299 -0.6322  0.1781
   21CHL1   C25 2725   1.789   4.214   4.690 -0.3282 -0.1768 -0.1725
   21CHL1   H25 2726   1.687   4.255   4.672 -0.2970 -0.3614 -0.7733
   21CHL1   C26 2727   1.881   4.340   4.704 -0.4476 -0.0717  0.2660
   21CHL1  H26A 2728   1.853   4.422   4.635 -0.7889  1.2581  1.9329
   21CHL1  H26B 2729   1.881   4.384   4.806 -0.2140  0.2850  0.1145
   21CHL1  H26C 2730   1.985   4.314   4.675  0.5012  2.3844  1.1997
   21CHL1   C27 2731   1.828   4.132   4.567 -0.2606  0.3677 -0.7612
   21CHL1  H27A 2732   1.938   4.126   4.553  0.1410  2.8510  0.7368
   21CHL1  H27B 2733   1.790   4.028   4.562  0.6730  0.0378 -1.1075
   21CHL1  H27C 2734   1.790   4.187   4.479  0.4526  0.8106 -0.7990
   22CHL1    C3 2735   3.328   3.387   5.670  0.0231 -0.0852 -0.6711
   22CHL1    H3 2736   3.332   3.281   5.636 -1.3698 -0.9725  1.6741
   22CHL1    O3 2737   3.301   3.383   5.811 -0.4161 -0.1297  0.5160
   22CHL1   H3' 2738   3.316   3.472   5.843  0.8259  0.8533 -2.4577
   22CHL1    C4 2739   3.461   3.453   5.652 -0.7743  0.0434 -0.5216
   22CHL1   H4A 2740   3.484   3.544   5.711  0.0439 -0.8904  0.6652
   22CHL1   H4B 2741   3.536   3.382   5.694 -0.5412 -0.6711 -2.0909
   22CHL1    C5 2742   3.492   3.481   5.505 -0.2462  0.3101  0.3419
   22CHL1    C6 2743   3.606   3.443   5.445 -1.1647  0.6947 -0.4256
   22CHL1    H6 2744   3.667   3.370   5.499 -0.3870  1.6567  0.0417
   22CHL1    C7 2745   3.652   3.490   5.310  0.2211  0.0507 -0.5862
   22CHL1   H7A 2746   3.757   3.524   5.312  0.2084  0.0464  0.1449
   22CHL1   H7B 2747   3.651   3.403   5.241 -0.4966  2.3063 -3.6568
   22CHL1    C8 2748   3.555   3.587   5.229  0.2095  0.3948  0.0467
   22CHL1    H8 2749   3.583   3.690   5.261  0.7684  0.3447 -0.2671
   22CHL1   C14 2750   3.572   3.567   5.079 -0.0034  0.1609  0.3767
   22CHL1   H14 2751   3.538   3.463   5.062  1.2644 -0.1857 -0.1548
   22CHL1   C15 2752   3.713   3.571   5.005 -0.2593  0.1607  0.0886
   22CHL1  H15A 2753   3.774   3.655   5.045 -3.3024  1.4584  2.4483
   22CHL1  H15B 2754   3.767   3.475   5.016  2.2692  1.2193 -2.1107
   22CHL1   C16 2755   3.669   3.589   4.861  0.0168 -0.3574  0.3304
   22CHL1  H16A 2756   3.726   3.674   4.817  0.0287 -0.6589 -0.2445
   22CHL1  H16B 2757   3.698   3.495   4.810 -1.3667 -1.5268  1.6252
   22CHL1   C17 2758   3.515   3.611   4.851 -0.1221  0.0357  0.6973
   22CHL1   H17 2759   3.469   3.510   4.842 -2.5407  1.1229 -0.1109
   22CHL1   C13 2760   3.471   3.649   4.995 -0.5889 -0.4991  0.3863
   22CHL1   C18 2761   3.508   3.803   5.010 -0.0080 -0.5607  0.7989
   22CHL1  H18A 2762   3.506   3.841   5.114 -0.8517 -0.4193  0.7405
   22CHL1  H18B 2763   3.603   3.844   4.969 -2.4342  2.0016 -3.0295
   22CHL1  H18C 2764   3.431   3.867   4.960  2.0420 -0.2978 -2.3183
   22CHL1   C12 2765   3.327   3.613   5.038  0.1058 -0.1895  0.1464
   22CHL1  H12A 2766   3.246   3.667   4.984  0.4436 -1.3952 -1.6573
   22CHL1  H12B 2767   3.319   3.503   5.021  0.7175 -0.7548  2.9872
   22CHL1   C11 2768   3.308   3.631   5.191 -0.1945  0.0113  0.1066
   22CHL1  H11A 2769   3.326   3.741   5.202 -0.1422 -0.0246  0.4068
   22CHL1  H11B 2770   3.202   3.603   5.210 -0.4093  0.7182 -0.0026
   22CHL1    C9 2771   3.412   3.553   5.274 -0.1672 -0.1116 -0.6302
   22CHL1    H9 2772   3.407   3.449   5.237  1.2129  0.0236 -1.2752
   22CHL1   C10 2773   3.382   3.554   5.425  0.5557 -0.1437  0.7872
   22CHL1   C19 2774   3.384   3.696   5.483 -0.5928 -0.6058  0.3242
   22CHL1  H19A 2775   3.488   3.736   5.484 -0.0687 -1.7803  3.8696
   22CHL1  H19B 2776   3.327   3.765   5.416 -0.9994 -1.7948 -0.5954
   22CHL1  H19C 2777   3.363   3.708   5.591  1.0609 -0.9045  0.7070
   22CHL1    C1 2778   3.246   3.479   5.460  0.2381  0.7479  0.4755
   22CHL1   H1A 2779   3.170   3.542   5.407  0.6221  0.5537 -0.3252
   22CHL1   H1B 2780   3.245   3.377   5.417 -0.5366  0.9798 -0.0939
   22CHL1    C2 2781   3.213   3.462   5.603  0.0415 -0.4511  0.0800
   22CHL1   H2A 2782   3.117   3.407   5.611 -0.5319  0.5574  0.2696
   22CHL1   H2B 2783   3.191   3.555   5.661 -2.8063 -1.3412  0.5999
   22CHL1   C20 2784   3.477   3.701   4.725 -0.4358  0.1776  0.3338
   22CHL1   H20 2785   3.523   3.801   4.734 -2.0821  0.9937  0.0050
   22CHL1   C21 2786   3.326   3.727   4.715 -0.6176  0.1084 -0.7066
   22CHL1  H21A 2787   3.271   3.630   4.716 -0.0427 -0.3100 -3.0384
   22CHL1  H21B 2788   3.300   3.791   4.628 -0.2380 -0.0965 -0.9764
   22CHL1  H21C 2789   3.291   3.769   4.811 -2.7040 -2.5103 -0.2072
   22CHL1   C22 2790   3.533   3.640   4.594  0.4050  0.2758 -0.1112
   22CHL1  H22A 2791   3.622   3.575   4.612  0.3660  0.2728  0.0658
   22CHL1  H22B 2792   3.449   3.602   4.533 -0.1184  1.7933 -0.3694
   22CHL1   C23 2793   3.594   3.750   4.495  0.7657  0.4720 -0.5782
   22CHL1  H23A 2794   3.523   3.834   4.482  2.0728  1.4132 -2.0028
   22CHL1  H23B 2795   3.693   3.782   4.534  0.6333 -0.2355  0.3695
   22CHL1   C24 2796   3.618   3.687   4.361  0.4845 -0.3144  0.1236
   22CHL1  H24A 2797   3.700   3.614   4.376  0.1439 -0.6803  0.2102
   22CHL1  H24B 2798   3.533   3.619   4.336 -0.7087  1.5039 -1.0988
   22CHL1   C25 2799   3.640   3.771   4.233  0.0496 -0.0689  0.1135
   22CHL1   H25 2800   3.628   3.705   4.144 -0.9671  0.1466  0.0768
   22CHL1   C26 2801   3.535   3.878   4.222 -0.6009 -0.0255  0.0971
   22CHL1  H26A 2802   3.526   3.918   4.119 -0.9946  2.9123  1.1777
   22CHL1  H26B 2803   3.436   3.851   4.266 -1.0584 -1.7278 -1.8554
   22CHL1  H26C 2804   3.563   3.967   4.283 -0.2709 -0.3414  0.4113
   22CHL1   C27 2805   3.779   3.832   4.236 -0.1836  0.3583  0.5682
   22CHL1  H27A 2806   3.848   3.746   4.223 -0.0384  0.2838  1.6821
   22CHL1  H27B 2807   3.782   3.911   4.158 -0.8287  0.6082  0.7892
   22CHL1  H27C 2808   3.801   3.876   4.336 -1.5864 -0.5172  1.2987
   23CHL1    C3 2809   0.814   3.797   5.735 -0.8805 -0.1887 -0.7300
   23CHL1    H3 2810   0.749   3.879   5.697 -3.3347 -1.2662  0.9078
   23CHL1    O3 2811   0.766   3.761   5.865 -0.0501  0.3519  0.0342
   23CHL1   H3' 2812   0.682   3.727   5.833  0.0406  0.7500 -0.6558
   23CHL1    C4 2813   0.791   3.680   5.640 -0.0936 -0.3265 -0.1585
   23CHL1   H4A 2814   0.810   3.586   5.695  0.9226 -0.1691 -0.2244
   23CHL1   H4B 2815   0.680   3.677   5.637 -0.5101  3.2008  3.0851
   23CHL1    C5 2816   0.852   3.691   5.497  0.5336  0.0872 -0.0017
   23CHL1    C6 2817   0.772   3.655   5.391  0.0534 -0.0154  0.1412
   23CHL1    H6 2818   0.666   3.632   5.410 -0.4798  0.9701 -1.4046
   23CHL1    C7 2819   0.814   3.673   5.254 -1.0765  0.0943  0.6094
   23CHL1   H7A 2820   0.785   3.586   5.191 -0.6898 -0.5158  1.2548
   23CHL1   H7B 2821   0.769   3.766   5.214  0.7960  0.4316 -0.8284
   23CHL1    C8 2822   0.972   3.702   5.225  0.4505  0.5399  0.1807
   23CHL1    H8 2823   1.011   3.599   5.236 -1.1968 -0.1358  0.0674
   23CHL1   C14 2824   1.010   3.749   5.091 -0.1359 -0.4405  0.2505
   23CHL1   H14 2825   0.965   3.850   5.076  2.3694  0.8588  1.0720
   23CHL1   C15 2826   0.955   3.661   4.977 -0.0622 -0.2874 -0.2572
   23CHL1  H15A 2827   0.987   3.560   5.012  0.8352  0.0434 -0.0785
   23CHL1  H15B 2828   0.845   3.658   4.968  0.0457 -0.1127 -2.0691
   23CHL1   C16 2829   1.052   3.690   4.861 -0.0123 -0.0054  0.2231
   23CHL1  H16A 2830   1.104   3.594   4.840  1.2373  1.0034 -1.5235
   23CHL1  H16B 2831   0.990   3.714   4.771 -1.8593  1.5055  1.8144
   23CHL1   C17 2832   1.157   3.790   4.920 -0.1340 -0.1610  0.7621
   23CHL1   H17 2833   1.113   3.890   4.904  0.4249  0.0979  0.8205
   23CHL1   C13 2834   1.159   3.775   5.076  0.5144  1.5364  0.0221
   23CHL1   C18 2835   1.245   3.648   5.105 -0.4064  0.0973 -0.3793
   23CHL1  H18A 2836   1.214   3.565   5.037  1.4449  0.0934 -1.2731
   23CHL1  H18B 2837   1.352   3.671   5.086  0.4570 -1.0158  2.5586
   23CHL1  H18C 2838   1.232   3.619   5.211  3.6490  3.0263  1.1513
   23CHL1   C12 2839   1.195   3.887   5.166  0.2356 -0.3816  0.6459
   23CHL1  H12A 2840   1.302   3.913   5.154  0.2297 -0.4877  0.3500
   23CHL1  H12B 2841   1.133   3.975   5.137 -0.1078 -1.6842 -3.1681
   23CHL1   C11 2842   1.162   3.849   5.310  0.4472  0.0011 -0.0701
   23CHL1  H11A 2843   1.242   3.779   5.342 -2.3812 -2.4540  2.2317
   23CHL1  H11B 2844   1.190   3.940   5.367 -1.2449 -0.7231  2.0525
   23CHL1    C9 2845   1.018   3.803   5.335  0.1901 -0.3954  0.0454
   23CHL1    H9 2846   0.953   3.891   5.318  1.2663  0.1339 -1.5544
   23CHL1   C10 2847   0.987   3.748   5.479 -0.2562  0.3411 -0.4984
   23CHL1   C19 2848   1.089   3.631   5.517  0.5028  0.1536  0.3062
   23CHL1  H19A 2849   1.061   3.543   5.456 -2.3913  1.6702 -0.7097
   23CHL1  H19B 2850   1.191   3.670   5.494 -0.4115  1.2705 -2.1431
   23CHL1  H19C 2851   1.082   3.596   5.622 -3.0992 -0.7708 -0.1161
   23CHL1    C1 2852   0.996   3.871   5.578 -0.3786 -0.5903  0.2740
   23CHL1   H1A 2853   1.098   3.916   5.583 -0.8415  0.4616  0.5333
   23CHL1   H1B 2854   0.934   3.955   5.541 -0.4392 -0.1219  1.4110
   23CHL1    C2 2855   0.959   3.846   5.725  0.2133 -0.5284 -0.6681
   23CHL1   H2A 2856   0.967   3.941   5.781  1.6686  0.1414 -1.9339
   23CHL1   H2B 2857   1.016   3.768   5.781  2.3994  1.4423 -0.0048
   23CHL1   C20 2858   1.297   3.780   4.844  0.3611 -0.8667 -0.0974
   23CHL1   H20 2859   1.347   3.685   4.871 -0.4672 -1.2522  0.1298
   23CHL1   C21 2860   1.389   3.896   4.884  0.0316  0.0419 -0.3281
   23CHL1  H21A 2861   1.484   3.898   4.826 -0.8453 -0.0585 -1.7924
   23CHL1  H21B 2862   1.419   3.882   4.991  2.0647  0.5840 -0.7763
   23CHL1  H21C 2863   1.331   3.990   4.876 -0.3801 -0.0463  1.1654
   23CHL1   C22 2864   1.277   3.786   4.691 -0.0718  0.0306 -0.8373
   23CHL1  H22A 2865   1.213   3.704   4.653  0.0206 -0.4527  0.0299
   23CHL1  H22B 2866   1.230   3.884   4.666  0.1762 -0.0387 -1.6171
   23CHL1   C23 2867   1.403   3.783   4.606 -0.2246  0.7987 -0.3082
   23CHL1  H23A 2868   1.467   3.873   4.623  0.6772 -0.0910  1.2800
   23CHL1  H23B 2869   1.451   3.690   4.644 -0.6686  0.8691  0.4368
   23CHL1   C24 2870   1.374   3.768   4.463 -0.3871  0.1453 -0.4524
   23CHL1  H24A 2871   1.312   3.680   4.437 -1.6180  1.2729 -1.5016
   23CHL1  H24B 2872   1.316   3.862   4.451 -0.5480  0.0376 -0.5212
   23CHL1   C25 2873   1.494   3.790   4.366 -0.4768 -0.3006  0.2099
   23CHL1   H25 2874   1.539   3.891   4.377 -2.2852  0.6393 -0.6541
   23CHL1   C26 2875   1.596   3.687   4.406 -0.6420  0.3327 -0.1957
   23CHL1  H26A 2876   1.684   3.690   4.338 -0.0724 -1.7209  0.3540
   23CHL1  H26B 2877   1.638   3.705   4.508  0.2351 -1.0703 -0.2702
   23CHL1  H26C 2878   1.561   3.582   4.395  2.3925 -0.8249  0.2712
   23CHL1   C27 2879   1.448   3.775   4.225 -0.5029 -0.1240 -0.0794
   23CHL1  H27A 2880   1.345   3.809   4.200 -0.6031 -0.5191 -0.2023
   23CHL1  H27B 2881   1.508   3.835   4.153 -1.3092  0.6442 -0.1322
   23CHL1  H27C 2882   1.468   3.672   4.191  0.3611  0.5340 -1.6558
   24CHL1    C3 2883   2.611   4.365   5.950 -0.2891  0.3845 -0.3341
   24CHL1    H3 2884   2.684   4.449   5.951 -1.6277  1.6039 -0.4746
   24CHL1    O3 2885   2.585   4.350   6.089  0.3154 -0.0738 -0.0916
   24CHL1   H3' 2886   2.542   4.264   6.087  1.0278 -0.4224 -0.9689
   24CHL1    C4 2887   2.482   4.401   5.865  0.5958  0.1134 -0.4493
   24CHL1   H4A 2888   2.400   4.326   5.876 -0.0160  0.9795  1.2493
   24CHL1   H4B 2889   2.449   4.501   5.900  1.5863  0.2011  0.2644
   24CHL1    C5 2890   2.527   4.410   5.723  0.0889 -0.1812 -0.6413
   24CHL1    C6 2891   2.519   4.532   5.664  0.6406 -0.5288  0.0667
   24CHL1    H6 2892   2.502   4.626   5.719 -1.1500 -2.3748  2.9775
   24CHL1    C7 2893   2.528   4.541   5.516  0.9473  0.3308  0.4806
   24CHL1   H7A 2894   2.440   4.596   5.477  1.0844  0.4026  0.2714
   24CHL1   H7B 2895   2.625   4.592   5.498  1.4498 -0.4586  0.9100
   24CHL1    C8 2896   2.540   4.404   5.442  0.0930 -0.2039 -0.0213
   24CHL1    H8 2897   2.439   4.358   5.438  1.1110 -2.6603  1.0828
   24CHL1   C14 2898   2.588   4.420   5.309  0.0801 -0.7408  0.1529
   24CHL1   H14 2899   2.694   4.447   5.324  0.1723 -1.2833  0.5170
   24CHL1   C15 2900   2.526   4.533   5.226 -0.2989 -0.2992  0.0441
   24CHL1  H15A 2901   2.417   4.544   5.245 -0.4704 -0.2535 -0.8853
   24CHL1  H15B 2902   2.580   4.622   5.265  0.6689 -0.6856 -0.3776
   24CHL1   C16 2903   2.551   4.502   5.077 -0.1430 -0.2572 -0.2159
   24CHL1  H16A 2904   2.451   4.496   5.029  0.2669  0.9943 -1.2717
   24CHL1  H16B 2905   2.606   4.580   5.020  0.0685 -1.6877 -2.0574
   24CHL1   C17 2906   2.631   4.366   5.076  0.2130  0.4751  0.3125
   24CHL1   H17 2907   2.740   4.387   5.083  0.3677  2.1502 -3.8166
   24CHL1   C13 2908   2.591   4.303   5.211  1.0066  0.9337 -0.2646
   24CHL1   C18 2909   2.442   4.238   5.204  0.2526 -0.3017  0.5496
   24CHL1  H18A 2910   2.458   4.139   5.156 -3.9465 -1.3435  0.8832
   24CHL1  H18B 2911   2.385   4.221   5.298 -1.8837  4.1842  0.3370
   24CHL1  H18C 2912   2.374   4.282   5.128 -1.4884 -2.6911  0.5987
   24CHL1   C12 2913   2.683   4.195   5.269  0.4631  0.7213 -0.2874
   24CHL1  H12A 2914   2.673   4.101   5.211  1.3213  0.7624 -0.5244
   24CHL1  H12B 2915   2.789   4.229   5.261  0.7178 -0.0199 -0.1634
   24CHL1   C11 2916   2.650   4.173   5.422  0.1960 -0.2009 -0.6003
   24CHL1  H11A 2917   2.559   4.110   5.418  0.9059 -1.2214 -2.8313
   24CHL1  H11B 2918   2.737   4.129   5.476 -1.4589 -0.0556  2.3473
   24CHL1    C9 2919   2.628   4.302   5.512 -0.0795  0.3716  0.4071
   24CHL1    H9 2920   2.724   4.356   5.525 -0.3169  0.3807  2.3489
   24CHL1   C10 2921   2.587   4.284   5.654  0.5360 -1.0987 -0.0861
   24CHL1   C19 2922   2.479   4.182   5.666  0.4992  1.0247  0.7404
   24CHL1  H19A 2923   2.422   4.180   5.761 -2.6836  1.3497 -1.0367
   24CHL1  H19B 2924   2.408   4.175   5.581 -1.3128 -1.2224  2.3437
   24CHL1  H19C 2925   2.525   4.081   5.666  0.4469  0.9238  3.7459
   24CHL1    C1 2926   2.697   4.240   5.743 -0.0081  0.5091 -0.4089
   24CHL1   H1A 2927   2.718   4.134   5.718  1.3220  0.7582 -0.4423
   24CHL1   H1B 2928   2.795   4.294   5.743  1.4404 -1.9472  0.9343
   24CHL1    C2 2929   2.673   4.240   5.897  0.0623  0.6370 -0.4844
   24CHL1   H2A 2930   2.768   4.224   5.952 -0.1083  0.0081 -0.3685
   24CHL1   H2B 2931   2.614   4.149   5.922 -2.0794  2.1280  0.2247
   24CHL1   C20 2932   2.600   4.282   4.948  0.4276 -0.1467 -0.2091
   24CHL1   H20 2933   2.489   4.270   4.947  0.4387 -0.6567  1.3928
   24CHL1   C21 2934   2.667   4.141   4.955  0.4507 -0.4284  0.1734
   24CHL1  H21A 2935   2.605   4.070   5.013 -0.8915  0.8129  0.3210
   24CHL1  H21B 2936   2.773   4.143   4.988 -0.3328 -1.5906  3.1409
   24CHL1  H21C 2937   2.672   4.096   4.853  2.5030  0.0971 -0.0117
   24CHL1   C22 2938   2.646   4.359   4.825  0.0171  0.0525 -0.3272
   24CHL1  H22A 2939   2.605   4.310   4.734  1.7025  1.4326 -1.9227
   24CHL1  H22B 2940   2.602   4.461   4.824  1.6175  0.7829 -1.5247
   24CHL1   C23 2941   2.798   4.390   4.817  0.0611 -0.0741  0.0158
   24CHL1  H23A 2942   2.833   4.445   4.907 -1.1991  2.0393 -0.7196
   24CHL1  H23B 2943   2.854   4.294   4.826  3.0918  1.3036 -2.1992
   24CHL1   C24 2944   2.823   4.465   4.693 -0.0578  0.4340  0.5576
   24CHL1  H24A 2945   2.776   4.566   4.699 -0.9501  0.0879 -0.2025
   24CHL1  H24B 2946   2.934   4.470   4.691 -0.0565  0.8640 -2.0601
   24CHL1   C25 2947   2.775   4.404   4.560 -0.0694  0.7560 -0.2527
   24CHL1   H25 2948   2.664   4.392   4.561  0.0224 -1.0270 -2.3309
   24CHL1   C26 2949   2.794   4.498   4.446  0.0757 -0.2305  0.6550
   24CHL1  H26A 2950   2.770   4.469   4.342 -0.2954 -1.1586  0.9811
   24CHL1  H26B 2951   2.747   4.597   4.463 -0.0386  0.0669 -1.1900
   24CHL1  H26C 2952   2.903   4.514   4.436  0.1713 -1.9001 -1.9810
   24CHL1   C27 2953   2.850   4.270   4.533  0.4216  0.0721  0.8848
   24CHL1  H27A 2954   2.813   4.187   4.596 -2.1535  0.5178  0.1125
   24CHL1  H27B 2955   2.827   4.246   4.427 -1.1733 -0.6615  1.3695
   24CHL1  H27C 2956   2.959   4.271   4.554  0.7859  1.6974 -0.8045
   25CHL1    C3 2957   5.248   0.261   5.806 -0.4387  0.0191  0.0133
   25CHL1    H3 2958   5.307   0.168   5.791 -1.3537 -0.3515 -1.5043
   25CHL1    O3 2959   5.239   0.285   5.943  0.3691  0.4761 -0.1268
   25CHL1   H3' 2960   5.217   0.378   5.950  2.1809  1.0214 -0.9425
   25CHL1    C4 2961   5.311   0.385   5.741 -0.6571  0.0011  0.4147
   25CHL1   H4A 2962   5.248   0.476   5.752 -0.8302  0.2677 -2.2187
   25CHL1   H4B 2963   5.411   0.398   5.788 -0.4274  0.0422 -0.0783
   25CHL1    C5 2964   5.324   0.352   5.597 -0.0993  1.4713  0.2036
   25CHL1    C6 2965   5.449   0.339   5.542 -0.4935 -0.7905 -0.1793
   25CHL1    H6 2966   5.541   0.358   5.599  0.3489 -1.2733 -1.3410
   25CHL1    C7 2967   5.468   0.300   5.402 -0.2217 -0.1636  0.4314
   25CHL1   H7A 2968   5.556   0.358   5.367  2.0027 -3.0837  0.7528
   25CHL1   H7B 2969   5.505   0.195   5.392  0.2077  0.2091 -2.7568
   25CHL1    C8 2970   5.344   0.333   5.319  0.8569 -1.0462  0.2833
   25CHL1    H8 2971   5.333   0.443   5.308  1.3891 -0.9926  0.2610
   25CHL1   C14 2972   5.361   0.271   5.181  0.2259 -0.4907 -0.7482
   25CHL1   H14 2973   5.352   0.164   5.210  0.5607  0.5701  3.9575
   25CHL1   C15 2974   5.494   0.288   5.108 -0.7534 -0.6879  0.7659
   25CHL1  H15A 2975   5.522   0.393   5.131 -1.9267 -0.6952  2.4014
   25CHL1  H15B 2976   5.562   0.217   5.161  0.7416  0.5122  0.5239
   25CHL1   C16 2977   5.462   0.261   4.962  0.2625  0.0800  0.9053
   25CHL1  H16A 2978   5.492   0.346   4.896  0.9091 -1.1679 -0.4582
   25CHL1  H16B 2979   5.529   0.178   4.931 -0.4449 -0.4406  0.7604
   25CHL1   C17 2980   5.306   0.229   4.959  0.2958  0.3380  0.2830
   25CHL1   H17 2981   5.301   0.119   4.974 -0.6971  0.3870  0.3653
   25CHL1   C13 2982   5.245   0.298   5.085 -0.1128  0.2442 -0.2754
   25CHL1   C18 2983   5.234   0.455   5.048 -0.3745  0.7411 -0.2393
   25CHL1  H18A 2984   5.221   0.519   5.137  2.1348  0.6336  0.2766
   25CHL1  H18B 2985   5.323   0.508   5.009 -1.0951  1.3663 -1.0661
   25CHL1  H18C 2986   5.144   0.470   4.985 -0.6676  1.6223  0.3722
   25CHL1   C12 2987   5.119   0.236   5.152  0.2497  0.6028 -0.3297
   25CHL1  H12A 2988   5.030   0.267   5.092 -0.9523  0.0336  1.0890
   25CHL1  H12B 2989   5.123   0.126   5.168  0.3083  0.6002 -0.3637
   25CHL1   C11 2990   5.097   0.301   5.292  0.4720  0.6561 -0.1220
   25CHL1  H11A 2991   5.084   0.409   5.273 -1.3338  0.6061  0.6465
   25CHL1  H11B 2992   5.001   0.268   5.336  2.8014 -2.4890  3.2137
   25CHL1    C9 2993   5.216   0.280   5.383 -0.1508  0.0777  0.2011
   25CHL1    H9 2994   5.239   0.172   5.396 -0.3647 -0.1149 -0.9494
   25CHL1   C10 2995   5.193   0.328   5.522  0.2368 -0.2872 -0.0606
   25CHL1   C19 2996   5.120   0.465   5.519  0.0104  0.0299  0.0677
   25CHL1  H19A 2997   5.101   0.499   5.623  0.8714 -1.0776  0.5992
   25CHL1  H19B 2998   5.202   0.522   5.471  1.8994 -2.0205  0.7216
   25CHL1  H19C 2999   5.029   0.478   5.457  0.5862  1.0568 -0.6056
   25CHL1    C1 3000   5.108   0.216   5.601 -0.4522 -0.1517  0.2152
   25CHL1   H1A 3001   5.003   0.219   5.564 -0.0303 -0.3293 -1.0402
   25CHL1   H1B 3002   5.146   0.115   5.574  0.4761 -0.1775  1.5249
   25CHL1    C2 3003   5.108   0.234   5.753  0.0612  0.5014  0.7997
   25CHL1   H2A 3004   5.081   0.135   5.795  2.1351  0.2602  1.7102
   25CHL1   H2B 3005   5.027   0.301   5.789 -0.2878 -0.3196  1.5991
   25CHL1   C20 3006   5.239   0.254   4.820 -0.0525  0.2062  0.5192
   25CHL1   H20 3007   5.215   0.362   4.815  2.2204  0.9592  3.3693
   25CHL1   C21 3008   5.109   0.173   4.807  0.2711  0.2771  0.1634
   25CHL1  H21A 3009   5.046   0.220   4.728  2.4928 -1.3386 -2.7289
   25CHL1  H21B 3010   5.050   0.160   4.900 -1.7942 -2.7924 -1.4091
   25CHL1  H21C 3011   5.125   0.066   4.785 -0.2338  0.0531  0.8401
   25CHL1   C22 3012   5.331   0.217   4.704 -0.1719 -0.2030 -0.5948
   25CHL1  H22A 3013   5.432   0.261   4.718  0.0744 -1.8145  4.9097
   25CHL1  H22B 3014   5.345   0.107   4.709  2.0903 -0.0440 -1.9049
   25CHL1   C23 3015   5.284   0.255   4.561 -0.2478  0.7134  0.4172
   25CHL1  H23A 3016   5.190   0.202   4.536  0.6466 -0.5980 -0.3242
   25CHL1  H23B 3017   5.249   0.360   4.556 -1.9050  0.1258 -2.0000
   25CHL1   C24 3018   5.396   0.216   4.452 -0.2664 -0.9477  0.1984
   25CHL1  H24A 3019   5.481   0.287   4.462  1.0151 -2.2889 -0.7484
   25CHL1  H24B 3020   5.434   0.114   4.472 -1.6587 -1.4393  0.3795
   25CHL1   C25 3021   5.348   0.231   4.306 -0.0500  0.7738 -0.5400
   25CHL1   H25 3022   5.243   0.194   4.306  0.3775 -0.7278  2.7437
   25CHL1   C26 3023   5.335   0.378   4.256  0.1311 -0.2385 -0.3218
   25CHL1  H26A 3024   5.432   0.430   4.241  0.4127 -1.1492 -1.9069
   25CHL1  H26B 3025   5.292   0.378   4.154 -1.1418  0.6307  0.1866
   25CHL1  H26C 3026   5.268   0.432   4.327 -1.0119 -0.1175 -1.4444
   25CHL1   C27 3027   5.443   0.156   4.211 -0.2294 -0.1580 -0.2640
   25CHL1  H27A 3028   5.449   0.049   4.241  0.5161 -0.0273  0.0739
   25CHL1  H27B 3029   5.422   0.167   4.103  0.1751  1.0587 -0.2252
   25CHL1  H27C 3030   5.544   0.192   4.237 -0.9103  1.0266  0.8205
   26CHL1    C3 3031   2.613   3.721   5.799  0.2083 -0.2148  0.0473
   26CHL1    H3 3032   2.518   3.776   5.784 -2.8797 -4.4754  2.0756
   26CHL1    O3 3033   2.623   3.683   5.936 -0.5066  0.7156 -0.2367
   26CHL1   H3' 3034   2.717   3.664   5.939 -0.5414 -0.1898 -2.5259
   26CHL1    C4 3035   2.613   3.600   5.705  0.1526 -0.2002 -0.0413
   26CHL1   H4A 3036   2.693   3.532   5.741  1.6357  1.5308  0.0662
   26CHL1   H4B 3037   2.521   3.541   5.726  1.3399 -2.3576 -0.5918
   26CHL1    C5 3038   2.644   3.621   5.563  0.4299  0.1522 -0.5260
   26CHL1    C6 3039   2.563   3.569   5.468 -0.4620  0.1821 -0.0285
   26CHL1    H6 3040   2.482   3.503   5.504  0.4865  0.0843  2.0578
   26CHL1    C7 3041   2.594   3.578   5.321  0.0006  0.2137 -0.0438
   26CHL1   H7A 3042   2.601   3.478   5.272  1.3394 -0.3768  1.2775
   26CHL1   H7B 3043   2.510   3.638   5.281 -0.0308 -0.9485 -1.8408
   26CHL1    C8 3044   2.727   3.637   5.277  0.2197 -0.4566  0.4585
   26CHL1    H8 3045   2.799   3.554   5.295  0.2095 -1.1223 -2.1124
   26CHL1   C14 3046   2.720   3.690   5.135  0.6585  0.2221 -0.2609
   26CHL1   H14 3047   2.649   3.775   5.144  2.3550  1.5067  1.7737
   26CHL1   C15 3048   2.659   3.597   5.028  0.5694 -0.7254  0.6049
   26CHL1  H15A 3049   2.703   3.495   5.030  0.4965 -0.9730 -3.2234
   26CHL1  H15B 3050   2.550   3.580   5.044  0.0469  0.0896 -1.6789
   26CHL1   C16 3051   2.692   3.668   4.896  0.0856 -0.3119 -0.0146
   26CHL1  H16A 3052   2.743   3.590   4.836 -0.3923  0.0328 -0.8917
   26CHL1  H16B 3053   2.610   3.701   4.828  0.6499  1.1152 -0.0435
   26CHL1   C17 3054   2.804   3.778   4.935 -0.1859  0.1538  0.2775
   26CHL1   H17 3055   2.746   3.872   4.947 -1.9745 -0.9732  1.0419
   26CHL1   C13 3056   2.848   3.746   5.082 -0.7810 -0.1913  0.2577
   26CHL1   C18 3057   2.957   3.638   5.078  0.3846 -0.2493 -0.1904
   26CHL1  H18A 3058   3.054   3.681   5.045 -0.9103  0.2785 -3.8013
   26CHL1  H18B 3059   2.971   3.594   5.179 -2.0790  0.3203  0.4684
   26CHL1  H18C 3060   2.935   3.555   5.006  1.8653 -0.5675 -0.2989
   26CHL1   C12 3061   2.886   3.866   5.174  0.0112  0.0452 -0.0185
   26CHL1  H12A 3062   2.982   3.905   5.135 -0.4842  0.5180 -0.8073
   26CHL1  H12B 3063   2.808   3.944   5.156  1.1645  0.7956 -2.0955
   26CHL1   C11 3064   2.888   3.822   5.325  0.1554 -0.5335 -0.2307
   26CHL1  H11A 3065   2.975   3.752   5.323  2.5751  2.2435 -0.1705
   26CHL1  H11B 3066   2.914   3.916   5.377  2.7304 -1.5263  0.4285
   26CHL1    C9 3067   2.766   3.752   5.371  0.2004 -0.2920  0.3850
   26CHL1    H9 3068   2.683   3.825   5.362  1.2833  0.8221 -0.9678
   26CHL1   C10 3069   2.770   3.709   5.520 -0.7800  0.0261 -0.3603
   26CHL1   C19 3070   2.903   3.636   5.565 -0.0538  0.2771  0.6197
   26CHL1  H19A 3071   2.909   3.544   5.502 -0.4691 -0.3289  1.4499
   26CHL1  H19B 3072   2.998   3.689   5.543  0.6631 -2.1674 -3.0883
   26CHL1  H19C 3073   2.899   3.604   5.671  0.5797  0.4841  0.7113
   26CHL1    C1 3074   2.752   3.836   5.612  0.4988  0.5542  0.0992
   26CHL1   H1A 3075   2.847   3.894   5.612 -0.5201  2.3499  1.8227
   26CHL1   H1B 3076   2.663   3.888   5.568 -1.0393 -0.9572  1.2774
   26CHL1    C2 3077   2.730   3.811   5.762  0.9377  0.3033 -0.3025
   26CHL1   H2A 3078   2.726   3.911   5.809 -1.1785  0.7449 -1.3107
   26CHL1   H2B 3079   2.824   3.770   5.805 -0.8274 -0.3686  3.2787
   26CHL1   C20 3080   2.912   3.795   4.830  0.1698 -0.0175  0.3806
   26CHL1   H20 3081   2.964   3.699   4.809  0.7250  0.2418  0.5614
   26CHL1   C21 3082   3.024   3.901   4.870  0.1229  0.3988 -0.3807
   26CHL1  H21A 3083   3.090   3.923   4.784 -0.6353 -0.3024 -1.1573
   26CHL1  H21B 3084   3.092   3.856   4.946 -0.3954 -1.1205 -0.7816
   26CHL1  H21C 3085   2.982   3.998   4.904 -0.7980  0.1154 -0.6855
   26CHL1   C22 3086   2.840   3.833   4.691 -0.1235  0.2286 -0.4236
   26CHL1  H22A 3087   2.736   3.799   4.673 -0.2086  2.0310 -4.4160
   26CHL1  H22B 3088   2.824   3.943   4.692 -1.4883  0.0667  1.6961
   26CHL1   C23 3089   2.930   3.794   4.570 -0.5291  0.3462 -0.0398
   26CHL1  H23A 3090   2.900   3.859   4.485 -0.1058 -0.1992 -0.6166
   26CHL1  H23B 3091   3.027   3.832   4.606 -0.1256 -0.9054  0.2499
   26CHL1   C24 3092   2.938   3.651   4.525 -0.2987  0.0011  0.3581
   26CHL1  H24A 3093   2.974   3.586   4.608  0.0562  0.7597  0.8127
   26CHL1  H24B 3094   2.838   3.605   4.506  0.4123 -0.5205 -2.6709
   26CHL1   C25 3095   3.017   3.636   4.393 -0.1985  0.6144  0.2735
   26CHL1   H25 3096   3.096   3.714   4.387  0.0221  0.6045  2.4537
   26CHL1   C26 3097   3.076   3.495   4.373 -0.3347 -0.1588 -0.6622
   26CHL1  H26A 3098   3.005   3.409   4.377  0.0969 -0.6055  4.4490
   26CHL1  H26B 3099   3.128   3.501   4.275  0.4001  1.8039 -0.1959
   26CHL1  H26C 3100   3.154   3.478   4.450 -1.6673 -1.7486  0.4036
   26CHL1   C27 3101   2.928   3.678   4.270  0.2538 -0.0008  0.3616
   26CHL1  H27A 3102   2.981   3.650   4.177  0.6908  1.8861  0.0016
   26CHL1  H27B 3103   2.830   3.626   4.279 -0.7910  1.9094  0.6201
   26CHL1  H27C 3104   2.917   3.788   4.269  0.1293 -0.0093 -0.8523
   27CHL1    C3 3105   1.188   3.189   5.692  0.5599  0.3073 -0.5785
   27CHL1    H3 3106   1.098   3.177   5.628  0.1809 -0.4316  0.0843
   27CHL1    O3 3107   1.147   3.168   5.823  0.3397 -0.1827  0.2262
   27CHL1   H3' 3108   1.078   3.230   5.845  1.4999  0.7547  1.3560
   27CHL1    C4 3109   1.293   3.087   5.652  0.0798  0.6504  0.0108
   27CHL1   H4A 3110   1.385   3.095   5.714 -0.8836  0.9226  1.4457
   27CHL1   H4B 3111   1.246   2.988   5.670 -1.6155  1.0565 -1.8689
   27CHL1    C5 3112   1.347   3.103   5.509  0.2701 -0.2237 -0.2732
   27CHL1    C6 3113   1.356   3.003   5.432  0.3105  0.0503  0.6698
   27CHL1    H6 3114   1.327   2.906   5.477 -1.6523  0.7153  0.9639
   27CHL1    C7 3115   1.416   3.001   5.291 -0.2475  0.0590 -0.1110
   27CHL1   H7A 3116   1.477   2.908   5.285 -2.2467 -1.3845  0.8678
   27CHL1   H7B 3117   1.331   2.981   5.223 -0.4434 -0.9672  0.4119
   27CHL1    C8 3118   1.490   3.131   5.255  0.3747 -0.8183 -0.2849
   27CHL1    H8 3119   1.590   3.122   5.302  0.5363  2.6560  0.2830
   27CHL1   C14 3120   1.508   3.144   5.101  0.5491 -0.5261 -0.6615
   27CHL1   H14 3121   1.402   3.150   5.069  0.6970 -1.0727 -1.2916
   27CHL1   C15 3122   1.577   3.033   5.020 -0.3771  0.1767  0.1600
   27CHL1  H15A 3123   1.658   2.993   5.085 -0.5171  0.5393  0.5550
   27CHL1  H15B 3124   1.505   2.952   4.993  0.8083 -0.2030 -2.1391
   27CHL1   C16 3125   1.621   3.102   4.889  0.3733  0.1544  0.0660
   27CHL1  H16A 3126   1.723   3.075   4.854 -0.2350 -0.7397 -1.1031
   27CHL1  H16B 3127   1.555   3.056   4.812  1.2155  1.2225 -1.3379
   27CHL1   C17 3128   1.583   3.249   4.907  0.4883  0.7630  0.6898
   27CHL1   H17 3129   1.479   3.259   4.868 -0.1324 -0.4995  1.9286
   27CHL1   C13 3130   1.577   3.279   5.053  0.2810  0.9751 -0.0614
   27CHL1   C18 3131   1.725   3.274   5.099 -0.0858 -0.7454  0.3906
   27CHL1  H18A 3132   1.768   3.369   5.060 -1.1756 -0.1614  0.5550
   27CHL1  H18B 3133   1.730   3.275   5.210  1.2122 -3.2544  0.4229
   27CHL1  H18C 3134   1.782   3.186   5.061 -0.7113 -1.1261  0.3154
   27CHL1   C12 3135   1.501   3.391   5.118  0.2647 -0.6388 -0.1293
   27CHL1  H12A 3136   1.560   3.482   5.097  1.9450 -1.5945  0.3043
   27CHL1  H12B 3137   1.399   3.391   5.074  0.2457 -0.6462 -0.0859
   27CHL1   C11 3138   1.489   3.378   5.271 -0.2194 -0.7283  0.1567
   27CHL1  H11A 3139   1.593   3.384   5.310  0.6957 -1.8237 -1.9516
   27CHL1  H11B 3140   1.426   3.463   5.304  0.8248  0.0181  0.2535
   27CHL1    C9 3141   1.414   3.250   5.318 -0.5929  0.3699 -0.9202
   27CHL1    H9 3142   1.314   3.239   5.272  0.0143 -0.9458 -1.9850
   27CHL1   C10 3143   1.394   3.241   5.467 -0.7263 -0.0429 -0.7303
   27CHL1   C19 3144   1.526   3.270   5.536 -0.5937 -0.3412  0.3592
   27CHL1  H19A 3145   1.609   3.209   5.493 -0.3336 -0.6350  1.2540
   27CHL1  H19B 3146   1.555   3.375   5.519 -1.9252 -0.0132  0.0174
   27CHL1  H19C 3147   1.532   3.252   5.646  1.2277 -2.1968  0.0281
   27CHL1    C1 3148   1.294   3.346   5.523 -0.3144 -0.1532  0.4487
   27CHL1   H1A 3149   1.347   3.442   5.510  1.0826 -0.9287  0.2068
   27CHL1   H1B 3150   1.209   3.363   5.453  1.1737  3.3794 -0.7119
   27CHL1    C2 3151   1.250   3.327   5.668  0.3374  0.6985  0.2594
   27CHL1   H2A 3152   1.189   3.412   5.705  0.6437  1.0939 -0.1291
   27CHL1   H2B 3153   1.343   3.323   5.729  0.1397  1.3899  0.6191
   27CHL1   C20 3154   1.666   3.340   4.807 -0.8052 -0.4994 -0.1582
   27CHL1   H20 3155   1.770   3.346   4.845 -1.3999  0.3267  1.3996
   27CHL1   C21 3156   1.611   3.493   4.810 -0.1546 -0.2192 -0.7415
   27CHL1  H21A 3157   1.503   3.498   4.785 -0.4962 -0.4051  0.5796
   27CHL1  H21B 3158   1.662   3.546   4.728 -0.8751  0.1840 -0.9360
   27CHL1  H21C 3159   1.632   3.538   4.910  1.0908 -0.5847 -0.8313
   27CHL1   C22 3160   1.680   3.276   4.663  0.4973 -0.4722  0.2589
   27CHL1  H22A 3161   1.731   3.178   4.665  4.1297  1.1986 -1.3457
   27CHL1  H22B 3162   1.578   3.269   4.620 -0.8349  0.6497  3.0207
   27CHL1   C23 3163   1.756   3.359   4.558  0.0146  1.0964 -0.0223
   27CHL1  H23A 3164   1.712   3.460   4.537  0.4215  1.4798  0.9289
   27CHL1  H23B 3165   1.856   3.368   4.606  0.4677 -0.7859 -0.5410
   27CHL1   C24 3166   1.778   3.289   4.426  0.2464 -0.4496  0.3761
   27CHL1  H24A 3167   1.822   3.187   4.435  0.7561 -0.1138  2.0520
   27CHL1  H24B 3168   1.677   3.288   4.379  0.1949 -1.5829  0.4698
   27CHL1   C25 3169   1.864   3.366   4.325 -0.0437 -0.0586 -0.9122
   27CHL1   H25 3170   1.829   3.470   4.308  0.6544  0.2049 -0.7986
   27CHL1   C26 3171   2.015   3.372   4.363 -0.3518  0.8264  0.0969
   27CHL1  H26A 3172   2.045   3.266   4.353 -3.6272 -0.2800  0.6258
   27CHL1  H26B 3173   2.079   3.436   4.298  1.5112 -0.6892  0.3665
   27CHL1  H26C 3174   2.017   3.408   4.468 -2.5152 -2.8439  1.6158
   27CHL1   C27 3175   1.839   3.295   4.188 -0.3497 -0.3278 -0.0567
   27CHL1  H27A 3176   1.737   3.326   4.158 -0.5826 -0.9117  0.1197
   27CHL1  H27B 3177   1.854   3.185   4.196 -0.2314 -0.2522  0.8949
   27CHL1  H27C 3178   1.917   3.335   4.120  0.1348 -0.5924  0.3311
   28CHL1    C3 3179   5.676   2.897   5.794 -0.4642  0.1721 -0.9990
   28CHL1    H3 3180   5.772   2.953   5.794  0.0809 -0.7149  0.3924
   28CHL1    O3 3181   5.642   2.887   5.930  0.3470  0.4327 -0.6088
   28CHL1   H3' 3182   5.564   2.832   5.918  0.9168  0.0596 -3.1098
   28CHL1    C4 3183   5.556   2.953   5.710  0.1643 -0.4177 -0.2775
   28CHL1   H4A 3184   5.464   2.890   5.719  0.4578 -0.5060  4.2297
   28CHL1   H4B 3185   5.533   3.049   5.760 -2.1543 -0.6208 -0.8058
   28CHL1    C5 3186   5.593   2.975   5.569 -0.3298 -0.5116 -0.2659
   28CHL1    C6 3187   5.587   3.104   5.513 -0.0391  0.1079 -0.2680
   28CHL1    H6 3188   5.555   3.190   5.574  1.6269  1.1425 -0.7661
   28CHL1    C7 3189   5.625   3.132   5.373  0.2112  0.2998 -0.7240
   28CHL1   H7A 3190   5.546   3.197   5.328 -1.8338 -0.5976  1.3169
   28CHL1   H7B 3191   5.721   3.187   5.373  0.5872 -0.3230  0.1834
   28CHL1    C8 3192   5.654   3.010   5.291  0.1587 -0.2505  0.3516
   28CHL1    H8 3193   5.555   2.974   5.255  1.1137 -2.3015 -0.3799
   28CHL1   C14 3194   5.739   3.053   5.167 -0.1074 -0.7927 -0.3104
   28CHL1   H14 3195   5.838   3.082   5.208 -0.8436 -0.0713  1.0129
   28CHL1   C15 3196   5.689   3.172   5.085  0.1026 -0.1735  0.4580
   28CHL1  H15A 3197   5.582   3.164   5.058  0.6079  0.3256 -1.8925
   28CHL1  H15B 3198   5.703   3.267   5.140 -1.4716 -0.0028  0.6128
   28CHL1   C16 3199   5.753   3.163   4.946  0.0471  0.7859  0.4541
   28CHL1  H16A 3200   5.678   3.145   4.866  0.2722 -3.2135  0.9211
   28CHL1  H16B 3201   5.804   3.255   4.911 -0.8262  1.2719  0.4350
   28CHL1   C17 3202   5.844   3.038   4.954  0.0204  0.5836  0.0840
   28CHL1   H17 3203   5.938   3.073   5.001  0.2637 -1.0345  0.8483
   28CHL1   C13 3204   5.769   2.948   5.066 -0.4760  0.0302  0.0547
   28CHL1   C18 3205   5.637   2.895   4.994  0.2317  0.8151  0.0054
   28CHL1  H18A 3206   5.572   2.967   4.941  0.0147 -0.1080 -1.0221
   28CHL1  H18B 3207   5.673   2.821   4.919  1.4288 -0.1802  1.4776
   28CHL1  H18C 3208   5.565   2.843   5.060  0.2887  0.7408  0.0102
   28CHL1   C12 3209   5.844   2.837   5.143 -0.4788 -0.1635  0.1794
   28CHL1  H12A 3210   5.882   2.751   5.085  2.3986  1.0832  0.0520
   28CHL1  H12B 3211   5.937   2.879   5.186  0.3515 -0.6647 -1.0716
   28CHL1   C11 3212   5.767   2.786   5.266 -0.1390  0.3006  0.7872
   28CHL1  H11A 3213   5.675   2.739   5.225  1.3818 -1.3017 -0.9516
   28CHL1  H11B 3214   5.835   2.712   5.314  0.4650  0.8552  0.7956
   28CHL1    C9 3215   5.721   2.894   5.365  0.6405 -0.3145 -0.0696
   28CHL1    H9 3216   5.818   2.935   5.402  0.5140  1.5342 -1.6096
   28CHL1   C10 3217   5.643   2.848   5.492 -0.0332  0.3874  0.8865
   28CHL1   C19 3218   5.520   2.762   5.454 -0.7929 -0.3282 -0.4941
   28CHL1  H19A 3219   5.447   2.823   5.397 -0.5931  0.0593 -0.3355
   28CHL1  H19B 3220   5.549   2.680   5.384  1.8267  1.2393 -1.3727
   28CHL1  H19C 3221   5.468   2.716   5.542 -0.5564  2.8896  1.4851
   28CHL1    C1 3222   5.741   2.764   5.583 -0.2035 -0.1965 -0.8681
   28CHL1   H1A 3223   5.752   2.665   5.534  1.9094 -0.7344  0.5750
   28CHL1   H1B 3224   5.841   2.812   5.574 -0.5523  1.4249  2.4438
   28CHL1    C2 3225   5.713   2.761   5.736  0.0943 -0.2007 -0.6034
   28CHL1   H2A 3226   5.807   2.716   5.774 -1.2466 -2.5290  0.2074
   28CHL1   H2B 3227   5.633   2.688   5.760  0.1435 -0.5220 -1.3654
   28CHL1   C20 3228   5.869   2.980   4.813  0.0160 -0.3227  0.0722
   28CHL1   H20 3229   5.776   2.944   4.765  1.3183 -2.2588 -1.1770
   28CHL1   C21 3230   5.968   2.856   4.823  0.8825  0.0018  0.5299
   28CHL1  H21A 3231   6.061   2.890   4.874  0.1261 -0.0697  2.0074
   28CHL1  H21B 3232   6.000   2.821   4.723 -0.1803 -0.6070  0.3940
   28CHL1  H21C 3233   5.917   2.771   4.872  1.5338 -1.8986 -1.8820
   28CHL1   C22 3234   5.927   3.087   4.724  0.5498 -0.1268 -0.2757
   28CHL1  H22A 3235   5.872   3.183   4.728  0.8705  0.1084 -1.2283
   28CHL1  H22B 3236   6.028   3.115   4.759  0.0295 -0.6923  1.8537
   28CHL1   C23 3237   5.963   3.058   4.572  0.5346 -0.5582 -0.0609
   28CHL1  H23A 3238   6.052   2.990   4.573  1.1938  0.2882 -0.0553
   28CHL1  H23B 3239   5.874   3.009   4.527 -0.4683  0.4897  0.7504
   28CHL1   C24 3240   6.002   3.185   4.487 -0.3939  0.0232 -0.4895
   28CHL1  H24A 3241   5.910   3.247   4.476 -0.6180  0.2367  1.9794
   28CHL1  H24B 3242   6.085   3.240   4.537 -1.6851  1.7847 -0.1794
   28CHL1   C25 3243   6.063   3.168   4.350 -0.5708 -0.3984 -0.0783
   28CHL1   H25 3244   6.005   3.088   4.299  2.5084 -1.9229 -1.4466
   28CHL1   C26 3245   6.049   3.291   4.258  0.2472 -0.0404 -0.2924
   28CHL1  H26A 3246   6.125   3.363   4.296 -1.1398  1.9264 -1.0612
   28CHL1  H26B 3247   6.086   3.268   4.156  1.6136 -1.5599  0.5153
   28CHL1  H26C 3248   5.945   3.332   4.258  0.3621  0.2769 -1.3476
   28CHL1   C27 3249   6.214   3.130   4.359  0.0278 -0.1206  0.0215
   28CHL1  H27A 3250   6.250   3.109   4.256 -1.5452  0.7118 -0.7430
   28CHL1  H27B 3251   6.279   3.211   4.397 -2.4320  1.4454  1.1488
   28CHL1  H27C 3252   6.218   3.041   4.426  0.2654 -0.4355 -0.4089
   29CHL1    C3 3253   0.940   4.480   5.939  0.4094 -0.4039  0.3799
   29CHL1    H3 3254   0.848   4.421   5.917 -0.7749  2.2167 -2.3755
   29CHL1    O3 3255   0.953   4.475   6.077  0.2099  0.3880  0.0020
   29CHL1   H3' 3256   1.036   4.515   6.103 -0.4047  0.6099  1.8242
   29CHL1    C4 3257   1.051   4.397   5.871  0.7350 -0.4202  1.0153
   29CHL1   H4A 3258   1.145   4.447   5.902 -0.5536  3.2980 -0.4129
   29CHL1   H4B 3259   1.056   4.292   5.906  0.3789 -1.1673 -1.0054
   29CHL1    C5 3260   1.049   4.398   5.720  0.6249  0.1432  0.0501
   29CHL1    C6 3261   1.050   4.278   5.651 -0.1673  0.2303  0.8489
   29CHL1    H6 3262   1.065   4.181   5.702  2.9811 -0.5536 -1.2881
   29CHL1    C7 3263   1.047   4.272   5.500 -0.1728 -0.4093  0.0474
   29CHL1   H7A 3264   1.145   4.226   5.475  0.3526  0.3196  0.7181
   29CHL1   H7B 3265   0.957   4.219   5.463 -2.7797  1.2899  3.4273
   29CHL1    C8 3266   1.050   4.413   5.442 -0.0412  0.1220  0.1537
   29CHL1    H8 3267   1.154   4.450   5.430  0.4332 -0.2969  2.4764
   29CHL1   C14 3268   1.003   4.407   5.295  0.2500  0.4635  0.2204
   29CHL1   H14 3269   0.902   4.361   5.293  0.6092 -0.3320 -0.0534
   29CHL1   C15 3270   1.078   4.308   5.207  0.8382 -0.1397 -0.1650
   29CHL1  H15A 3271   1.187   4.327   5.221  0.2589  2.4168  1.6875
   29CHL1  H15B 3272   1.043   4.203   5.211 -0.7407  0.3675  0.0655
   29CHL1   C16 3273   1.034   4.355   5.067 -0.5729  0.6670  0.0129
   29CHL1  H16A 3274   1.122   4.388   5.008 -0.1223 -1.0289 -0.3095
   29CHL1  H16B 3275   0.977   4.282   5.006  0.4646  0.6720 -0.9962
   29CHL1   C17 3276   0.948   4.485   5.085 -0.2903  0.0919  0.0977
   29CHL1   H17 3277   0.844   4.451   5.105 -1.1039  1.5825 -1.3795
   29CHL1   C13 3278   0.989   4.542   5.223 -0.1519 -0.5483 -0.0236
   29CHL1   C18 3279   1.123   4.616   5.206 -0.4155 -0.0766 -0.0148
   29CHL1  H18A 3280   1.103   4.723   5.184  0.3066  0.6513  2.5367
   29CHL1  H18B 3281   1.189   4.599   5.293  0.8174 -0.1802 -0.9411
   29CHL1  H18C 3282   1.181   4.573   5.121  1.1341 -0.8022  1.3642
   29CHL1   C12 3283   0.892   4.627   5.300  0.1466  0.6297  0.1242
   29CHL1  H12A 3284   0.897   4.728   5.255  0.8601  0.1188 -0.9931
   29CHL1  H12B 3285   0.787   4.594   5.285 -0.8499  2.7385  1.8609
   29CHL1   C11 3286   0.935   4.648   5.444  0.1940  0.2481 -0.1129
   29CHL1  H11A 3287   1.033   4.700   5.440  2.7957 -3.7838  2.6155
   29CHL1  H11B 3288   0.857   4.705   5.498  0.6739  0.3579  0.4797
   29CHL1    C9 3289   0.966   4.511   5.522 -0.2310 -0.8528 -0.0295
   29CHL1    H9 3290   0.873   4.457   5.548 -0.0426  0.5713  4.5277
   29CHL1   C10 3291   1.022   4.538   5.661 -0.1478  0.2872 -0.7410
   29CHL1   C19 3292   1.153   4.631   5.641  0.7530 -0.0080  0.2482
   29CHL1  H19A 3293   1.232   4.577   5.586  0.4825  0.2523 -0.4080
   29CHL1  H19B 3294   1.139   4.732   5.596  0.0222  0.5662  1.6741
   29CHL1  H19C 3295   1.192   4.646   5.744  0.2488  3.0426  0.1107
   29CHL1    C1 3296   0.916   4.617   5.746  0.5502  0.6387  1.0630
   29CHL1   H1A 3297   0.895   4.716   5.700 -1.4374 -0.5420 -0.7360
   29CHL1   H1B 3298   0.826   4.553   5.735 -1.6192  3.6403 -0.1185
   29CHL1    C2 3299   0.947   4.622   5.895  0.4105 -0.0729  0.1141
   29CHL1   H2A 3300   0.875   4.689   5.948  1.0567 -0.4185  1.4813
   29CHL1   H2B 3301   1.039   4.676   5.924 -0.1618  1.4724 -0.7987
   29CHL1   C20 3302   0.943   4.577   4.962  0.7714  0.0616  0.2586
   29CHL1   H20 3303   1.048   4.602   4.934  0.2133  2.3698  0.0139
   29CHL1   C21 3304   0.859   4.707   4.991 -0.5118  0.5668  0.3606
   29CHL1  H21A 3305   0.872   4.775   4.904 -0.9479  0.7369  0.4248
   29CHL1  H21B 3306   0.919   4.762   5.066  0.4766  1.5520 -1.0762
   29CHL1  H21C 3307   0.757   4.679   5.024  0.1739 -2.0789  0.4428
   29CHL1   C22 3308   0.888   4.497   4.840 -0.8045  0.1945  0.2686
   29CHL1  H22A 3309   0.955   4.409   4.831  0.3140  0.8842  1.5971
   29CHL1  H22B 3310   0.786   4.457   4.861 -0.5280 -1.2181 -0.8940
   29CHL1   C23 3311   0.885   4.570   4.710 -0.1654 -0.8228  0.7759
   29CHL1  H23A 3312   0.817   4.656   4.723  0.2031 -0.5767  1.1129
   29CHL1  H23B 3313   0.983   4.610   4.674 -1.0689  0.5296 -0.2735
   29CHL1   C24 3314   0.824   4.498   4.591  0.7884  0.1691  1.2332
   29CHL1  H24A 3315   0.884   4.407   4.574  0.1629 -0.0943  0.3303
   29CHL1  H24B 3316   0.716   4.475   4.603  0.5334  0.3121 -0.6045
   29CHL1   C25 3317   0.836   4.560   4.450  0.0204  0.3006  0.1537
   29CHL1   H25 3318   0.792   4.662   4.460  0.8929  1.0021 -2.3277
   29CHL1   C26 3319   0.980   4.570   4.396 -0.4868  0.4028 -0.0416
   29CHL1  H26A 3320   0.973   4.615   4.295 -3.3532  1.8397  0.6647
   29CHL1  H26B 3321   1.042   4.635   4.460  1.3289 -1.3418  0.0463
   29CHL1  H26C 3322   1.034   4.473   4.390  1.4112  1.4088  0.3591
   29CHL1   C27 3323   0.762   4.467   4.355  0.0426  0.2384  0.2320
   29CHL1  H27A 3324   0.668   4.452   4.413  1.5070 -1.1808  2.3776
   29CHL1  H27B 3325   0.754   4.513   4.254  0.5970 -0.3539 -0.0906
   29CHL1  H27C 3326   0.813   4.369   4.349  0.3823  0.5003 -2.5207
   30CHL1    C3 3327   2.548   5.035   6.070 -0.1343 -0.1818 -0.1216
   30CHL1    H3 3328   2.461   5.103   6.057 -0.9159 -0.9725  0.8354
   30CHL1    O3 3329   2.545   5.004   6.207 -0.3502  0.1291  0.0680
   30CHL1   H3' 3330   2.638   4.985   6.225  0.0927 -0.5849 -2.5810
   30CHL1    C4 3331   2.526   4.911   5.980 -0.0677  0.1066 -0.5533
   30CHL1   H4A 3332   2.603   4.831   5.993  0.0002  0.2683  0.0854
   30CHL1   H4B 3333   2.429   4.867   6.010 -1.2282  1.7187 -1.7848
   30CHL1    C5 3334   2.516   4.956   5.835 -0.1700  0.1947  0.4577
   30CHL1    C6 3335   2.413   4.908   5.755  0.0619  0.1985  0.7055
   30CHL1    H6 3336   2.336   4.848   5.803  1.1375 -0.3011  1.8670
   30CHL1    C7 3337   2.404   4.943   5.612  0.3382  0.5819  0.0119
   30CHL1   H7A 3338   2.379   4.849   5.557 -0.6054  0.0435  1.3065
   30CHL1   H7B 3339   2.321   5.016   5.603 -0.2620  0.0246  0.8469
   30CHL1    C8 3340   2.530   4.986   5.548 -0.0432  0.0449 -0.5240
   30CHL1    H8 3341   2.601   4.901   5.539 -0.3238  0.0102 -3.1121
   30CHL1   C14 3342   2.507   5.045   5.408  0.3920 -0.5701  0.6250
   30CHL1   H14 3343   2.446   5.134   5.433 -1.0666 -1.5015  0.4392
   30CHL1   C15 3344   2.418   4.971   5.306  0.0823 -0.2061  0.5056
   30CHL1  H15A 3345   2.445   4.863   5.305  0.3774 -0.1296 -0.7080
   30CHL1  H15B 3346   2.310   4.984   5.330  0.3717  0.2273  1.6386
   30CHL1   C16 3347   2.473   5.027   5.183 -0.6879  0.0388  0.0599
   30CHL1  H16A 3348   2.531   4.956   5.119  1.1477  2.2132 -0.8234
   30CHL1  H16B 3349   2.399   5.064   5.110 -1.1772  0.3840  0.7310
   30CHL1   C17 3350   2.566   5.140   5.210  0.3229 -0.2677  0.0985
   30CHL1   H17 3351   2.506   5.233   5.216  1.1098  0.3482 -1.2987
   30CHL1   C13 3352   2.630   5.105   5.346  0.4368  0.3795 -0.1165
   30CHL1   C18 3353   2.735   4.993   5.337  0.0014 -0.3804 -0.3022
   30CHL1  H18A 3354   2.839   5.023   5.312 -0.0308  1.3547  1.4499
   30CHL1  H18B 3355   2.764   4.943   5.432  2.4023 -0.8220 -1.1979
   30CHL1  H18C 3356   2.706   4.907   5.273  1.7915 -2.2007  1.2307
   30CHL1   C12 3357   2.678   5.219   5.438  0.6851  0.2820  0.4151
   30CHL1  H12A 3358   2.768   5.267   5.394  0.6843 -1.4602 -1.6775
   30CHL1  H12B 3359   2.589   5.285   5.450  0.2344  0.3700 -2.6274
   30CHL1   C11 3360   2.714   5.176   5.576 -0.1071  0.3607  0.3687
   30CHL1  H11A 3361   2.804   5.110   5.574  0.0517  0.5832 -0.8729
   30CHL1  H11B 3362   2.745   5.259   5.642 -0.3792 -0.6987  1.8745
   30CHL1    C9 3363   2.602   5.094   5.639  0.1014  0.1172 -0.3116
   30CHL1    H9 3364   2.523   5.171   5.659 -0.6026 -0.4691 -0.7770
   30CHL1   C10 3365   2.633   5.043   5.781 -0.0194  0.7073  0.3029
   30CHL1   C19 3366   2.766   4.953   5.776 -0.3885 -0.6250 -0.1536
   30CHL1  H19A 3367   2.750   4.876   5.697  0.5643 -0.4875 -0.4970
   30CHL1  H19B 3368   2.855   5.012   5.745 -0.7931  1.3783  2.2181
   30CHL1  H19C 3369   2.783   4.910   5.877 -1.5308  2.3645  1.4512
   30CHL1    C1 3370   2.658   5.151   5.881 -0.4987 -0.4504 -0.5087
   30CHL1   H1A 3371   2.743   5.216   5.851  0.3206 -0.9909  0.5937
   30CHL1   H1B 3372   2.569   5.217   5.872 -0.0913  0.1343 -0.2547
   30CHL1    C2 3373   2.680   5.106   6.028  0.4631 -0.5169  0.1825
   30CHL1   H2A 3374   2.700   5.200   6.083 -1.0436  1.7986 -2.9588
   30CHL1   H2B 3375   2.771   5.043   6.040 -0.0709 -1.0208  2.0024
   30CHL1   C20 3376   2.660   5.171   5.093 -1.0886 -0.2543  0.2390
   30CHL1   H20 3377   2.723   5.081   5.077 -0.9588 -0.1661  0.2480
   30CHL1   C21 3378   2.763   5.283   5.141 -0.4220 -0.2479 -0.1264
   30CHL1  H21A 3379   2.834   5.230   5.207  1.9787  1.3053 -1.3205
   30CHL1  H21B 3380   2.722   5.373   5.191  0.4904 -0.4699  1.0384
   30CHL1  H21C 3381   2.827   5.327   5.061  1.4303  0.8859  1.8907
   30CHL1   C22 3382   2.595   5.226   4.961  0.8148 -0.9067 -0.5746
   30CHL1  H22A 3383   2.497   5.177   4.943  0.7686 -0.7714 -0.6977
   30CHL1  H22B 3384   2.571   5.334   4.973 -1.1177 -1.4739  1.1185
   30CHL1   C23 3385   2.679   5.194   4.838 -0.0068  0.4933  0.0065
   30CHL1  H23A 3386   2.783   5.230   4.850  0.2883  0.3666 -1.8957
   30CHL1  H23B 3387   2.693   5.085   4.849  1.9835  0.2764 -3.4461
   30CHL1   C24 3388   2.614   5.207   4.701 -0.2851 -0.3902 -0.0394
   30CHL1  H24A 3389   2.692   5.171   4.631  0.6283  1.2029  0.1260
   30CHL1  H24B 3390   2.533   5.131   4.691 -2.3619  1.3111  2.6520
   30CHL1   C25 3391   2.560   5.343   4.647  0.3571 -0.2073 -0.1839
   30CHL1   H25 3392   2.473   5.374   4.710 -1.2746 -0.0190 -2.4336
   30CHL1   C26 3393   2.657   5.467   4.665  0.5483 -0.4909  0.0133
   30CHL1  H26A 3394   2.745   5.441   4.602  2.1439  0.8055  1.5799
   30CHL1  H26B 3395   2.610   5.560   4.626  1.4481  1.0451  2.3540
   30CHL1  H26C 3396   2.698   5.479   4.768  0.2135 -0.5418  0.1527
   30CHL1   C27 3397   2.525   5.335   4.496 -0.1538 -0.1547 -0.0650
   30CHL1  H27A 3398   2.437   5.268   4.488 -1.8556  1.9658 -0.2063
   30CHL1  H27B 3399   2.487   5.433   4.458 -1.4698 -0.4249  0.5037
   30CHL1  H27C 3400   2.619   5.301   4.448  1.6127  0.5584  2.6406
   31CHL1    C3 3401   1.626   4.857   6.188  0.0784 -0.1869  0.1871
   31CHL1    H3 3402   1.720   4.911   6.166  1.0593 -1.3211  1.3837
   31CHL1    O3 3403   1.598   4.826   6.323 -0.2803  0.0787  0.2628
   31CHL1   H3' 3404   1.681   4.854   6.363 -0.7440  0.7302  0.8081
   31CHL1    C4 3405   1.502   4.937   6.142  0.5446  0.0817  0.4227
   31CHL1   H4A 3406   1.417   4.869   6.164 -0.6768  1.1690 -0.7342
   31CHL1   H4B 3407   1.494   5.027   6.207  1.1861  0.1221  0.4480
   31CHL1    C5 3408   1.515   4.965   5.989 -0.3386 -0.0551  1.0186
   31CHL1    C6 3409   1.511   5.097   5.946 -0.5578 -0.0033 -0.8489
   31CHL1    H6 3410   1.490   5.176   6.021  3.9232  0.8167 -0.1647
   31CHL1    C7 3411   1.515   5.133   5.801 -0.5094 -0.4889 -0.0767
   31CHL1   H7A 3412   1.430   5.196   5.766  0.1406  0.9495  0.8261
   31CHL1   H7B 3413   1.610   5.186   5.778  0.3796 -1.0670  2.0371
   31CHL1    C8 3414   1.500   5.005   5.703  0.1714 -0.0099  0.2021
   31CHL1    H8 3415   1.391   4.983   5.700 -0.0416  1.1549 -1.0154
   31CHL1   C14 3416   1.538   5.035   5.558 -0.0767 -0.2488 -0.0290
   31CHL1   H14 3417   1.647   5.055   5.552 -0.0675 -0.7121 -1.7555
   31CHL1   C15 3418   1.463   5.155   5.486  0.0141  0.1278 -0.5529
   31CHL1  H15A 3419   1.353   5.149   5.496  0.2457 -1.3279  2.2230
   31CHL1  H15B 3420   1.491   5.256   5.523  0.1916 -0.2442  0.3569
   31CHL1   C16 3421   1.490   5.129   5.338 -0.3116  0.4354 -0.2116
   31CHL1  H16A 3422   1.399   5.135   5.274  0.5434  1.4093 -1.3980
   31CHL1  H16B 3423   1.558   5.209   5.301 -0.2922  1.0323  1.0867
   31CHL1   C17 3424   1.554   4.985   5.330 -0.5555  0.0529 -0.6361
   31CHL1   H17 3425   1.661   5.009   5.343 -0.4879 -0.4167 -0.3061
   31CHL1   C13 3426   1.522   4.920   5.460  0.4742  0.2973 -0.8844
   31CHL1   C18 3427   1.370   4.877   5.451 -0.3357 -0.1240 -0.1690
   31CHL1  H18A 3428   1.301   4.956   5.416 -2.2901 -1.6116  0.1737
   31CHL1  H18B 3429   1.361   4.784   5.392  0.5260  1.2575 -2.6460
   31CHL1  H18C 3430   1.337   4.841   5.551 -0.9380 -2.6136 -1.2044
   31CHL1   C12 3431   1.618   4.811   5.514 -0.2357  0.5416  0.5894
   31CHL1  H12A 3432   1.627   4.726   5.443  1.7900  0.6054  0.7286
   31CHL1  H12B 3433   1.722   4.849   5.522 -0.3532  1.2031 -0.8244
   31CHL1   C11 3434   1.579   4.761   5.652  0.3706  0.2058 -0.3472
   31CHL1  H11A 3435   1.483   4.706   5.638  2.2074 -3.3276 -0.1951
   31CHL1  H11B 3436   1.649   4.682   5.686 -0.3008 -1.7201 -3.0331
   31CHL1    C9 3437   1.580   4.880   5.753  0.2450  0.0484  0.7319
   31CHL1    H9 3438   1.686   4.913   5.756  0.3457 -0.1944  0.0300
   31CHL1   C10 3439   1.545   4.845   5.898 -0.2166  0.5498 -0.0348
   31CHL1   C19 3440   1.411   4.761   5.893 -0.0987  0.3949 -0.0213
   31CHL1  H19A 3441   1.356   4.784   5.799 -0.1088 -1.7692 -0.6005
   31CHL1  H19B 3442   1.440   4.655   5.877 -0.8359  0.0644  0.7379
   31CHL1  H19C 3443   1.349   4.776   5.984  3.6133 -0.9883  3.0126
   31CHL1    C1 3444   1.657   4.755   5.965  0.5867  1.0674 -0.5058
   31CHL1   H1A 3445   1.671   4.655   5.919  2.7541 -0.6152  3.3103
   31CHL1   H1B 3446   1.752   4.811   5.957  0.2981  1.8162  1.0386
   31CHL1    C2 3447   1.633   4.728   6.112  0.1589  0.3820  0.6075
   31CHL1   H2A 3448   1.708   4.657   6.151 -1.6479 -3.0859 -1.6686
   31CHL1   H2B 3449   1.534   4.678   6.124 -1.5650  2.4218 -3.2235
   31CHL1   C20 3450   1.550   4.909   5.201  0.1169  0.5835 -0.1815
   31CHL1   H20 3451   1.543   4.800   5.219  2.2270  0.3147 -0.7603
   31CHL1   C21 3452   1.679   4.923   5.112  0.3983 -0.1805  0.6075
   31CHL1  H21A 3453   1.662   4.866   5.018 -0.5958 -0.6021  1.0276
   31CHL1  H21B 3454   1.761   4.869   5.163  0.3487  0.0011  0.8773
   31CHL1  H21C 3455   1.722   5.022   5.089 -0.3737 -0.5507 -3.0884
   31CHL1   C22 3456   1.418   4.945   5.126  0.0956 -0.4291  0.3946
   31CHL1  H22A 3457   1.326   4.938   5.187 -0.6917  0.0569 -0.6963
   31CHL1  H22B 3458   1.425   5.046   5.080 -0.6890 -0.5377  0.0164
   31CHL1   C23 3459   1.381   4.845   5.014 -0.0883  0.0190 -0.0654
   31CHL1  H23A 3460   1.467   4.840   4.943  0.0018  2.0110 -0.1416
   31CHL1  H23B 3461   1.352   4.745   5.054 -2.2065 -0.7878 -3.2116
   31CHL1   C24 3462   1.260   4.885   4.929  0.5481  0.5577  0.3107
   31CHL1  H24A 3463   1.166   4.879   4.987  0.8381  2.8496  1.1028
   31CHL1  H24B 3464   1.269   4.992   4.903 -2.6497  1.1724  1.3443
   31CHL1   C25 3465   1.232   4.806   4.799  0.4249  0.5469  0.3616
   31CHL1   H25 3466   1.202   4.705   4.836  0.4478  0.3131 -0.2355
   31CHL1   C26 3467   1.118   4.862   4.720  0.4885 -0.1373 -0.0213
   31CHL1  H26A 3468   1.027   4.873   4.782  0.0148 -1.4168 -0.4491
   31CHL1  H26B 3469   1.145   4.963   4.682  0.7453  0.7111  2.2735
   31CHL1  H26C 3470   1.079   4.801   4.636 -1.4738  3.6631 -2.1549
   31CHL1   C27 3471   1.351   4.790   4.711 -0.1616  0.2860  0.0368
   31CHL1  H27A 3472   1.427   4.727   4.763 -0.2402 -1.3998 -1.7874
   31CHL1  H27B 3473   1.325   4.749   4.611  0.0008 -1.5405  0.7035
   31CHL1  H27C 3474   1.396   4.890   4.691  0.1502 -0.4457 -3.4671
   32CHL1    C3 3475   2.946   2.620   5.697 -0.4551  0.1564 -0.0872
   32CHL1    H3 3476   2.881   2.532   5.682 -1.2480 -0.1080  3.6841
   32CHL1    O3 3477   2.981   2.641   5.832  0.4423  0.4298 -0.3442
   32CHL1   H3' 3478   3.066   2.687   5.833  0.8590 -0.2685 -1.8986
   32CHL1    C4 3479   3.078   2.609   5.618 -0.1623  1.7059  0.1725
   32CHL1   H4A 3480   3.139   2.692   5.659  1.1635 -0.4592  2.9719
   32CHL1   H4B 3481   3.121   2.514   5.658 -1.8746  0.5246 -0.6666
   32CHL1    C5 3482   3.060   2.604   5.472 -0.4695 -0.9171 -0.4820
   32CHL1    C6 3483   3.126   2.507   5.405 -0.0552 -0.2575  0.5113
   32CHL1    H6 3484   3.185   2.430   5.456  0.0569  1.0457  2.4415
   32CHL1    C7 3485   3.116   2.496   5.254 -0.2700 -0.1962  0.0128
   32CHL1   H7A 3486   3.216   2.474   5.211 -1.4144  0.6454 -3.4179
   32CHL1   H7B 3487   3.054   2.410   5.221  0.2329 -1.2777  1.7354
   32CHL1    C8 3488   3.069   2.630   5.187 -0.2331 -0.3829  0.1999
   32CHL1    H8 3489   3.160   2.692   5.170 -0.6005 -0.6551 -4.0976
   32CHL1   C14 3490   3.011   2.600   5.052  0.1455 -0.5256  0.0144
   32CHL1   H14 3491   2.925   2.530   5.054 -1.5363  1.3415 -1.7249
   32CHL1   C15 3492   3.109   2.530   4.951  0.0149  0.5900 -0.0880
   32CHL1  H15A 3493   3.206   2.582   4.964  0.2308 -0.5200  5.3611
   32CHL1  H15B 3494   3.116   2.421   4.970 -1.4107  0.1326 -1.9150
   32CHL1   C16 3495   3.041   2.549   4.812 -0.3733  0.0852 -0.5491
   32CHL1  H16A 3496   3.117   2.588   4.740  0.4465 -1.4617 -0.5667
   32CHL1  H16B 3497   2.993   2.456   4.773 -0.7466 -1.1431  2.5823
   32CHL1   C17 3498   2.929   2.651   4.834  0.4680  0.4582  0.0432
   32CHL1   H17 3499   2.834   2.595   4.844 -0.0831  1.4168  0.3203
   32CHL1   C13 3500   2.959   2.718   4.967  0.2338  0.1404 -0.5811
   32CHL1   C18 3501   3.063   2.829   4.951 -0.2592 -0.1179 -0.3320
   32CHL1  H18A 3502   3.110   2.852   5.049  0.9196  1.9043 -1.2899
   32CHL1  H18B 3503   3.141   2.807   4.875  0.6696 -0.3584  0.6679
   32CHL1  H18C 3504   3.005   2.915   4.911 -0.8620 -0.5394 -0.3692
   32CHL1   C12 3505   2.843   2.779   5.056  0.2517 -0.1336  0.0827
   32CHL1  H12A 3506   2.806   2.872   5.009  0.2432 -0.8744 -1.4252
   32CHL1  H12B 3507   2.755   2.712   5.060 -1.1561  1.2300 -3.4464
   32CHL1   C11 3508   2.889   2.813   5.199 -0.4045  0.3394  0.4640
   32CHL1  H11A 3509   2.963   2.895   5.188  0.0719 -0.0902  0.4094
   32CHL1  H11B 3510   2.796   2.849   5.247 -0.9942  0.3620 -0.6773
   32CHL1    C9 3511   2.956   2.694   5.266  0.1342  0.0944  0.2856
   32CHL1    H9 3512   2.878   2.615   5.261  0.2040  0.0475 -0.0822
   32CHL1   C10 3513   2.980   2.720   5.415  0.0216 -0.3831 -0.1381
   32CHL1   C19 3514   3.061   2.857   5.439  0.2562  0.0474 -0.4323
   32CHL1  H19A 3515   3.071   2.871   5.549 -0.1559  0.9369 -0.5046
   32CHL1  H19B 3516   3.158   2.863   5.384  1.5500  0.1839  1.7441
   32CHL1  H19C 3517   2.996   2.944   5.417  0.0535  0.2818  0.9927
   32CHL1    C1 3518   2.850   2.728   5.488  0.5468  0.0564 -0.8193
   32CHL1   H1A 3519   2.787   2.816   5.462  0.9829  0.4782 -0.4489
   32CHL1   H1B 3520   2.796   2.636   5.456  2.4214 -1.0317 -0.9806
   32CHL1    C2 3521   2.856   2.735   5.645 -0.7219 -0.1354 -0.6880
   32CHL1   H2A 3522   2.758   2.716   5.694  0.4112 -2.7500  0.7923
   32CHL1   H2B 3523   2.892   2.834   5.678 -3.9837  1.3387 -1.1759
   32CHL1   C20 3524   2.923   2.737   4.703  0.2607  0.2215 -0.0747
   32CHL1   H20 3525   3.023   2.781   4.681  0.7057 -0.3505  0.7240
   32CHL1   C21 3526   2.814   2.845   4.718  0.0461 -0.8397  0.3744
   32CHL1  H21A 3527   2.846   2.909   4.804 -0.1109 -0.0069 -0.1742
   32CHL1  H21B 3528   2.713   2.799   4.720 -0.6228  0.5282 -0.3301
   32CHL1  H21C 3529   2.821   2.910   4.629 -2.0742 -0.5148  0.4064
   32CHL1   C22 3530   2.891   2.648   4.584  0.1158 -0.0326 -0.2634
   32CHL1  H22A 3531   2.958   2.560   4.578  0.3910  0.2142 -0.9742
   32CHL1  H22B 3532   2.785   2.617   4.597  0.1175  0.4722  1.1229
   32CHL1   C23 3533   2.901   2.723   4.446  0.2787 -0.2479  0.4431
   32CHL1  H23A 3534   2.883   2.658   4.357 -3.1937 -0.4787  1.1726
   32CHL1  H23B 3535   2.828   2.806   4.441 -1.5609 -1.6774  1.8997
   32CHL1   C24 3536   3.046   2.781   4.421  0.6614 -0.5800  0.3683
   32CHL1  H24A 3537   3.058   2.861   4.497 -1.4897  0.1820 -0.0248
   32CHL1  H24B 3538   3.114   2.693   4.422 -1.8346 -2.8050 -2.9834
   32CHL1   C25 3539   3.049   2.858   4.286 -0.6362  0.0619  0.4223
   32CHL1   H25 3540   2.955   2.914   4.271  0.1625  1.8908  1.9090
   32CHL1   C26 3541   3.160   2.972   4.295 -0.2356 -0.2049  0.1651
   32CHL1  H26A 3542   3.262   2.936   4.319  1.0163  2.7166 -0.3027
   32CHL1  H26B 3543   3.160   3.024   4.197  0.4859 -0.9565 -0.2491
   32CHL1  H26C 3544   3.137   3.046   4.375 -1.0451  0.2609 -0.4761
   32CHL1   C27 3545   3.065   2.760   4.168 -0.3529  0.1735 -0.7802
   32CHL1  H27A 3546   3.159   2.705   4.188 -1.5509 -1.4347  0.8584
   32CHL1  H27B 3547   2.980   2.688   4.168 -2.4605  2.3656  2.5173
   32CHL1  H27C 3548   3.070   2.809   4.069 -0.5331  4.4302  1.0776
   33CHL1    C3 3549   0.711   3.290   5.577 -0.3417 -0.4787 -0.1855
   33CHL1    H3 3550   0.696   3.399   5.562  2.5840  0.0324  0.0199
   33CHL1    O3 3551   0.666   3.242   5.701 -0.1025  0.0857 -0.7006
   33CHL1   H3' 3552   0.726   3.254   5.775 -0.6138  1.2270 -0.4495
   33CHL1    C4 3553   0.631   3.213   5.468 -0.6057 -0.1358 -0.2840
   33CHL1   H4A 3554   0.640   3.103   5.487 -0.8005  0.1367  1.5420
   33CHL1   H4B 3555   0.521   3.228   5.475 -0.5819 -0.2087  0.2854
   33CHL1    C5 3556   0.684   3.239   5.328  0.5758 -0.2387  0.2271
   33CHL1    C6 3557   0.610   3.299   5.238 -0.2370 -0.2542 -0.3198
   33CHL1    H6 3558   0.503   3.314   5.260 -0.5190 -2.1192 -0.3066
   33CHL1    C7 3559   0.658   3.321   5.098 -0.5574  0.1200  0.1776
   33CHL1   H7A 3560   0.576   3.300   5.026 -1.6522 -0.6711  1.5971
   33CHL1   H7B 3561   0.684   3.428   5.083  0.1283 -0.3071 -1.9481
   33CHL1    C8 3562   0.774   3.225   5.055  0.1417 -0.0595  0.0588
   33CHL1    H8 3563   0.745   3.118   5.046  0.4105 -0.3094  1.8257
   33CHL1   C14 3564   0.842   3.277   4.928 -0.2285 -0.4390  0.4503
   33CHL1   H14 3565   0.869   3.384   4.945 -0.2012 -0.2041 -0.9549
   33CHL1   C15 3566   0.755   3.288   4.801  0.2888 -0.0543  0.4439
   33CHL1  H15A 3567   0.695   3.194   4.807 -2.1317  1.4829  2.2136
   33CHL1  H15B 3568   0.690   3.377   4.797  1.5625  0.8670 -0.4568
   33CHL1   C16 3569   0.856   3.293   4.687 -0.0463  0.0393  0.1297
   33CHL1  H16A 3570   0.843   3.207   4.617 -2.3022 -0.3735  0.9650
   33CHL1  H16B 3571   0.846   3.392   4.639 -0.9658 -1.1273 -2.2545
   33CHL1   C17 3572   0.997   3.291   4.753  0.9511  0.3373  0.4438
   33CHL1   H17 3573   1.016   3.397   4.781  1.4961  0.3018  0.2133
   33CHL1   C13 3574   0.979   3.216   4.891  0.5410 -0.6833  0.1545
   33CHL1   C18 3575   0.974   3.063   4.862  0.0348 -1.2367 -0.2703
   33CHL1  H18A 3576   0.940   3.002   4.949 -0.8546 -1.1411 -0.5373
   33CHL1  H18B 3577   0.906   3.040   4.777  0.2947  0.8188 -1.0857
   33CHL1  H18C 3578   1.073   3.023   4.830 -0.9286 -2.4474 -1.9042
   33CHL1   C12 3579   1.079   3.255   4.998  0.0567  0.3259 -0.4216
   33CHL1  H12A 3580   1.183   3.216   4.984 -0.1988 -0.5049 -0.0584
   33CHL1  H12B 3581   1.081   3.366   5.003 -0.8347  0.3219  0.2238
   33CHL1   C11 3582   1.028   3.202   5.141  0.1196  0.5720 -0.0885
   33CHL1  H11A 3583   1.029   3.091   5.131  1.1112  0.3717  1.8260
   33CHL1  H11B 3584   1.094   3.225   5.227 -1.6850 -0.3298  1.6032
   33CHL1    C9 3585   0.879   3.242   5.172  0.6052 -0.1877  0.2787
   33CHL1    H9 3586   0.881   3.353   5.184  1.0496 -0.0011 -1.2946
   33CHL1   C10 3587   0.831   3.198   5.307  0.7420 -0.2299 -0.5760
   33CHL1   C19 3588   0.848   3.048   5.315 -0.0899  0.2788  0.4802
   33CHL1  H19A 3589   0.817   3.006   5.413  0.7872 -0.0384  0.6373
   33CHL1  H19B 3590   0.788   2.995   5.238 -0.0970  1.3441 -0.2685
   33CHL1  H19C 3591   0.953   3.011   5.304 -0.9790 -2.6815  0.9330
   33CHL1    C1 3592   0.912   3.262   5.426  0.7482 -0.8443  0.2496
   33CHL1   H1A 3593   1.014   3.219   5.424  1.2751  0.3814 -0.1326
   33CHL1   H1B 3594   0.930   3.366   5.390  3.2452 -1.7844 -1.5388
   33CHL1    C2 3595   0.857   3.248   5.566  0.5245 -0.0529 -0.1074
   33CHL1   H2A 3596   0.905   3.319   5.636  0.1046  0.8694 -0.7302
   33CHL1   H2B 3597   0.868   3.142   5.595 -0.5190 -0.1529 -0.0211
   33CHL1   C20 3598   1.109   3.249   4.664  0.2297  0.1860  0.4868
   33CHL1   H20 3599   1.099   3.143   4.630 -0.5083  0.4371 -0.0929
   33CHL1   C21 3600   1.250   3.259   4.729  0.0070  0.1244  0.0748
   33CHL1  H21A 3601   1.272   3.181   4.805 -0.6426 -0.0871  0.0497
   33CHL1  H21B 3602   1.254   3.360   4.776 -2.7140  1.5777 -2.5044
   33CHL1  H21C 3603   1.332   3.278   4.657 -0.3888  0.6545 -0.2452
   33CHL1   C22 3604   1.112   3.337   4.533  0.1281 -0.2070  0.4292
   33CHL1  H22A 3605   1.007   3.355   4.501  0.0639  1.6745  1.5397
   33CHL1  H22B 3606   1.151   3.435   4.567 -0.9880  0.0067  1.1544
   33CHL1   C23 3607   1.194   3.286   4.417 -0.0337  0.2308  0.7365
   33CHL1  H23A 3608   1.301   3.296   4.445  0.4806 -0.0879 -0.9771
   33CHL1  H23B 3609   1.162   3.181   4.397 -2.0451  1.1701 -1.4812
   33CHL1   C24 3610   1.170   3.364   4.284  0.3663 -0.4215 -0.7078
   33CHL1  H24A 3611   1.060   3.360   4.266 -0.0398 -0.0006  1.4437
   33CHL1  H24B 3612   1.192   3.471   4.305 -0.8496 -0.4033  0.6870
   33CHL1   C25 3613   1.259   3.308   4.169  0.3433  0.0754 -0.7359
   33CHL1   H25 3614   1.236   3.201   4.151  1.0739 -0.3933  0.9058
   33CHL1   C26 3615   1.218   3.381   4.041  0.3671 -0.0343 -0.0288
   33CHL1  H26A 3616   1.227   3.491   4.057 -1.4260  0.1300  0.0351
   33CHL1  H26B 3617   1.288   3.343   3.963 -1.2969 -1.6949 -0.7750
   33CHL1  H26C 3618   1.119   3.351   4.001  0.4265 -1.4059  0.7931
   33CHL1   C27 3619   1.409   3.327   4.193  0.2112 -0.3935 -0.1237
   33CHL1  H27A 3620   1.426   3.435   4.214  1.1087 -0.4735 -0.4091
   33CHL1  H27B 3621   1.446   3.260   4.273  1.4234 -1.1033 -1.2349
   33CHL1  H27C 3622   1.467   3.294   4.104 -0.6448 -2.1833 -0.0661
   34CHL1    C3 3623   2.044   4.439   6.022 -0.1415 -0.1441 -0.7638
   34CHL1    H3 3624   2.141   4.493   6.024  1.4754 -2.8303 -0.2702
   34CHL1    O3 3625   2.008   4.420   6.160  0.7729  0.7294  0.7465
   34CHL1   H3' 3626   1.922   4.381   6.144  1.3293 -0.0753 -0.3892
   34CHL1    C4 3627   1.935   4.519   5.951 -0.5875 -0.2059 -0.1690
   34CHL1   H4A 3628   1.839   4.463   5.952 -1.7396  1.6573 -0.4587
   34CHL1   H4B 3629   1.920   4.612   6.010 -0.7699  0.4624 -1.2303
   34CHL1    C5 3630   1.962   4.553   5.807  1.0999  0.0629 -0.0734
   34CHL1    C6 3631   1.975   4.680   5.766 -0.3768 -0.9344  0.5594
   34CHL1    H6 3632   1.968   4.763   5.837  0.7939  0.6703 -1.1338
   34CHL1    C7 3633   1.997   4.717   5.615 -0.2720 -0.0375  0.3430
   34CHL1   H7A 3634   1.929   4.796   5.578 -0.2451  0.1397  0.6604
   34CHL1   H7B 3635   2.103   4.749   5.608  0.3731 -1.5166  2.3193
   34CHL1    C8 3636   1.972   4.599   5.523  0.1137  0.4343 -0.1145
   34CHL1    H8 3637   1.864   4.572   5.520 -0.0887  1.1666  0.4572
   34CHL1   C14 3638   2.026   4.627   5.389  0.0699  0.3174  0.1296
   34CHL1   H14 3639   2.136   4.637   5.399 -0.0078  1.2374  0.1387
   34CHL1   C15 3640   1.979   4.748   5.320  0.5590 -0.0500 -0.5323
   34CHL1  H15A 3641   1.870   4.770   5.332  1.0045  1.7427  0.4514
   34CHL1  H15B 3642   2.031   4.840   5.351  1.3668 -0.9077  0.7463
   34CHL1   C16 3643   2.007   4.722   5.170 -0.2463 -0.1890  0.0935
   34CHL1  H16A 3644   1.911   4.718   5.114 -0.8252 -2.9031  1.1074
   34CHL1  H16B 3645   2.066   4.805   5.127 -0.5408 -0.6546 -1.2900
   34CHL1   C17 3646   2.061   4.578   5.154 -0.0744  0.2959  0.2669
   34CHL1   H17 3647   2.171   4.590   5.156  0.0332 -0.1820 -1.5340
   34CHL1   C13 3648   2.020   4.513   5.285  0.0984 -0.0087 -0.2481
   34CHL1   C18 3649   1.867   4.467   5.256 -0.5257  0.1803 -0.4583
   34CHL1  H18A 3650   1.828   4.408   5.342 -1.9629 -1.6865 -2.3063
   34CHL1  H18B 3651   1.800   4.556   5.248 -0.5158  0.2933  0.5298
   34CHL1  H18C 3652   1.863   4.395   5.172 -0.8349  0.1472 -0.4155
   34CHL1   C12 3653   2.110   4.395   5.336 -0.2860  0.2489  0.0822
   34CHL1  H12A 3654   2.122   4.309   5.267  1.1097  2.6458 -2.9068
   34CHL1  H12B 3655   2.213   4.437   5.344  0.5393 -1.5039 -0.8887
   34CHL1   C11 3656   2.064   4.360   5.475 -0.1787  0.9314 -0.4389
   34CHL1  H11A 3657   1.974   4.296   5.465 -1.0291  2.0449 -0.1659
   34CHL1  H11B 3658   2.133   4.280   5.508 -0.1529  1.7344  1.5985
   34CHL1    C9 3659   2.043   4.475   5.579 -0.0221 -0.4104  0.0689
   34CHL1    H9 3660   2.145   4.515   5.596 -0.2837 -0.2840  1.4621
   34CHL1   C10 3661   1.989   4.436   5.720  0.0249  0.2987 -0.3153
   34CHL1   C19 3662   1.848   4.370   5.695 -0.4174  0.0193 -0.0452
   34CHL1  H19A 3663   1.836   4.310   5.788  1.5857  1.6233  1.3372
   34CHL1  H19B 3664   1.768   4.445   5.678  0.4122  0.1920 -4.4303
   34CHL1  H19C 3665   1.837   4.298   5.611  1.8006 -1.2799  0.7109
   34CHL1    C1 3666   2.089   4.329   5.791 -0.4801  0.3366 -0.1479
   34CHL1   H1A 3667   2.086   4.231   5.739  0.5922  1.2380 -1.9949
   34CHL1   H1B 3668   2.195   4.359   5.774  0.9470 -4.5305 -1.2873
   34CHL1    C2 3669   2.070   4.308   5.940 -0.1997  0.8661  0.0574
   34CHL1   H2A 3670   2.156   4.253   5.983 -0.8093 -0.2390 -0.0934
   34CHL1   H2B 3671   1.978   4.248   5.957 -0.1249  1.0566  1.2332
   34CHL1   C20 3672   2.027   4.522   5.009 -0.5860  0.0454 -0.0425
   34CHL1   H20 3673   1.920   4.501   4.989 -0.9677  1.8919 -0.1431
   34CHL1   C21 3674   2.119   4.391   4.991 -0.5232  0.0604 -0.4727
   34CHL1  H21A 3675   2.064   4.313   5.048  0.4494  0.2614  0.7870
   34CHL1  H21B 3676   2.222   4.411   5.026 -0.9083 -0.2322  0.9185
   34CHL1  H21C 3677   2.110   4.369   4.883 -0.6980 -1.9277 -0.0850
   34CHL1   C22 3678   2.079   4.618   4.897  0.2542  0.2701  0.0853
   34CHL1  H22A 3679   2.046   4.558   4.810 -0.9466 -1.4036  1.5987
   34CHL1  H22B 3680   2.020   4.712   4.891  1.3838  0.9588 -0.4782
   34CHL1   C23 3681   2.224   4.658   4.891  0.1486  0.3404  0.0985
   34CHL1  H23A 3682   2.245   4.732   4.971 -0.4036 -0.5552  1.0960
   34CHL1  H23B 3683   2.305   4.583   4.902 -0.1766 -0.4367 -2.3522
   34CHL1   C24 3684   2.253   4.741   4.762 -0.4269  0.3856 -0.7907
   34CHL1  H24A 3685   2.228   4.669   4.681 -1.4001  0.4445 -0.5573
   34CHL1  H24B 3686   2.183   4.826   4.752  0.3270  1.1067 -0.1717
   34CHL1   C25 3687   2.403   4.778   4.745 -0.7659 -0.7920 -0.0874
   34CHL1   H25 3688   2.467   4.690   4.765 -0.9880 -0.7417  0.9188
   34CHL1   C26 3689   2.423   4.832   4.602 -0.3093 -0.3503 -0.3949
   34CHL1  H26A 3690   2.527   4.869   4.586 -0.4568  0.3325  0.1922
   34CHL1  H26B 3691   2.391   4.775   4.512 -0.6751  1.3977 -1.4224
   34CHL1  H26C 3692   2.366   4.926   4.585 -0.4070 -0.4420 -0.5751
   34CHL1   C27 3693   2.439   4.896   4.837 -0.4696  0.1440  0.3509
   34CHL1  H27A 3694   2.372   4.980   4.807 -0.2217  0.5852  1.0197
   34CHL1  H27B 3695   2.430   4.867   4.944  0.6998 -1.7631 -0.0300
   34CHL1  H27C 3696   2.544   4.931   4.831 -0.5560  0.3157 -0.3038
   35CHL1    C3 3697   3.445   5.791   6.124 -0.3127  0.6578 -0.7934
   35CHL1    H3 3698   3.337   5.811   6.140 -0.1998  2.0869 -1.6929
   35CHL1    O3 3699   3.507   5.773   6.251  0.5226  0.0664 -0.2905
   35CHL1   H3' 3700   3.600   5.764   6.228  0.3529 -1.7564 -0.3589
   35CHL1    C4 3701   3.471   5.657   6.046  0.8801 -0.7430  0.1840
   35CHL1   H4A 3702   3.580   5.637   6.056  1.2215  1.0541  0.4737
   35CHL1   H4B 3703   3.401   5.580   6.084  0.8725 -0.1712  1.3804
   35CHL1    C5 3704   3.450   5.675   5.896 -0.0739 -0.1779 -0.1665
   35CHL1    C6 3705   3.370   5.599   5.825  0.3626 -0.1172  0.4981
   35CHL1    H6 3706   3.311   5.518   5.871  0.4659 -0.0967  0.6671
   35CHL1    C7 3707   3.371   5.590   5.673  0.2344 -0.4128 -0.3105
   35CHL1   H7A 3708   3.398   5.491   5.632  1.0931 -0.1314 -0.4531
   35CHL1   H7B 3709   3.276   5.632   5.633  1.2534  1.4577 -0.9033
   35CHL1    C8 3710   3.466   5.689   5.605 -0.0404  0.0200 -0.1666
   35CHL1    H8 3711   3.562   5.633   5.607 -1.0834 -1.8204  1.5760
   35CHL1   C14 3712   3.420   5.721   5.457  0.7833  0.8636 -0.3892
   35CHL1   H14 3713   3.331   5.782   5.481 -0.0689 -1.1097  2.0192
   35CHL1   C15 3714   3.389   5.606   5.358  0.3881 -0.1506  0.1856
   35CHL1  H15A 3715   3.464   5.525   5.376  1.2806  1.1159  2.7578
   35CHL1  H15B 3716   3.299   5.544   5.380 -0.5453  1.7873  2.1982
   35CHL1   C16 3717   3.403   5.671   5.223  0.3829 -0.0922  0.2555
   35CHL1  H16A 3718   3.481   5.612   5.169 -0.5725 -2.0763  0.9227
   35CHL1  H16B 3719   3.318   5.670   5.152  2.5028 -0.6790 -2.4718
   35CHL1   C17 3720   3.449   5.815   5.244  0.5613  0.2403 -0.2441
   35CHL1   H17 3721   3.362   5.882   5.258  2.0415  2.0461  0.6586
   35CHL1   C13 3722   3.519   5.805   5.380  0.0194  0.5529 -0.2354
   35CHL1   C18 3723   3.648   5.725   5.357 -0.3599  0.7055 -0.7382
   35CHL1  H18A 3724   3.646   5.639   5.287  1.5840  1.3999 -1.7311
   35CHL1  H18B 3725   3.728   5.787   5.312  0.6775 -0.4139 -0.4823
   35CHL1  H18C 3726   3.691   5.684   5.451 -1.1321 -1.3986 -1.2566
   35CHL1   C12 3727   3.538   5.939   5.459  0.0664  0.3115 -0.3823
   35CHL1  H12A 3728   3.619   5.999   5.412 -0.7943  0.9004 -1.1672
   35CHL1  H12B 3729   3.441   5.992   5.449 -0.2045  0.5319  2.4928
   35CHL1   C11 3730   3.578   5.916   5.606 -0.5196 -0.0391  0.4842
   35CHL1  H11A 3731   3.678   5.866   5.610 -1.0154 -1.4188 -2.0984
   35CHL1  H11B 3732   3.574   6.012   5.660  2.8211  0.4299  0.1085
   35CHL1    C9 3733   3.484   5.821   5.682 -0.0326 -0.2593  0.2893
   35CHL1    H9 3734   3.384   5.869   5.681 -0.6363 -1.4923  0.2803
   35CHL1   C10 3735   3.521   5.800   5.832 -0.0958  0.0263  0.1346
   35CHL1   C19 3736   3.671   5.779   5.840 -0.3220 -0.0694 -0.3274
   35CHL1  H19A 3737   3.697   5.702   5.763  1.1175  1.3405 -1.3227
   35CHL1  H19B 3738   3.714   5.877   5.811 -2.1060  0.3626 -1.7067
   35CHL1  H19C 3739   3.712   5.747   5.938 -0.5692 -1.7517 -0.7347
   35CHL1    C1 3740   3.475   5.922   5.916  0.0177  0.1982 -0.3560
   35CHL1   H1A 3741   3.525   6.015   5.883 -0.0084  0.3781  0.0937
   35CHL1   H1B 3742   3.366   5.930   5.893 -0.3260 -3.2435 -0.4214
   35CHL1    C2 3743   3.507   5.914   6.066 -0.1556 -0.3145  0.6508
   35CHL1   H2A 3744   3.464   6.003   6.116  0.2824  0.8502 -0.9693
   35CHL1   H2B 3745   3.616   5.921   6.084 -0.5495  3.0913  2.5901
   35CHL1   C20 3746   3.540   5.861   5.125 -0.1337 -1.0224 -0.3480
   35CHL1   H20 3747   3.634   5.803   5.117 -1.1725 -2.5582 -1.8834
   35CHL1   C21 3748   3.586   6.001   5.157 -0.0147  0.0410 -0.1871
   35CHL1  H21A 3749   3.524   6.061   5.227 -0.2518  1.0416 -1.2176
   35CHL1  H21B 3750   3.599   6.068   5.069 -1.2855 -0.0181 -0.4305
   35CHL1  H21C 3751   3.686   5.990   5.204  0.3740  3.0762 -0.0537
   35CHL1   C22 3752   3.472   5.857   4.982 -0.5621  0.5961  0.3734
   35CHL1  H22A 3753   3.419   5.761   4.966 -0.5721  0.6465  0.1001
   35CHL1  H22B 3754   3.399   5.940   4.992 -2.0697 -0.8325  1.7893
   35CHL1   C23 3755   3.570   5.856   4.860 -0.9780  0.0837 -0.0093
   35CHL1  H23A 3756   3.625   5.951   4.844 -0.2258 -0.2177  0.6729
   35CHL1  H23B 3757   3.636   5.768   4.872 -2.2786 -0.9031  0.1896
   35CHL1   C24 3758   3.491   5.827   4.730  0.0079 -0.2896  0.9991
   35CHL1  H24A 3759   3.421   5.745   4.760 -1.0062  0.5687  1.0572
   35CHL1  H24B 3760   3.434   5.918   4.702  0.9594  0.0078  0.0032
   35CHL1   C25 3761   3.570   5.773   4.613 -0.7436 -0.7055 -0.7057
   35CHL1   H25 3762   3.599   5.668   4.636 -2.4028 -1.2691 -1.0183
   35CHL1   C26 3763   3.466   5.760   4.492 -0.3636  0.4220 -0.5916
   35CHL1  H26A 3764   3.508   5.700   4.408  3.2220 -1.2726  2.1761
   35CHL1  H26B 3765   3.382   5.692   4.520 -0.6073  0.7199 -0.5891
   35CHL1  H26C 3766   3.424   5.858   4.459  0.1287  0.2463 -1.7994
   35CHL1   C27 3767   3.683   5.868   4.583 -0.5375  0.0999  0.9139
   35CHL1  H27A 3768   3.628   5.961   4.557  0.7754  0.1650 -2.0954
   35CHL1  H27B 3769   3.754   5.893   4.664  1.7167 -1.0068 -0.6044
   35CHL1  H27C 3770   3.735   5.847   4.486 -0.2934  0.1537  1.0314
   36CHL1    C3 3771   0.565   4.284   5.858  0.0244 -0.8856  0.7840
   36CHL1    H3 3772   0.619   4.378   5.835 -1.3988  0.1228  1.4215
   36CHL1    O3 3773   0.537   4.277   5.994  0.1614 -0.9878  0.1741
   36CHL1   H3' 3774   0.475   4.204   6.001 -0.5252 -0.5322 -0.8321
   36CHL1    C4 3775   0.436   4.289   5.770 -0.5494  0.2551  0.0081
   36CHL1   H4A 3776   0.368   4.203   5.784 -1.9016  1.5118  1.5391
   36CHL1   H4B 3777   0.373   4.375   5.801 -2.7775 -1.2090 -0.2767
   36CHL1    C5 3778   0.478   4.290   5.626 -0.0278 -0.4992  0.5291
   36CHL1    C6 3779   0.446   4.394   5.547 -0.3457 -0.1543  0.0503
   36CHL1    H6 3780   0.391   4.478   5.590 -1.6055 -0.1037 -1.5302
   36CHL1    C7 3781   0.470   4.393   5.394  0.1892  0.2606  0.1451
   36CHL1   H7A 3782   0.380   4.431   5.342  0.5963 -2.6160 -3.0429
   36CHL1   H7B 3783   0.544   4.472   5.370 -0.4387  0.1386 -2.4901
   36CHL1    C8 3784   0.493   4.250   5.331 -0.5810 -0.0544 -0.1281
   36CHL1    H8 3785   0.402   4.187   5.335 -0.9114  0.4477  0.5038
   36CHL1   C14 3786   0.548   4.268   5.189  0.3987  0.2888  0.4465
   36CHL1   H14 3787   0.636   4.335   5.201  1.2984 -0.2157 -2.5215
   36CHL1   C15 3788   0.468   4.347   5.083 -0.0366  0.2295  0.8561
   36CHL1  H15A 3789   0.360   4.319   5.088 -0.3142  0.6525 -1.4779
   36CHL1  H15B 3790   0.486   4.456   5.087  1.4058  0.0695 -0.3085
   36CHL1   C16 3791   0.528   4.300   4.946 -0.3499  0.1669  0.2955
   36CHL1  H16A 3792   0.448   4.261   4.878  1.9600 -1.4765 -1.6547
   36CHL1  H16B 3793   0.578   4.384   4.894  0.9387 -1.4345 -1.1799
   36CHL1   C17 3794   0.637   4.194   4.979  0.1343 -0.1740  0.1154
   36CHL1   H17 3795   0.732   4.248   4.995  1.2895 -2.1936  0.4916
   36CHL1   C13 3796   0.606   4.135   5.121  0.0017  0.0960  0.0485
   36CHL1   C18 3797   0.495   4.029   5.111 -0.0534  0.1660 -0.8260
   36CHL1  H18A 3798   0.443   4.008   5.207 -1.9132 -2.0591 -2.2199
   36CHL1  H18B 3799   0.423   4.054   5.030 -0.9885 -3.2859 -1.2178
   36CHL1  H18C 3800   0.546   3.935   5.078  0.6605 -0.0328  0.7631
   36CHL1   C12 3801   0.723   4.078   5.206  0.1208  0.5008 -0.2993
   36CHL1  H12A 3802   0.765   3.982   5.168  0.0356  0.2183  0.3051
   36CHL1  H12B 3803   0.806   4.151   5.208 -2.2475  3.4194 -1.3153
   36CHL1   C11 3804   0.679   4.064   5.351  0.1225 -0.2823 -0.6338
   36CHL1  H11A 3805   0.614   3.973   5.351 -0.4106  0.0315 -3.1158
   36CHL1  H11B 3806   0.772   4.033   5.402 -0.2463 -1.2969 -0.5426
   36CHL1    C9 3807   0.609   4.189   5.421 -0.3104  0.5689  0.2223
   36CHL1    H9 3808   0.688   4.267   5.421 -0.6284  0.9948 -2.7330
   36CHL1   C10 3809   0.561   4.167   5.568 -0.6239 -0.5840  0.6539
   36CHL1   C19 3810   0.466   4.043   5.586 -0.8028  0.4803 -0.3093
   36CHL1  H19A 3811   0.450   4.019   5.693 -0.0733 -0.2890 -0.3615
   36CHL1  H19B 3812   0.370   4.056   5.531 -2.1722 -2.1056  1.2728
   36CHL1  H19C 3813   0.525   3.959   5.544  0.7742  1.6157 -0.4471
   36CHL1    C1 3814   0.683   4.161   5.657 -0.1275 -0.4624 -0.1114
   36CHL1   H1A 3815   0.754   4.081   5.627  2.1291  1.4858 -0.2665
   36CHL1   H1B 3816   0.744   4.252   5.636 -1.3696  0.4503  0.1032
   36CHL1    C2 3817   0.659   4.165   5.812 -0.1510 -0.2137 -0.4363
   36CHL1   H2A 3818   0.752   4.187   5.868 -0.4732  0.4911 -0.1674
   36CHL1   H2B 3819   0.611   4.075   5.858 -1.5143  1.0028  0.6272
   36CHL1   C20 3820   0.665   4.099   4.857  0.7200 -0.4390  0.2523
   36CHL1   H20 3821   0.569   4.045   4.844  0.1186  1.0413 -1.9259
   36CHL1   C21 3822   0.775   3.994   4.882 -0.3787 -0.5080 -0.4190
   36CHL1  H21A 3823   0.741   3.924   4.961 -1.4671  0.0421 -0.3804
   36CHL1  H21B 3824   0.872   4.035   4.919 -0.8958  0.9771 -0.6428
   36CHL1  H21C 3825   0.803   3.937   4.791  2.8905 -3.8011  2.3434
   36CHL1   C22 3826   0.689   4.170   4.719 -0.3721 -0.1408  0.1620
   36CHL1  H22A 3827   0.623   4.259   4.713  1.0772  1.1623  2.2321
   36CHL1  H22B 3828   0.788   4.216   4.703 -0.7246  0.5841  0.0304
   36CHL1   C23 3829   0.639   4.079   4.601  0.1521  0.1543 -0.0914
   36CHL1  H23A 3830   0.716   4.015   4.553  1.1976  0.3716  1.2470
   36CHL1  H23B 3831   0.569   4.002   4.637 -2.4350  1.9683 -0.9492
   36CHL1   C24 3832   0.587   4.170   4.484 -0.6071 -0.0100  0.2507
   36CHL1  H24A 3833   0.487   4.212   4.508  0.4867  3.1413 -0.2398
   36CHL1  H24B 3834   0.652   4.260   4.474 -0.1237 -0.4087 -0.1802
   36CHL1   C25 3835   0.579   4.096   4.342  0.4226 -0.0979 -0.5645
   36CHL1   H25 3836   0.511   4.009   4.356  1.5466 -0.7214  1.4459
   36CHL1   C26 3837   0.521   4.177   4.222 -0.7744 -0.1592 -0.5471
   36CHL1  H26A 3838   0.560   4.280   4.233  1.4232 -0.9431 -0.4149
   36CHL1  H26B 3839   0.548   4.139   4.121 -2.3464 -0.4384 -0.8856
   36CHL1  H26C 3840   0.410   4.169   4.226 -0.7251 -0.3514  1.5791
   36CHL1   C27 3841   0.717   4.044   4.291  0.5254 -0.5063  0.4469
   36CHL1  H27A 3842   0.708   4.004   4.188 -0.3691 -0.2186  0.4083
   36CHL1  H27B 3843   0.798   4.120   4.287  0.5245 -0.5728 -1.3861
   36CHL1  H27C 3844   0.751   3.960   4.356  1.4302  1.0420  2.1049
   37CHL1    C3 3845   1.504   0.901   5.708 -0.6892  0.2112 -0.1225
   37CHL1    H3 3846   1.475   0.796   5.732  1.6399 -0.0935  1.7036
   37CHL1    O3 3847   1.493   0.971   5.832 -0.4551 -0.2920 -0.0835
   37CHL1   H3' 3848   1.399   0.971   5.856 -0.4499  1.4127  0.0746
   37CHL1    C4 3849   1.661   0.908   5.665  0.6924  0.2294  0.1759
   37CHL1   H4A 3850   1.685   1.016   5.655 -0.1479  0.4028 -0.0775
   37CHL1   H4B 3851   1.722   0.873   5.750  1.7541  1.0459 -0.2342
   37CHL1    C5 3852   1.673   0.842   5.526 -0.3251  1.0051 -0.2812
   37CHL1    C6 3853   1.752   0.737   5.522 -1.2832 -0.1588  0.5190
   37CHL1    H6 3854   1.796   0.702   5.617  0.5622  0.1528 -0.1876
   37CHL1    C7 3855   1.777   0.648   5.402 -0.3702 -0.8258  0.2674
   37CHL1   H7A 3856   1.885   0.621   5.395  0.0110  0.5162  0.6974
   37CHL1   H7B 3857   1.719   0.553   5.405 -1.1880 -0.3114  2.4298
   37CHL1    C8 3858   1.722   0.718   5.270 -0.4370 -0.1341 -0.2023
   37CHL1    H8 3859   1.782   0.807   5.242  0.9425 -1.2074 -0.7887
   37CHL1   C14 3860   1.722   0.618   5.153  0.0399 -0.7542  0.4470
   37CHL1   H14 3861   1.647   0.541   5.181 -1.2677 -0.5511 -2.2109
   37CHL1   C15 3862   1.850   0.547   5.103 -0.8606 -0.1027  0.4336
   37CHL1  H15A 3863   1.933   0.621   5.104 -0.8859 -0.0687  0.1650
   37CHL1  H15B 3864   1.887   0.458   5.159  0.0115 -0.1049 -0.1230
   37CHL1   C16 3865   1.823   0.508   4.956  0.1867  0.4003  0.5894
   37CHL1  H16A 3866   1.911   0.552   4.904 -0.3565 -0.9535 -1.5898
   37CHL1  H16B 3867   1.836   0.398   4.949  0.8144  0.5812 -2.4417
   37CHL1   C17 3868   1.676   0.559   4.930 -0.5022 -0.0086  0.6026
   37CHL1   H17 3869   1.603   0.483   4.965  0.8444 -1.2820  0.7359
   37CHL1   C13 3870   1.657   0.676   5.026 -0.5533 -0.2474 -0.6004
   37CHL1   C18 3871   1.741   0.801   4.988  1.1935  0.0961  0.6814
   37CHL1  H18A 3872   1.848   0.777   4.970  1.4265  1.4346  0.1477
   37CHL1  H18B 3873   1.709   0.844   4.890 -0.0174  0.5259  1.2385
   37CHL1  H18C 3874   1.738   0.887   5.058 -0.7805 -0.3976  1.2615
   37CHL1   C12 3875   1.515   0.717   5.051 -0.0124  0.1362 -0.0826
   37CHL1  H12A 3876   1.474   0.765   4.960  1.5771  2.9335  0.5750
   37CHL1  H12B 3877   1.456   0.624   5.064 -1.6688  0.9807 -1.1917
   37CHL1   C11 3878   1.504   0.809   5.171 -0.9596 -0.3254 -0.0971
   37CHL1  H11A 3879   1.548   0.902   5.131 -2.6203 -0.0272 -1.3664
   37CHL1  H11B 3880   1.398   0.833   5.194 -0.7727  3.0128 -2.0506
   37CHL1    C9 3881   1.581   0.769   5.298 -0.0189 -0.0627 -0.4884
   37CHL1    H9 3882   1.532   0.674   5.327 -0.2160  0.4200  0.7994
   37CHL1   C10 3883   1.573   0.872   5.417  1.1232  0.2580  0.0032
   37CHL1   C19 3884   1.616   1.012   5.362 -0.0438 -0.2498 -0.8246
   37CHL1  H19A 3885   1.535   1.052   5.298 -0.6980  1.7430  1.1147
   37CHL1  H19B 3886   1.617   1.085   5.446 -0.4966 -0.7982 -0.3380
   37CHL1  H19C 3887   1.721   1.008   5.325  1.7653 -1.3753  3.7140
   37CHL1    C1 3888   1.421   0.875   5.465  0.2190 -0.3598 -0.4009
   37CHL1   H1A 3889   1.356   0.918   5.386 -0.8481  0.8935  1.1005
   37CHL1   H1B 3890   1.380   0.773   5.486 -0.6867  0.0740  0.0146
   37CHL1    C2 3891   1.405   0.951   5.603 -0.6840 -0.2729 -0.0541
   37CHL1   H2A 3892   1.306   0.942   5.651 -0.7922 -1.8860 -0.5288
   37CHL1   H2B 3893   1.435   1.055   5.578  1.1287 -0.7642 -0.0920
   37CHL1   C20 3894   1.650   0.583   4.779 -0.1287 -0.1700 -0.2509
   37CHL1   H20 3895   1.555   0.635   4.757  0.3365  0.4594 -0.7968
   37CHL1   C21 3896   1.638   0.440   4.717  0.1471  0.4385 -0.2720
   37CHL1  H21A 3897   1.560   0.379   4.765  0.5652  0.6640  0.7218
   37CHL1  H21B 3898   1.730   0.378   4.720 -0.4259 -0.4371 -0.5378
   37CHL1  H21C 3899   1.614   0.444   4.608  2.6329  1.1663 -0.8759
   37CHL1   C22 3900   1.757   0.641   4.692 -0.0062  0.4059 -0.1219
   37CHL1  H22A 3901   1.806   0.725   4.746 -0.0055  0.2158  0.1747
   37CHL1  H22B 3902   1.838   0.565   4.683 -0.3939  0.2278 -3.4249
   37CHL1   C23 3903   1.713   0.684   4.555  0.3622 -0.1166  0.2894
   37CHL1  H23A 3904   1.614   0.644   4.526  1.0295  0.0185 -2.4550
   37CHL1  H23B 3905   1.675   0.788   4.560 -2.1325 -0.7674 -2.1193
   37CHL1   C24 3906   1.818   0.668   4.445 -0.0818  0.5128  0.1526
   37CHL1  H24A 3907   1.917   0.714   4.466  0.2729 -0.1028 -0.1485
   37CHL1  H24B 3908   1.839   0.559   4.441 -0.3851  0.4605 -0.0484
   37CHL1   C25 3909   1.759   0.720   4.305  0.1205  0.3534 -0.1333
   37CHL1   H25 3910   1.682   0.795   4.330  0.3104  0.0126  1.6288
   37CHL1   C26 3911   1.869   0.767   4.225  0.1485  0.1417  0.3248
   37CHL1  H26A 3912   1.837   0.808   4.126  0.4937 -2.2617 -0.8586
   37CHL1  H26B 3913   1.926   0.849   4.273 -1.2166  1.7265 -0.6326
   37CHL1  H26C 3914   1.942   0.688   4.197 -0.2148 -0.1990  0.3256
   37CHL1   C27 3915   1.694   0.607   4.222  0.1192  0.6507  0.2846
   37CHL1  H27A 3916   1.762   0.522   4.204  1.8449  2.1023 -0.4089
   37CHL1  H27B 3917   1.601   0.568   4.269 -0.6123  0.3343 -1.3558
   37CHL1  H27C 3918   1.671   0.660   4.127  0.0281  2.4635  1.2627
   38CHL1    C3 3919   2.345   1.306   5.882  0.2193  0.3018 -0.8432
   38CHL1    H3 3920   2.453   1.281   5.873  0.1037 -0.3159 -0.5763
   38CHL1    O3 3921   2.293   1.320   6.012 -0.3296 -0.6134  0.1606
   38CHL1   H3' 3922   2.198   1.320   5.998 -0.9718  0.0137  3.5463
   38CHL1    C4 3923   2.334   1.441   5.815 -0.0695 -0.6783 -0.5251
   38CHL1   H4A 3924   2.231   1.481   5.802  0.8170  1.4379 -1.5655
   38CHL1   H4B 3925   2.385   1.514   5.881 -0.6116  0.1508 -0.9954
   38CHL1    C5 3926   2.382   1.446   5.675  0.4162 -0.5286 -0.2106
   38CHL1    C6 3927   2.475   1.533   5.630  0.1526  0.0618  0.5779
   38CHL1    H6 3928   2.523   1.612   5.691  1.3693  0.8083 -1.2653
   38CHL1    C7 3929   2.532   1.538   5.487  0.6312 -0.1133  0.2699
   38CHL1   H7A 3930   2.523   1.642   5.450 -2.2451 -0.6525 -0.8766
   38CHL1   H7B 3931   2.639   1.510   5.498  0.9841  0.9370 -0.3565
   38CHL1    C8 3932   2.464   1.441   5.385  0.0648  0.3614  0.6907
   38CHL1    H8 3933   2.371   1.496   5.357  0.7719  0.9455 -0.5866
   38CHL1   C14 3934   2.550   1.414   5.261  0.1125  0.0504 -0.6485
   38CHL1   H14 3935   2.637   1.355   5.299  1.7554  2.5956 -0.2258
   38CHL1   C15 3936   2.605   1.533   5.193 -0.3992 -0.7298  0.3775
   38CHL1  H15A 3937   2.526   1.611   5.191  0.0082 -0.3077 -2.0418
   38CHL1  H15B 3938   2.681   1.567   5.265  0.0545 -0.1701 -0.3511
   38CHL1   C16 3939   2.652   1.485   5.057 -0.6071 -0.6166 -0.1664
   38CHL1  H16A 3940   2.608   1.541   4.972  0.6291  0.2210 -0.2736
   38CHL1  H16B 3941   2.762   1.499   5.051 -0.9547  2.2215 -1.7510
   38CHL1   C17 3942   2.610   1.337   5.051  0.1717 -0.8372  0.2164
   38CHL1   H17 3943   2.705   1.288   5.081  1.1042  1.7571  1.7797
   38CHL1   C13 3944   2.496   1.321   5.150 -0.8443  0.1219 -0.4405
   38CHL1   C18 3945   2.369   1.392   5.091  1.1402  0.1172 -0.5279
   38CHL1  H18A 3946   2.290   1.393   5.169  0.8998  0.2374 -0.7739
   38CHL1  H18B 3947   2.384   1.500   5.069 -2.6221  0.1115 -4.2417
   38CHL1  H18C 3948   2.338   1.340   4.998 -1.5705  0.1001  0.3216
   38CHL1   C12 3949   2.470   1.188   5.220  0.1927  0.4538  0.3152
   38CHL1  H12A 3950   2.423   1.115   5.151  0.8568 -1.8410  2.1460
   38CHL1  H12B 3951   2.562   1.130   5.241  0.4684  0.7278 -0.1291
   38CHL1   C11 3952   2.384   1.200   5.346  0.3451 -0.8854 -0.4930
   38CHL1  H11A 3953   2.283   1.232   5.311  0.1524  0.1033  0.9071
   38CHL1  H11B 3954   2.382   1.101   5.396  0.0129 -1.5085 -1.6969
   38CHL1    C9 3955   2.432   1.306   5.450 -0.2579  0.5348 -0.1249
   38CHL1    H9 3956   2.528   1.263   5.484 -0.3612 -2.2661 -2.9033
   38CHL1   C10 3957   2.345   1.326   5.581  0.5804  0.4786  0.7204
   38CHL1   C19 3958   2.195   1.354   5.529 -0.2997 -0.5210 -0.0278
   38CHL1  H19A 3959   2.151   1.287   5.452  1.8874  1.4125 -3.1802
   38CHL1  H19B 3960   2.126   1.354   5.617  0.7156 -0.5320  0.7881
   38CHL1  H19C 3961   2.191   1.452   5.477 -1.6111 -0.2228  0.5879
   38CHL1    C1 3962   2.341   1.195   5.660 -0.3386  0.1344  0.0787
   38CHL1   H1A 3963   2.287   1.116   5.604  0.4321  0.1475 -0.7000
   38CHL1   H1B 3964   2.444   1.159   5.677 -1.3024 -1.8027  2.4544
   38CHL1    C2 3965   2.270   1.202   5.799  0.2805  0.3683 -0.4011
   38CHL1   H2A 3966   2.272   1.100   5.844 -0.4230 -0.6062 -2.4318
   38CHL1   H2B 3967   2.164   1.230   5.781  0.9032  1.1943 -3.3756
   38CHL1   C20 3968   2.585   1.296   4.902  0.8342 -0.5480  1.1178
   38CHL1   H20 3969   2.494   1.345   4.861  1.9059 -0.1672 -0.9345
   38CHL1   C21 3970   2.564   1.144   4.896  0.2325 -0.0174 -0.1919
   38CHL1  H21A 3971   2.569   1.097   4.796 -0.0190 -2.8268  1.0163
   38CHL1  H21B 3972   2.459   1.132   4.933  0.7529 -1.3539  0.9242
   38CHL1  H21C 3973   2.645   1.097   4.956  1.0768 -0.3855 -1.5980
   38CHL1   C22 3974   2.701   1.341   4.808 -0.3978 -0.1166  1.1427
   38CHL1  H22A 3975   2.721   1.450   4.816  3.2302 -0.5607 -0.0610
   38CHL1  H22B 3976   2.791   1.284   4.837 -1.2021 -0.9185  2.1591
   38CHL1   C23 3977   2.675   1.317   4.656  0.4044 -0.1701 -0.6379
   38CHL1  H23A 3978   2.671   1.208   4.634  2.1859 -0.5651  0.7771
   38CHL1  H23B 3979   2.578   1.366   4.634  0.1454 -0.7343 -0.7630
   38CHL1   C24 3980   2.792   1.371   4.563  0.4765  0.1521 -0.0771
   38CHL1  H24A 3981   2.829   1.465   4.610  0.2840  0.0330  0.3220
   38CHL1  H24B 3982   2.873   1.295   4.572  0.3758  0.0117 -0.3460
   38CHL1   C25 3983   2.763   1.398   4.421  0.1358 -0.2799  0.4236
   38CHL1   H25 3984   2.708   1.315   4.371  1.8820 -1.1789 -0.1294
   38CHL1   C26 3985   2.676   1.526   4.407  0.2735 -0.8641  0.2426
   38CHL1  H26A 3986   2.595   1.523   4.482 -0.5126 -1.9984 -0.6218
   38CHL1  H26B 3987   2.734   1.616   4.436  1.3879 -0.7689 -2.0546
   38CHL1  H26C 3988   2.624   1.533   4.309 -2.3497 -0.6947  1.5594
   38CHL1   C27 3989   2.898   1.419   4.338  0.0295 -0.0185 -0.1067
   38CHL1  H27A 3990   2.876   1.464   4.239  3.3778  0.3216 -0.8228
   38CHL1  H27B 3991   2.957   1.497   4.389 -1.7320  0.9118  0.5980
   38CHL1  H27C 3992   2.956   1.325   4.330 -0.5867 -0.3173 -1.3519
   39CHL1    C3 3993   2.824   1.156   6.180  1.0630  0.2017 -0.2727
   39CHL1    H3 3994   2.882   1.063   6.195 -0.6457 -1.1225 -1.4252
   39CHL1    O3 3995   2.764   1.186   6.308  0.0697  0.6836  0.0239
   39CHL1   H3' 3996   2.749   1.099   6.345 -0.0335  0.8858  0.4609
   39CHL1    C4 3997   2.910   1.278   6.147 -0.0775  0.4429 -0.5615
   39CHL1   H4A 3998   2.855   1.371   6.170 -1.3155 -0.4333  0.1751
   39CHL1   H4B 3999   2.989   1.276   6.226  0.5419 -0.1548 -1.1737
   39CHL1    C5 4000   2.972   1.262   6.009  0.1508 -0.5103  0.2579
   39CHL1    C6 4001   3.106   1.255   5.992  0.5907 -0.2944 -0.2493
   39CHL1    H6 4002   3.176   1.267   6.076  0.9744  1.4067 -0.7651
   39CHL1    C7 4003   3.167   1.246   5.857  0.0800 -0.0048 -0.2995
   39CHL1   H7A 4004   3.249   1.320   5.846  0.9881 -1.0117 -0.4047
   39CHL1   H7B 4005   3.217   1.147   5.854  0.3874  0.1074  0.7437
   39CHL1    C8 4006   3.065   1.269   5.735 -0.5237 -0.4848  0.7026
   39CHL1    H8 4007   3.065   1.380   5.727 -0.9114 -0.5422 -0.2010
   39CHL1   C14 4008   3.119   1.228   5.601  0.5865  0.3004  0.0744
   39CHL1   H14 4009   3.120   1.117   5.602 -1.5372  0.2257 -0.4219
   39CHL1   C15 4010   3.258   1.280   5.567  0.0261 -0.4982  1.1390
   39CHL1  H15A 4011   3.253   1.389   5.592  0.4270 -0.1518 -0.2211
   39CHL1  H15B 4012   3.346   1.237   5.619  2.9318  0.0863 -2.8905
   39CHL1   C16 4013   3.267   1.244   5.415  0.3667  0.2930 -0.9355
   39CHL1  H16A 4014   3.310   1.322   5.349  0.2569  0.7838 -0.4403
   39CHL1  H16B 4015   3.344   1.165   5.405  0.6993  0.4589  0.1508
   39CHL1   C17 4016   3.121   1.193   5.371 -0.1463  0.0153 -0.2472
   39CHL1   H17 4017   3.120   1.082   5.373  0.9867 -0.0090 -0.4875
   39CHL1   C13 4018   3.033   1.252   5.480  0.1690  0.0540  0.2062
   39CHL1   C18 4019   3.011   1.402   5.466  0.3915  0.3956  0.5368
   39CHL1  H18A 4020   2.937   1.416   5.384 -0.4485 -0.0157  1.2175
   39CHL1  H18B 4021   2.970   1.444   5.560  2.1869  1.1303  1.0315
   39CHL1  H18C 4022   3.112   1.448   5.449  0.6540 -0.5861 -0.7323
   39CHL1   C12 4023   2.903   1.174   5.512  0.4441 -0.0122  0.5441
   39CHL1  H12A 4024   2.838   1.182   5.423  1.9327  1.7318 -0.4484
   39CHL1  H12B 4025   2.922   1.067   5.538  0.8161 -0.1107 -0.1061
   39CHL1   C11 4026   2.832   1.221   5.641  0.1071 -0.0852  0.2028
   39CHL1  H11A 4027   2.810   1.328   5.625 -0.5928 -0.2318  0.1339
   39CHL1  H11B 4028   2.738   1.165   5.658 -0.9337  1.8028  0.9543
   39CHL1    C9 4029   2.933   1.202   5.762 -0.0280 -0.4783  0.3821
   39CHL1    H9 4030   2.956   1.095   5.778  3.2803  0.2495  1.3759
   39CHL1   C10 4031   2.865   1.242   5.899 -0.3811  0.0985  0.3818
   39CHL1   C19 4032   2.784   1.378   5.880  0.0258  0.6324 -0.2917
   39CHL1  H19A 4033   2.754   1.406   5.984  0.1278 -1.2428  0.2682
   39CHL1  H19B 4034   2.849   1.450   5.825  1.3603 -0.3253 -0.0049
   39CHL1  H19C 4035   2.688   1.377   5.824  0.0210  1.8715 -0.3455
   39CHL1    C1 4036   2.764   1.130   5.932  0.5907 -0.1218  1.0594
   39CHL1   H1A 4037   2.679   1.134   5.860  1.2420 -0.7258  0.2238
   39CHL1   H1B 4038   2.815   1.033   5.909 -0.2631 -0.3558  0.0818
   39CHL1    C2 4039   2.712   1.133   6.075 -0.3269 -0.3575 -0.5982
   39CHL1   H2A 4040   2.667   1.035   6.103  0.8957 -1.0281 -0.9043
   39CHL1   H2B 4041   2.634   1.212   6.082  0.4570  0.4229 -0.5700
   39CHL1   C20 4042   3.086   1.235   5.219 -0.2569 -0.3724 -0.2608
   39CHL1   H20 4043   3.092   1.346   5.229  2.4611 -0.2522 -2.1345
   39CHL1   C21 4044   2.942   1.182   5.188 -0.1255 -0.1881  0.1651
   39CHL1  H21A 4045   2.940   1.177   5.077  2.9825 -2.1497  0.0926
   39CHL1  H21B 4046   2.870   1.257   5.228  0.7601  0.2782  0.9219
   39CHL1  H21C 4047   2.916   1.083   5.230 -0.5005 -0.6703 -1.1347
   39CHL1   C22 4048   3.198   1.195   5.116  0.0277  0.4909 -0.4848
   39CHL1  H22A 4049   3.294   1.224   5.163 -1.0801  1.4296  1.2793
   39CHL1  H22B 4050   3.195   1.083   5.116  1.5239  0.3879 -2.4200
   39CHL1   C23 4051   3.186   1.254   4.981 -0.1885 -0.8259  0.4231
   39CHL1  H23A 4052   3.219   1.176   4.909 -3.7641 -0.3222 -2.0162
   39CHL1  H23B 4053   3.080   1.262   4.950 -0.1144 -2.0366 -0.2398
   39CHL1   C24 4054   3.255   1.398   4.956 -0.2620 -0.5299  0.0254
   39CHL1  H24A 4055   3.222   1.475   5.029  2.4645 -0.2260  1.0720
   39CHL1  H24B 4056   3.363   1.380   4.973 -0.0136  1.4717  0.8133
   39CHL1   C25 4057   3.227   1.462   4.818  0.1535 -0.2314 -0.0932
   39CHL1   H25 4058   3.117   1.470   4.805  0.0261 -0.8957  0.5348
   39CHL1   C26 4059   3.277   1.604   4.820 -0.1387 -0.0949 -0.0093
   39CHL1  H26A 4060   3.388   1.599   4.830 -0.0932  2.0269  1.1150
   39CHL1  H26B 4061   3.262   1.659   4.725 -0.5001 -0.1619  0.0071
   39CHL1  H26C 4062   3.243   1.668   4.905  0.5972  1.5134 -0.8769
   39CHL1   C27 4063   3.294   1.387   4.710  0.6036  0.1135  0.7949
   39CHL1  H27A 4064   3.268   1.432   4.611 -1.2733 -0.6445  0.9006
   39CHL1  H27B 4065   3.404   1.373   4.717  0.8333 -1.5516 -3.0800
   39CHL1  H27C 4066   3.248   1.287   4.718 -0.0527  0.3957  0.6083
   40CHL1    C3 4067   3.205   5.250   6.117 -0.0405  0.2178  0.4048
   40CHL1    H3 4068   3.214   5.360   6.107  1.0392  0.2759  1.8114
   40CHL1    O3 4069   3.184   5.223   6.252  0.2510  0.0624 -0.6044
   40CHL1   H3' 4070   3.261   5.252   6.300  0.8809 -0.2727 -1.3855
   40CHL1    C4 4071   3.078   5.213   6.040 -0.7845 -0.2379  0.0451
   40CHL1   H4A 4072   3.058   5.106   6.065 -2.3891  0.1762  0.6474
   40CHL1   H4B 4073   3.001   5.274   6.091 -0.6275 -0.5501  0.6703
   40CHL1    C5 4074   3.114   5.225   5.892  0.0641 -0.5609 -0.2821
   40CHL1    C6 4075   3.048   5.313   5.823 -0.2768  0.1595 -0.8885
   40CHL1    H6 4076   2.961   5.357   5.874 -0.6549 -1.8505  0.2925
   40CHL1    C7 4077   3.062   5.334   5.677 -0.8998 -0.3492 -0.3377
   40CHL1   H7A 4078   2.962   5.349   5.631 -1.1296 -1.1343 -0.1261
   40CHL1   H7B 4079   3.125   5.425   5.665  0.0810 -1.0832 -0.9369
   40CHL1    C8 4080   3.138   5.212   5.600 -0.5178 -0.5115  0.0483
   40CHL1    H8 4081   3.069   5.126   5.609  1.0384 -1.8128  0.1645
   40CHL1   C14 4082   3.177   5.243   5.455 -0.0986  0.7607  1.3282
   40CHL1   H14 4083   3.239   5.335   5.461  2.0118 -0.5107  0.4087
   40CHL1   C15 4084   3.063   5.282   5.365 -0.0225  0.1339 -0.1120
   40CHL1  H15A 4085   2.980   5.209   5.380  0.7985 -0.5773  1.2401
   40CHL1  H15B 4086   3.034   5.384   5.398 -0.3635  0.1606 -0.4899
   40CHL1   C16 4087   3.131   5.272   5.229  0.6175  0.4847 -0.4010
   40CHL1  H16A 4088   3.065   5.210   5.164 -2.7855  1.4063  1.8913
   40CHL1  H16B 4089   3.129   5.372   5.180 -0.2606  0.6624 -0.0201
   40CHL1   C17 4090   3.268   5.202   5.247 -0.6674  0.3624 -0.2469
   40CHL1   H17 4091   3.341   5.285   5.250 -0.2540  0.1075 -2.0428
   40CHL1   C13 4092   3.259   5.135   5.380  1.4741 -0.4833  0.9215
   40CHL1   C18 4093   3.169   5.007   5.381  0.5684 -0.0337 -0.3127
   40CHL1  H18A 4094   3.078   5.010   5.317 -0.2498  0.5947  0.8366
   40CHL1  H18B 4095   3.226   4.914   5.361  0.9549 -0.2364  1.5147
   40CHL1  H18C 4096   3.129   4.986   5.483  1.5271 -0.1267  0.0525
   40CHL1   C12 4097   3.392   5.119   5.458  0.4711  0.5101  0.1995
   40CHL1  H12A 4098   3.449   5.032   5.420 -2.5031 -0.9603 -1.2809
   40CHL1  H12B 4099   3.452   5.213   5.458  2.5958 -0.7762  1.2485
   40CHL1   C11 4100   3.364   5.090   5.606 -0.5287  0.2969 -0.5141
   40CHL1  H11A 4101   3.342   4.981   5.611  2.7873 -0.4486 -0.1455
   40CHL1  H11B 4102   3.466   5.092   5.651 -0.8812  0.6557  0.2842
   40CHL1    C9 4103   3.266   5.183   5.680  0.1393 -0.1843  1.4752
   40CHL1    H9 4104   3.323   5.277   5.693 -1.4569  0.6873  2.4445
   40CHL1   C10 4105   3.233   5.142   5.828  0.4862 -0.5198  0.3804
   40CHL1   C19 4106   3.192   4.993   5.834 -0.5962 -0.6723  0.2193
   40CHL1  H19A 4107   3.184   4.950   5.937  1.2845 -1.8250 -0.0642
   40CHL1  H19B 4108   3.094   4.981   5.782 -0.4357  0.6602 -0.4078
   40CHL1  H19C 4109   3.273   4.933   5.789  0.5692  0.5437  0.6439
   40CHL1    C1 4110   3.356   5.180   5.918  0.0264 -0.1445  0.8139
   40CHL1   H1A 4111   3.440   5.117   5.879  0.2019  0.8755 -0.5262
   40CHL1   H1B 4112   3.390   5.283   5.896  1.3029 -0.6710  0.2079
   40CHL1    C2 4113   3.327   5.176   6.066 -1.0192 -0.0654 -0.2872
   40CHL1   H2A 4114   3.418   5.209   6.121 -1.0086 -1.1519  0.3895
   40CHL1   H2B 4115   3.298   5.074   6.100 -0.8087  0.5407  1.9024
   40CHL1   C20 4116   3.311   5.112   5.124 -0.2292 -0.1372 -0.2091
   40CHL1   H20 4117   3.264   5.012   5.132 -0.4756 -0.1376 -1.4047
   40CHL1   C21 4118   3.471   5.097   5.125  0.7966  0.0030 -0.0734
   40CHL1  H21A 4119   3.523   5.046   5.208  0.6027  0.1522  0.1417
   40CHL1  H21B 4120   3.512   5.200   5.124 -1.9396  1.2143  0.8549
   40CHL1  H21C 4121   3.505   5.046   5.032 -0.1727  2.2584 -1.7424
   40CHL1   C22 4122   3.271   5.166   4.982  0.1577 -1.0033  0.1653
   40CHL1  H22A 4123   3.306   5.092   4.907  1.1025 -0.4922  0.0979
   40CHL1  H22B 4124   3.161   5.152   4.981 -0.2491  1.7703 -1.4247
   40CHL1   C23 4125   3.314   5.312   4.961  0.4934  0.0047  0.1318
   40CHL1  H23A 4126   3.316   5.349   5.066 -0.0647 -3.6546  1.6082
   40CHL1  H23B 4127   3.411   5.303   4.909 -0.5349 -2.5546 -1.5563
   40CHL1   C24 4128   3.217   5.392   4.876 -0.4431  0.1198  0.1367
   40CHL1  H24A 4129   3.112   5.384   4.909 -0.3241 -0.0888  0.4663
   40CHL1  H24B 4130   3.254   5.496   4.889  1.9453 -0.2188 -2.7397
   40CHL1   C25 4131   3.216   5.363   4.730 -0.5312 -0.7246 -0.3245
   40CHL1   H25 4132   3.232   5.254   4.722 -0.2286 -0.5986 -1.6092
   40CHL1   C26 4133   3.083   5.396   4.664  0.4785 -0.2905 -0.3877
   40CHL1  H26A 4134   3.059   5.504   4.652  0.0343 -0.1940  1.2202
   40CHL1  H26B 4135   3.089   5.345   4.565 -0.4548  0.9415 -1.1152
   40CHL1  H26C 4136   2.997   5.350   4.716 -0.0328  0.4595 -0.5582
   40CHL1   C27 4137   3.334   5.442   4.666  0.6249 -0.0062 -0.4576
   40CHL1  H27A 4138   3.312   5.550   4.676 -0.4566 -0.2370 -0.1383
   40CHL1  H27B 4139   3.434   5.411   4.702  0.8110 -0.8681 -1.6362
   40CHL1  H27C 4140   3.342   5.426   4.556  2.0047 -1.3404 -0.2061
   41CHL1    C3 4141   6.543   5.346   5.732 -0.2068 -1.1147  0.0357
   41CHL1    H3 4142   6.458   5.280   5.705 -0.9407  0.1184 -0.7691
   41CHL1    O3 4143   6.545   5.370   5.871 -0.0725  0.0296  0.3522
   41CHL1   H3' 4144   6.610   5.435   5.898  0.5685 -0.1838 -0.6348
   41CHL1    C4 4145   6.683   5.290   5.681  0.2781  0.2769  0.6346
   41CHL1   H4A 4146   6.757   5.350   5.738 -0.2895  1.5232  0.0965
   41CHL1   H4B 4147   6.696   5.189   5.725  1.0923  0.3867  0.6594
   41CHL1    C5 4148   6.701   5.288   5.529  0.7403 -0.0319 -0.0561
   41CHL1    C6 4149   6.724   5.177   5.464 -0.0005 -0.5733 -0.1303
   41CHL1    H6 4150   6.763   5.088   5.517  1.6823 -0.0461 -0.4086
   41CHL1    C7 4151   6.721   5.167   5.306 -0.3882  0.3073 -0.1490
   41CHL1   H7A 4152   6.812   5.112   5.274 -0.3498  0.3784 -0.1635
   41CHL1   H7B 4153   6.631   5.107   5.283 -0.4295 -0.4517  1.7879
   41CHL1    C8 4154   6.727   5.304   5.242 -0.5491  0.0919  0.7831
   41CHL1    H8 4155   6.832   5.341   5.247  0.2169 -1.4343 -1.9209
   41CHL1   C14 4156   6.680   5.290   5.097  0.2014  0.1622 -0.0051
   41CHL1   H14 4157   6.576   5.252   5.101  0.4276 -1.2285 -3.3935
   41CHL1   C15 4158   6.750   5.183   5.015  0.2009  0.4821 -0.1357
   41CHL1  H15A 4159   6.861   5.190   5.020  0.1852  1.1904 -0.6326
   41CHL1  H15B 4160   6.721   5.078   5.037 -1.3520  0.8173 -0.4230
   41CHL1   C16 4161   6.725   5.230   4.874 -0.1896  0.2721 -0.2270
   41CHL1  H16A 4162   6.824   5.255   4.831 -0.1504  1.5253  0.5414
   41CHL1  H16B 4163   6.677   5.152   4.810  0.3257 -0.9296  0.8157
   41CHL1   C17 4164   6.643   5.364   4.882  0.1099 -0.5757 -0.0497
   41CHL1   H17 4165   6.539   5.330   4.899  0.1177  0.0275  1.3379
   41CHL1   C13 4166   6.688   5.419   5.018  0.9774 -0.2496  0.1932
   41CHL1   C18 4167   6.832   5.469   5.012  0.2933 -0.1668 -0.0181
   41CHL1  H18A 4168   6.891   5.402   4.946 -0.0317  1.9511 -2.6017
   41CHL1  H18B 4169   6.842   5.571   4.969  0.9321 -0.5780 -0.8693
   41CHL1  H18C 4170   6.885   5.476   5.110  0.7405 -0.6079 -0.2220
   41CHL1   C12 4171   6.599   5.526   5.081 -0.2978 -0.5328 -0.6711
   41CHL1  H12A 4172   6.624   5.619   5.026  4.0062 -1.4447 -0.6596
   41CHL1  H12B 4173   6.489   5.516   5.070 -0.4352 -1.7182  1.2118
   41CHL1   C11 4174   6.644   5.548   5.229  0.0990 -0.3393 -0.2357
   41CHL1  H11A 4175   6.741   5.603   5.233 -0.0879 -0.0077 -0.1911
   41CHL1  H11B 4176   6.568   5.619   5.268  0.6876  1.8812 -2.8108
   41CHL1    C9 4177   6.637   5.413   5.302  0.0599 -0.0271  0.2203
   41CHL1    H9 4178   6.534   5.372   5.294  1.2424 -3.1485 -0.3258
   41CHL1   C10 4179   6.660   5.426   5.455  0.3038  0.3998  0.3779
   41CHL1   C19 4180   6.775   5.520   5.478 -0.0766 -0.7131 -0.3881
   41CHL1  H19A 4181   6.737   5.621   5.450  0.1561  0.3640  2.7332
   41CHL1  H19B 4182   6.799   5.532   5.586 -0.4065 -1.1782 -0.2602
   41CHL1  H19C 4183   6.870   5.480   5.436 -0.2546 -2.3634  0.7057
   41CHL1    C1 4184   6.518   5.469   5.520 -0.6499 -0.4892  0.4798
   41CHL1   H1A 4185   6.489   5.570   5.484  1.2680  0.8357  2.3514
   41CHL1   H1B 4186   6.437   5.398   5.495 -1.0117 -0.3692  1.2711
   41CHL1    C2 4187   6.520   5.486   5.671  0.5519  0.1360 -0.4641
   41CHL1   H2A 4188   6.414   5.512   5.692 -0.0501 -0.5845 -2.3370
   41CHL1   H2B 4189   6.597   5.558   5.704  0.2607  0.8010 -1.1891
   41CHL1   C20 4190   6.638   5.452   4.753 -0.5073  0.7429  0.2683
   41CHL1   H20 4191   6.731   5.511   4.750 -0.0271 -0.0380 -0.7767
   41CHL1   C21 4192   6.516   5.544   4.760  0.0162  0.2058 -0.6388
   41CHL1  H21A 4193   6.487   5.582   4.660 -1.1833  0.9414 -0.0340
   41CHL1  H21B 4194   6.524   5.632   4.827 -0.4189  0.3939 -0.8348
   41CHL1  H21C 4195   6.433   5.482   4.800  1.7470 -1.1854  1.0049
   41CHL1   C22 4196   6.634   5.364   4.623  0.5448  0.1703 -0.6609
   41CHL1  H22A 4197   6.723   5.298   4.627 -0.3434 -1.0788 -1.0837
   41CHL1  H22B 4198   6.544   5.299   4.619  3.1866 -3.8042 -0.1108
   41CHL1   C23 4199   6.652   5.463   4.502  0.0919  0.2316 -0.3898
   41CHL1  H23A 4200   6.565   5.527   4.476 -0.5638 -0.6414 -0.3897
   41CHL1  H23B 4201   6.742   5.525   4.521 -0.6504  1.1316  0.3224
   41CHL1   C24 4202   6.687   5.387   4.379 -0.4328  0.5100 -0.5001
   41CHL1  H24A 4203   6.775   5.326   4.410 -0.6895 -0.5749 -1.8046
   41CHL1  H24B 4204   6.601   5.322   4.351  0.7982 -1.2617 -0.3234
   41CHL1   C25 4205   6.716   5.467   4.250 -0.1317  0.2875 -0.0670
   41CHL1   H25 4206   6.796   5.541   4.271 -2.4313  2.4380  1.8994
   41CHL1   C26 4207   6.744   5.365   4.144 -0.1028 -0.1823  0.6534
   41CHL1  H26A 4208   6.807   5.403   4.060 -2.3438  1.5069 -0.3450
   41CHL1  H26B 4209   6.800   5.281   4.190 -0.1542 -0.6369 -0.0886
   41CHL1  H26C 4210   6.648   5.323   4.108  0.5558 -1.0330 -0.1783
   41CHL1   C27 4211   6.596   5.562   4.211 -0.1198 -0.0583  0.4195
   41CHL1  H27A 4212   6.611   5.605   4.110 -0.0312  1.3000  0.9750
   41CHL1  H27B 4213   6.499   5.509   4.216 -1.4101  2.0828 -0.4743
   41CHL1  H27C 4214   6.605   5.645   4.285  1.0944 -0.9410  1.2876
   42CHL1    C3 4215   5.574   0.024   5.900  0.3188  0.0851  0.5816
   42CHL1    H3 4216   5.536   0.124   5.870 -2.3420 -0.5862  1.4663
   42CHL1    O3 4217   5.574   0.009   6.042 -0.2610  0.3168  0.2168
   42CHL1   H3' 4218   5.481   0.018   6.066 -0.6905  0.3687 -1.3406
   42CHL1    C4 4219   5.496  -0.092   5.830  0.2367 -0.1174  0.3788
   42CHL1   H4A 4220   5.519  -0.185   5.886 -0.5024  0.5441  1.8463
   42CHL1   H4B 4221   5.390  -0.072   5.856  0.0258 -1.9402  1.0661
   42CHL1    C5 4222   5.509  -0.106   5.675  0.0412  0.6611 -0.3778
   42CHL1    C6 4223   5.399  -0.105   5.598 -0.4414 -0.4643 -0.6721
   42CHL1    H6 4224   5.303  -0.095   5.651  0.3986  2.6422  0.4453
   42CHL1    C7 4225   5.395  -0.113   5.449 -0.0413  0.0515 -0.0259
   42CHL1   H7A 4226   5.320  -0.192   5.427 -1.3042  0.8240  1.3102
   42CHL1   H7B 4227   5.360  -0.018   5.404  0.4076  0.2075 -0.0516
   42CHL1    C8 4228   5.534  -0.150   5.390 -0.1668 -0.2547  0.3299
   42CHL1    H8 4229   5.536  -0.261   5.405  2.8958 -0.1997  0.8785
   42CHL1   C14 4230   5.530  -0.114   5.244  0.0010  0.1662  0.5332
   42CHL1   H14 4231   5.508  -0.005   5.248 -0.2774  0.1488 -0.3127
   42CHL1   C15 4232   5.420  -0.173   5.146  0.1618  0.0415  0.4989
   42CHL1  H15A 4233   5.399  -0.279   5.171 -0.1496 -0.1702 -0.6018
   42CHL1  H15B 4234   5.329  -0.115   5.172  0.9946  1.4864  0.3159
   42CHL1   C16 4235   5.481  -0.152   5.004 -0.1629 -0.6184 -0.2868
   42CHL1  H16A 4236   5.507  -0.248   4.956 -0.5187 -0.1797 -1.3969
   42CHL1  H16B 4237   5.432  -0.080   4.935  2.6691  1.2691 -0.5135
   42CHL1   C17 4238   5.624  -0.090   5.026  0.2902 -0.0922  0.1061
   42CHL1   H17 4239   5.598   0.016   5.047 -2.2455 -0.4354 -0.8853
   42CHL1   C13 4240   5.660  -0.136   5.170  0.0259 -0.5356 -0.3352
   42CHL1   C18 4241   5.683  -0.288   5.169  0.3046 -0.1271 -0.2849
   42CHL1  H18A 4242   5.674  -0.330   5.271 -1.6779 -0.7476 -0.6662
   42CHL1  H18B 4243   5.603  -0.344   5.114  2.6723 -1.6215 -2.4330
   42CHL1  H18C 4244   5.784  -0.312   5.130 -0.6784  0.1268 -3.3040
   42CHL1   C12 4245   5.772  -0.062   5.242  0.5140 -0.3088 -0.1084
   42CHL1  H12A 4246   5.866  -0.083   5.186  0.5884  0.2990 -0.2214
   42CHL1  H12B 4247   5.748   0.045   5.225 -1.4748 -0.7418 -0.1847
   42CHL1   C11 4248   5.783  -0.079   5.396 -0.4595  0.1858  0.2272
   42CHL1  H11A 4249   5.824  -0.183   5.403 -1.3276 -0.1699  0.1096
   42CHL1  H11B 4250   5.859  -0.013   5.443 -0.0243  2.0011 -2.7852
   42CHL1    C9 4251   5.647  -0.070   5.464 -0.0421 -0.1571 -0.6816
   42CHL1    H9 4252   5.619   0.037   5.453  2.3560  0.9738  2.7778
   42CHL1   C10 4253   5.651  -0.098   5.622  1.0914 -0.2071 -0.0779
   42CHL1   C19 4254   5.725  -0.229   5.655 -0.1426  0.6643 -0.0327
   42CHL1  H19A 4255   5.678  -0.322   5.618 -0.3266 -0.5401  2.9743
   42CHL1  H19B 4256   5.826  -0.233   5.608 -1.1234  1.2062 -2.3210
   42CHL1  H19C 4257   5.732  -0.251   5.763 -2.1900 -0.0662 -0.0036
   42CHL1    C1 4258   5.721   0.016   5.698  0.9904  0.2291  0.2695
   42CHL1   H1A 4259   5.818   0.038   5.648 -0.4446  2.3290 -1.8154
   42CHL1   H1B 4260   5.663   0.105   5.663 -0.5525 -0.7690  0.2171
   42CHL1    C2 4261   5.721   0.003   5.853 -0.7360  0.1116  0.5444
   42CHL1   H2A 4262   5.784   0.084   5.895  0.9389 -1.2732  0.8411
   42CHL1   H2B 4263   5.769  -0.092   5.885  1.7116  0.4887 -1.6374
   42CHL1   C20 4264   5.732  -0.103   4.918 -0.4557 -0.2223  0.3380
   42CHL1   H20 4265   5.802  -0.186   4.942  0.3089  0.9649  2.4419
   42CHL1   C21 4266   5.810   0.026   4.926  0.1858 -0.6304  0.5001
   42CHL1  H21A 4267   5.894   0.048   4.856 -1.6979  1.9744 -1.1575
   42CHL1  H21B 4268   5.846   0.041   5.030 -0.8728 -1.1330  0.9498
   42CHL1  H21C 4269   5.743   0.114   4.916 -3.0355 -2.5536  3.3413
   42CHL1   C22 4270   5.664  -0.121   4.778 -0.2043 -0.3575  0.2918
   42CHL1  H22A 4271   5.601  -0.212   4.781  0.4657 -0.8243  0.5513
   42CHL1  H22B 4272   5.595  -0.037   4.756  1.2254  0.6920 -0.4284
   42CHL1   C23 4273   5.769  -0.121   4.667  0.0911 -0.3466  0.0107
   42CHL1  H23A 4274   5.816  -0.021   4.652  0.3599 -0.3158  1.0002
   42CHL1  H23B 4275   5.855  -0.188   4.689 -0.7534 -1.2673  0.5787
   42CHL1   C24 4276   5.707  -0.170   4.537  0.0406  0.2110  0.4258
   42CHL1  H24A 4277   5.699  -0.281   4.535 -2.7729  0.3580 -0.1151
   42CHL1  H24B 4278   5.604  -0.131   4.527 -0.2303  0.0256  2.1623
   42CHL1   C25 4279   5.787  -0.120   4.408  0.3431 -0.3345  0.2463
   42CHL1   H25 4280   5.735  -0.174   4.326 -0.5976  1.2546 -0.2627
   42CHL1   C26 4281   5.758   0.024   4.384  0.4334  0.6399 -0.1193
   42CHL1  H26A 4282   5.652   0.051   4.402  0.3890  0.8833 -0.7208
   42CHL1  H26B 4283   5.823   0.080   4.455  1.6993  0.5522 -1.1737
   42CHL1  H26C 4284   5.779   0.049   4.277  1.3424 -2.4233 -0.7432
   42CHL1   C27 4285   5.941  -0.150   4.406 -0.0404 -0.4751  0.4636
   42CHL1  H27A 4286   5.965  -0.258   4.409  0.8260 -0.4356 -2.4675
   42CHL1  H27B 4287   5.986  -0.122   4.309 -0.0490 -0.6128  0.4209
   42CHL1  H27C 4288   5.985  -0.085   4.485 -1.5232  1.2017  0.0043
   43CHL1    C3 4289   6.120   3.068   5.968  0.0731 -0.3561 -0.2810
   43CHL1    H3 4290   6.147   3.174   5.952 -0.2624 -0.4479 -1.6167
   43CHL1    O3 4291   6.069   3.049   6.099  0.3522 -0.3459 -0.4570
   43CHL1   H3' 4292   6.143   3.051   6.160 -1.4475 -0.1719  1.8759
   43CHL1    C4 4293   6.006   3.044   5.867  0.2720  0.2480  0.4969
   43CHL1   H4A 4294   5.972   2.943   5.896  0.8593 -0.6452 -1.6877
   43CHL1   H4B 4295   5.922   3.112   5.892  0.9052  0.6679  1.5443
   43CHL1    C5 4296   6.058   3.050   5.725  0.6944 -0.1480 -0.4328
   43CHL1    C6 4297   5.996   3.129   5.636 -0.7108  0.1589 -0.2967
   43CHL1    H6 4298   5.903   3.180   5.666 -1.1472 -0.2480 -0.9356
   43CHL1    C7 4299   6.040   3.135   5.493 -0.6820  0.4624  0.4330
   43CHL1   H7A 4300   5.947   3.111   5.439 -0.9177 -2.3991  1.9142
   43CHL1   H7B 4301   6.077   3.237   5.470 -1.0357  1.0618  2.3275
   43CHL1    C8 4302   6.145   3.031   5.446 -0.3163 -0.2071  0.4985
   43CHL1    H8 4303   6.089   2.939   5.417  1.2362 -0.9359 -0.3122
   43CHL1   C14 4304   6.223   3.096   5.326 -0.2368 -0.6474 -0.2756
   43CHL1   H14 4305   6.269   3.190   5.364 -0.2916  0.0053 -1.7862
   43CHL1   C15 4306   6.139   3.130   5.204 -0.0051  0.2068  1.1250
   43CHL1  H15A 4307   6.050   3.064   5.192 -0.2367  0.9888 -2.9943
   43CHL1  H15B 4308   6.096   3.233   5.202  1.2964  0.7548  0.2988
   43CHL1   C16 4309   6.234   3.119   5.080  0.6029  0.3071  0.4416
   43CHL1  H16A 4310   6.202   3.044   5.005  1.2945 -1.0661  1.4600
   43CHL1  H16B 4311   6.231   3.218   5.030 -1.4198 -0.1174 -0.3325
   43CHL1   C17 4312   6.371   3.081   5.145  0.4666  0.2276 -0.8650
   43CHL1   H17 4313   6.415   3.177   5.182 -1.7637  1.5231 -1.3984
   43CHL1   C13 4314   6.328   3.004   5.276  0.0543  0.1452  1.0158
   43CHL1   C18 4315   6.278   2.867   5.236  0.2477 -0.0844  0.3783
   43CHL1  H18A 4316   6.358   2.802   5.195  1.5204  1.6196  0.0120
   43CHL1  H18B 4317   6.221   2.807   5.311 -2.4900 -1.7516 -2.7813
   43CHL1  H18C 4318   6.214   2.872   5.145  1.5146 -1.1270 -0.6057
   43CHL1   C12 4319   6.431   2.982   5.382  0.3641 -0.1698  0.1318
   43CHL1  H12A 4320   6.509   2.912   5.348  0.4847 -0.0035  0.0622
   43CHL1  H12B 4321   6.476   3.077   5.417 -1.2921  0.8717 -0.4077
   43CHL1   C11 4322   6.365   2.924   5.501 -0.7303 -0.3509 -0.0655
   43CHL1  H11A 4323   6.330   2.820   5.489  1.3731 -0.9512 -1.4602
   43CHL1  H11B 4324   6.443   2.923   5.581  2.3947  1.4227 -2.8351
   43CHL1    C9 4325   6.250   3.009   5.556 -0.1739 -0.0963 -0.5838
   43CHL1    H9 4326   6.304   3.106   5.565  0.8792 -0.6386 -0.9455
   43CHL1   C10 4327   6.185   2.972   5.690 -0.3648 -0.4070  0.2903
   43CHL1   C19 4328   6.173   2.819   5.689  0.0075  0.6401  0.1694
   43CHL1  H19A 4329   6.268   2.762   5.681  1.1208  1.7019  3.8894
   43CHL1  H19B 4330   6.128   2.777   5.781 -1.1773 -1.0012 -1.0904
   43CHL1  H19C 4331   6.100   2.790   5.611  0.1518 -3.5979  1.3583
   43CHL1    C1 4332   6.288   3.010   5.797 -0.3394 -0.7278 -0.3359
   43CHL1   H1A 4333   6.379   2.952   5.770  1.9189  1.4030  2.1194
   43CHL1   H1B 4334   6.322   3.116   5.792 -0.5790 -0.5359  1.2785
   43CHL1    C2 4335   6.243   2.981   5.940  0.0053  1.1979  0.0972
   43CHL1   H2A 4336   6.328   3.002   6.009  0.5210 -2.9060  0.9788
   43CHL1   H2B 4337   6.235   2.872   5.960  1.8914  0.4083 -2.7565
   43CHL1   C20 4338   6.476   3.024   5.048  0.4558  1.1587  0.2688
   43CHL1   H20 4339   6.464   2.915   5.031  0.7966  1.0513  0.6992
   43CHL1   C21 4340   6.610   3.032   5.110  0.1783 -0.3136  0.0557
   43CHL1  H21A 4341   6.618   2.978   5.207  0.2909 -0.1491  0.1392
   43CHL1  H21B 4342   6.636   3.140   5.124  0.0153 -0.4228  1.3690
   43CHL1  H21C 4343   6.678   2.978   5.041 -0.9259 -1.2712 -0.3001
   43CHL1   C22 4344   6.476   3.099   4.915 -0.0110 -0.2182  0.5283
   43CHL1  H22A 4345   6.380   3.097   4.860  1.2447  1.0033 -1.8408
   43CHL1  H22B 4346   6.499   3.207   4.930  1.5778  0.0465 -2.8962
   43CHL1   C23 4347   6.577   3.046   4.809  0.0782  0.2557 -0.0262
   43CHL1  H23A 4348   6.679   3.065   4.848 -0.2239 -2.2689  2.2779
   43CHL1  H23B 4349   6.574   2.936   4.819 -0.1944  0.4022  1.9439
   43CHL1   C24 4350   6.541   3.109   4.670 -0.1322 -0.5005 -0.4784
   43CHL1  H24A 4351   6.436   3.079   4.651 -0.9975  2.2330 -0.4381
   43CHL1  H24B 4352   6.546   3.220   4.671 -2.2773 -0.3087  2.5871
   43CHL1   C25 4353   6.634   3.050   4.557 -0.4749 -0.3234 -0.0476
   43CHL1   H25 4354   6.641   2.941   4.576  0.6814 -0.0115  1.5000
   43CHL1   C26 4355   6.559   3.070   4.431  0.0793  0.4598 -0.1437
   43CHL1  H26A 4356   6.465   3.010   4.428  0.8350 -0.7391 -1.8020
   43CHL1  H26B 4357   6.523   3.175   4.426 -0.9121  0.1249 -0.3022
   43CHL1  H26C 4358   6.624   3.056   4.342  1.0298 -0.8998  0.7441
   43CHL1   C27 4359   6.770   3.112   4.565 -0.0240  0.3850  0.2008
   43CHL1  H27A 4360   6.839   3.070   4.489  1.2060 -0.7699  1.8677
   43CHL1  H27B 4361   6.769   3.222   4.553  1.4471  0.2883 -1.0411
   43CHL1  H27C 4362   6.820   3.094   4.663 -0.0953  1.1351  0.3776
   44CHL1    C3 4363   0.004   3.901   5.603 -0.7296 -0.1753  0.0068
   44CHL1    H3 4364   0.057   3.808   5.573  2.5901  0.9302  1.9179
   44CHL1    O3 4365   0.031   3.915   5.738 -0.6629  0.4223  0.1306
   44CHL1   H3' 4366   0.005   3.842   5.794 -0.7741  1.0658  0.9383
   44CHL1    C4 4367   0.051   4.029   5.531 -0.4128 -1.0289 -0.1613
   44CHL1   H4A 4368  -0.002   4.118   5.571  0.4559 -1.0011  0.9830
   44CHL1   H4B 4369   0.155   4.048   5.564 -1.3095  0.4738  2.0220
   44CHL1    C5 4370   0.033   4.007   5.385  0.2900  0.6246  0.4610
   44CHL1    C6 4371   0.139   4.002   5.306 -0.0119 -0.1335  0.1794
   44CHL1    H6 4372   0.239   4.034   5.340  0.2232 -1.0625  0.3726
   44CHL1    C7 4373   0.135   3.999   5.150 -0.0662  0.1881  0.6809
   44CHL1   H7A 4374   0.198   4.079   5.106  0.0157 -0.6906 -0.8417
   44CHL1   H7B 4375   0.173   3.903   5.110 -0.1164 -0.1005  1.2997
   44CHL1    C8 4376  -0.012   4.025   5.102 -0.6772  0.5283  0.5970
   44CHL1    H8 4377  -0.033   4.134   5.106  1.3307  1.0765 -1.4032
   44CHL1   C14 4378  -0.014   3.980   4.957  0.6441  0.2732 -0.3244
   44CHL1   H14 4379   0.014   3.873   4.958 -0.1379  0.0534  1.0313
   44CHL1   C15 4380   0.072   4.042   4.850  0.4010 -0.1097  0.0329
   44CHL1  H15A 4381   0.059   4.152   4.854  0.6834  0.0655 -2.3871
   44CHL1  H15B 4382   0.179   4.021   4.872  0.2911 -0.9105 -0.1344
   44CHL1   C16 4383   0.015   3.988   4.720  0.2062 -0.6086 -0.1520
   44CHL1  H16A 4384   0.013   4.070   4.645  3.0489 -0.8990 -0.6465
   44CHL1  H16B 4385   0.082   3.904   4.694  2.6327  0.6031  1.7079
   44CHL1   C17 4386  -0.129   3.938   4.750 -0.0354 -0.0127  0.1948
   44CHL1   H17 4387  -0.113   3.828   4.748  1.1775  0.1643 -0.7565
   44CHL1   C13 4388  -0.158   3.977   4.894  0.0663 -0.2718 -0.5677
   44CHL1   C18 4389  -0.207   4.124   4.895 -1.3192 -0.1904 -0.4835
   44CHL1  H18A 4390  -0.150   4.188   4.824  3.4988 -1.4160  1.8855
   44CHL1  H18B 4391  -0.313   4.125   4.860 -1.3671 -0.7117 -0.3719
   44CHL1  H18C 4392  -0.210   4.163   4.999 -2.5429  0.7004 -0.8273
   44CHL1   C12 4393  -0.248   3.882   4.981 -0.0377 -0.5456 -0.2648
   44CHL1  H12A 4394  -0.345   3.886   4.927 -0.2463  0.0520  0.1500
   44CHL1  H12B 4395  -0.209   3.778   4.974  0.5900 -0.3547  0.3391
   44CHL1   C11 4396  -0.253   3.923   5.130  0.6686  0.3078  0.9687
   44CHL1  H11A 4397  -0.304   4.022   5.130  1.1203  0.5525  0.0812
   44CHL1  H11B 4398  -0.319   3.856   5.189  0.5734  0.6196  1.2199
   44CHL1    C9 4399  -0.109   3.940   5.189  0.4745  0.1200  0.4198
   44CHL1    H9 4400  -0.069   3.837   5.189 -2.4496 -1.1059 -0.2618
   44CHL1   C10 4401  -0.115   3.976   5.343 -0.6491  0.1205 -0.5925
   44CHL1   C19 4402  -0.207   4.100   5.364 -0.4102  0.2968  0.2204
   44CHL1  H19A 4403  -0.311   4.062   5.350 -0.4788  0.5632  0.0104
   44CHL1  H19B 4404  -0.191   4.153   5.460  2.6268  1.1086 -0.6245
   44CHL1  H19C 4405  -0.195   4.176   5.284 -2.0999  0.4526  0.0849
   44CHL1    C1 4406  -0.172   3.869   5.433 -0.1758  0.0527  0.2660
   44CHL1   H1A 4407  -0.279   3.847   5.415  0.4322 -0.8460 -3.0228
   44CHL1   H1B 4408  -0.129   3.774   5.395  1.0625 -0.4274  2.6396
   44CHL1    C2 4409  -0.144   3.881   5.579  0.4162  0.1822 -1.3438
   44CHL1   H2A 4410  -0.180   3.788   5.628  1.4100  0.3804 -0.1881
   44CHL1   H2B 4411  -0.193   3.970   5.624 -1.5644 -1.4226 -0.1527
   44CHL1   C20 4412  -0.225   3.983   4.633 -0.0368  0.2177 -0.9312
   44CHL1   H20 4413  -0.213   4.092   4.620 -1.4126  0.5444  0.3647
   44CHL1   C21 4414  -0.370   3.937   4.658 -0.6031  0.4934  0.4723
   44CHL1  H21A 4415  -0.438   3.953   4.572 -1.9732  2.0208  1.7465
   44CHL1  H21B 4416  -0.415   3.985   4.748  0.3154 -1.2145  1.9179
   44CHL1  H21C 4417  -0.372   3.827   4.673  1.5134  0.1950 -0.9426
   44CHL1   C22 4418  -0.181   3.915   4.501 -0.0317 -0.5378  0.2850
   44CHL1  H22A 4419  -0.089   3.962   4.460 -1.7550  1.8093 -1.1292
   44CHL1  H22B 4420  -0.169   3.808   4.527  1.2781 -0.5513 -0.2776
   44CHL1   C23 4421  -0.278   3.933   4.376 -0.0422 -0.2598 -0.1400
   44CHL1  H23A 4422  -0.352   3.850   4.386  1.9911 -1.9324  2.2755
   44CHL1  H23B 4423  -0.328   4.032   4.383 -0.6740 -0.5197 -0.8255
   44CHL1   C24 4424  -0.204   3.915   4.240 -0.2062  0.2510 -0.8510
   44CHL1  H24A 4425  -0.125   3.990   4.222  1.6834 -1.6355 -0.8402
   44CHL1  H24B 4426  -0.155   3.815   4.237 -0.7330 -0.1078  1.0507
   44CHL1   C25 4427  -0.296   3.949   4.120 -0.1830  0.3741  0.5045
   44CHL1   H25 4428  -0.376   3.873   4.108 -0.8865  1.3685 -1.5369
   44CHL1   C26 4429  -0.357   4.087   4.110 -1.3271  0.1494 -0.2462
   44CHL1  H26A 4430  -0.421   4.114   4.196 -1.5935 -1.1829 -0.0090
   44CHL1  H26B 4431  -0.278   4.163   4.093 -1.5601  0.4896  0.1842
   44CHL1  H26C 4432  -0.421   4.068   4.021 -0.9154 -0.8090 -0.3539
   44CHL1   C27 4433  -0.202   3.915   3.999 -0.5514  0.5004 -0.1317
   44CHL1  H27A 4434  -0.121   3.990   3.990 -0.5475  0.4082 -0.9680
   44CHL1  H27B 4435  -0.148   3.819   4.010  0.7335  1.0511 -1.3230
   44CHL1  H27C 4436  -0.255   3.910   3.901  0.4465  0.6527 -0.6943
   45CHL1    C3 4437   6.752   4.665   5.896 -0.3142  0.1153  0.3377
   45CHL1    H3 4438   6.667   4.594   5.890  0.8447 -1.4363  1.5419
   45CHL1    O3 4439   6.776   4.694   6.032  0.5343  0.1185  0.0469
   45CHL1   H3' 4440   6.783   4.790   6.035 -0.3582  0.2952 -1.9861
   45CHL1    C4 4441   6.879   4.620   5.830 -0.3469 -0.0819 -0.3418
   45CHL1   H4A 4442   6.956   4.699   5.845 -0.3798 -0.3411  1.4780
   45CHL1   H4B 4443   6.909   4.530   5.889 -3.0165 -1.1696 -0.4935
   45CHL1    C5 4444   6.864   4.585   5.678  0.1750  0.5187  0.2302
   45CHL1    C6 4445   6.892   4.456   5.628 -0.4698 -0.8407  0.4514
   45CHL1    H6 4446   6.936   4.378   5.691  0.0077 -2.2549 -1.5295
   45CHL1    C7 4447   6.878   4.424   5.481  0.1463 -0.5010  1.1349
   45CHL1   H7A 4448   6.978   4.387   5.450  1.1856  1.3104  2.1325
   45CHL1   H7B 4449   6.809   4.339   5.467 -0.5173 -0.0144  1.3757
   45CHL1    C8 4450   6.840   4.548   5.396 -0.9355  0.4640  0.1520
   45CHL1    H8 4451   6.938   4.598   5.386 -0.2533 -1.0009 -0.8280
   45CHL1   C14 4452   6.780   4.513   5.262 -0.6538 -0.0342  0.6617
   45CHL1   H14 4453   6.683   4.461   5.283 -0.7186  0.3476  1.3504
   45CHL1   C15 4454   6.869   4.423   5.170 -0.4215 -0.0037  0.7547
   45CHL1  H15A 4455   6.978   4.440   5.155 -0.6438 -0.3259 -1.4394
   45CHL1  H15B 4456   6.870   4.321   5.215  0.8247 -0.0182  0.7448
   45CHL1   C16 4457   6.797   4.429   5.040  0.3275  0.0915  0.9618
   45CHL1  H16A 4458   6.862   4.416   4.951  1.7973 -0.4803  2.0686
   45CHL1  H16B 4459   6.732   4.339   5.038  2.1635 -1.3067  1.2481
   45CHL1   C17 4460   6.708   4.558   5.038  0.1522 -0.0506 -0.3905
   45CHL1   H17 4461   6.604   4.520   5.047  0.8682 -1.9217  0.5056
   45CHL1   C13 4462   6.748   4.634   5.174  0.7261 -0.3920  0.9661
   45CHL1   C18 4463   6.873   4.717   5.142  0.1470  0.2803  0.2415
   45CHL1  H18A 4464   6.851   4.808   5.082  0.7949  0.3499  0.0971
   45CHL1  H18B 4465   6.919   4.754   5.236  0.2993  1.0419 -0.1188
   45CHL1  H18C 4466   6.943   4.661   5.077 -0.5999  1.1963 -1.4168
   45CHL1   C12 4467   6.637   4.713   5.247 -0.5254 -0.0159 -0.5973
   45CHL1  H12A 4468   6.587   4.786   5.180  0.1987 -0.6979 -1.9358
   45CHL1  H12B 4469   6.557   4.636   5.256 -1.0105  0.4841 -0.5698
   45CHL1   C11 4470   6.674   4.761   5.384 -0.0119 -0.3499  0.2259
   45CHL1  H11A 4471   6.746   4.845   5.372  0.0861 -0.2132  1.6575
   45CHL1  H11B 4472   6.582   4.790   5.438 -0.8569  0.4157 -1.5539
   45CHL1    C9 4473   6.742   4.644   5.466 -0.1952  0.4792  0.0146
   45CHL1    H9 4474   6.660   4.572   5.490  0.5283 -0.4921 -0.3375
   45CHL1   C10 4475   6.793   4.701   5.604  0.2641 -0.5389 -0.2784
   45CHL1   C19 4476   6.882   4.821   5.576  0.3348 -0.5153 -0.1894
   45CHL1  H19A 4477   6.922   4.865   5.671 -1.2756  3.0317 -1.0037
   45CHL1  H19B 4478   6.975   4.804   5.517  0.0503 -1.9387 -0.2645
   45CHL1  H19C 4479   6.827   4.909   5.538  0.0042 -0.8927 -0.5938
   45CHL1    C1 4480   6.671   4.752   5.689  0.8613  0.5268  0.1745
   45CHL1   H1A 4481   6.632   4.845   5.643 -2.6700 -0.4846  0.8081
   45CHL1   H1B 4482   6.584   4.683   5.681  1.5793 -0.3894  0.1790
   45CHL1    C2 4483   6.693   4.786   5.832 -0.3097  0.1934 -0.0840
   45CHL1   H2A 4484   6.597   4.817   5.878  0.0110  0.4012  0.4532
   45CHL1   H2B 4485   6.767   4.869   5.833 -2.6543  2.3800  0.9528
   45CHL1   C20 4486   6.720   4.635   4.898 -0.8504 -0.2164 -0.5925
   45CHL1   H20 4487   6.828   4.654   4.883 -0.5334 -0.4483  1.1728
   45CHL1   C21 4488   6.646   4.768   4.898 -0.1861  0.6041  0.7780
   45CHL1  H21A 4489   6.538   4.752   4.919 -0.1647 -0.7934 -0.0370
   45CHL1  H21B 4490   6.647   4.809   4.795 -0.4267 -0.3485  0.3929
   45CHL1  H21C 4491   6.679   4.844   4.972  0.2463 -0.1413  1.3720
   45CHL1   C22 4492   6.671   4.535   4.790 -0.3864 -0.3197  0.3744
   45CHL1  H22A 4493   6.689   4.427   4.803 -0.8612 -0.4652 -0.1179
   45CHL1  H22B 4494   6.560   4.545   4.782 -0.2313  1.4625 -0.1449
   45CHL1   C23 4495   6.732   4.583   4.656  0.6636  0.7238  0.0782
   45CHL1  H23A 4496   6.722   4.693   4.649  0.0268  0.6344 -0.4825
   45CHL1  H23B 4497   6.842   4.570   4.645  0.7693  2.6431 -1.7327
   45CHL1   C24 4498   6.667   4.513   4.530 -0.5950 -0.1164  0.4608
   45CHL1  H24A 4499   6.692   4.405   4.542  0.2159  0.1478  1.3022
   45CHL1  H24B 4500   6.558   4.524   4.547 -1.4313 -0.4367 -3.6992
   45CHL1   C25 4501   6.695   4.584   4.395  0.7912 -0.2517  0.1157
   45CHL1   H25 4502   6.708   4.692   4.420  1.0769 -0.4193  0.7072
   45CHL1   C26 4503   6.823   4.542   4.324 -0.2534  0.0383  0.2988
   45CHL1  H26A 4504   6.904   4.554   4.399 -0.9789  2.1080  0.8138
   45CHL1  H26B 4505   6.808   4.433   4.315  1.1933 -0.0717 -1.3888
   45CHL1  H26C 4506   6.838   4.595   4.227  1.1140  2.1602  1.6008
   45CHL1   C27 4507   6.579   4.573   4.297 -0.0301 -0.7835 -0.7975
   45CHL1  H27A 4508   6.490   4.625   4.340  1.6969  0.4441  1.5450
   45CHL1  H27B 4509   6.608   4.620   4.201  1.3619 -2.1914 -1.1125
   45CHL1  H27C 4510   6.564   4.463   4.289  3.7476 -1.3804 -1.2506
   46CHL1    C3 4511   1.546   6.072   6.053 -0.3011 -0.4560  0.0103
   46CHL1    H3 4512   1.505   6.170   6.021  0.0102 -0.8405 -1.6337
   46CHL1    O3 4513   1.561   6.080   6.195  0.4846 -0.7762  0.4985
   46CHL1   H3' 4514   1.489   6.036   6.239  0.5196  0.0120  1.3794
   46CHL1    C4 4515   1.462   5.952   6.022 -0.9357 -0.0412 -0.1522
   46CHL1   H4A 4516   1.506   5.858   6.064 -1.5030  0.4064  1.5482
   46CHL1   H4B 4517   1.363   5.960   6.072 -1.7411  1.4287 -1.8633
   46CHL1    C5 4518   1.429   5.937   5.872  0.6352 -0.5249 -0.4584
   46CHL1    C6 4519   1.299   5.929   5.832  0.0821 -0.5919 -0.1906
   46CHL1    H6 4520   1.213   5.927   5.901 -0.0798 -0.6088 -0.3933
   46CHL1    C7 4521   1.262   5.928   5.689  0.2989 -0.3086  0.6107
   46CHL1   H7A 4522   1.188   5.849   5.665  0.8093 -1.0432  1.4226
   46CHL1   H7B 4523   1.206   6.023   5.671 -2.3214 -1.9883 -0.7445
   46CHL1    C8 4524   1.380   5.924   5.582  0.0209  0.5789  0.2859
   46CHL1    H8 4525   1.415   5.819   5.577  0.9018  0.8180  1.1524
   46CHL1   C14 4526   1.336   5.961   5.441 -0.1976  0.0688  0.3089
   46CHL1   H14 4527   1.305   6.067   5.453  3.6517  1.5032 -0.6437
   46CHL1   C15 4528   1.216   5.887   5.372  0.2508  0.7397  0.1007
   46CHL1  H15A 4529   1.216   5.776   5.382  1.7577  0.6493 -0.4893
   46CHL1  H15B 4530   1.126   5.936   5.413  2.1246  4.2775  0.4278
   46CHL1   C16 4531   1.237   5.912   5.221  0.1860 -0.3804 -0.7703
   46CHL1  H16A 4532   1.255   5.817   5.166  1.5796  0.1682 -1.2991
   46CHL1  H16B 4533   1.150   5.964   5.175 -0.3363  0.3037  0.8972
   46CHL1   C17 4534   1.374   5.986   5.207  0.1444  1.2151  0.0424
   46CHL1   H17 4535   1.337   6.091   5.203 -0.7966  0.8646 -1.3417
   46CHL1   C13 4536   1.448   5.959   5.337 -0.3018 -1.0675 -0.7951
   46CHL1   C18 4537   1.515   5.819   5.333 -0.2267  0.2867  0.4259
   46CHL1  H18A 4538   1.442   5.736   5.327 -0.5442  0.6269 -0.6332
   46CHL1  H18B 4539   1.586   5.802   5.249  1.5863  0.0061  1.9225
   46CHL1  H18C 4540   1.590   5.794   5.412 -0.3604 -2.7425 -0.2991
   46CHL1   C12 4541   1.545   6.071   5.385  0.4821  0.1737  0.6414
   46CHL1  H12A 4542   1.631   6.078   5.316  0.8528 -0.4518  1.0335
   46CHL1  H12B 4543   1.491   6.168   5.378 -1.9550 -1.1763 -0.7579
   46CHL1   C11 4544   1.596   6.050   5.529  0.0653 -0.2319 -0.0405
   46CHL1  H11A 4545   1.668   5.966   5.513  0.1872 -0.6713  2.4748
   46CHL1  H11B 4546   1.655   6.139   5.559 -0.5085 -0.7380  2.9550
   46CHL1    C9 4547   1.488   6.018   5.633 -0.3004 -1.3667  0.1981
   46CHL1    H9 4548   1.445   6.119   5.649  1.1464 -0.9314  1.7039
   46CHL1   C10 4549   1.544   5.969   5.772  0.7676 -0.5774  0.1129
   46CHL1   C19 4550   1.617   5.837   5.757 -0.5346  0.0633  1.2007
   46CHL1  H19A 4551   1.708   5.841   5.694 -1.5581 -2.1316 -0.5653
   46CHL1  H19B 4552   1.657   5.796   5.852 -1.0631 -0.0793  1.3652
   46CHL1  H19C 4553   1.553   5.752   5.725 -0.2964  0.8308 -1.5720
   46CHL1    C1 4554   1.648   6.072   5.834  0.2333  0.5360  0.0234
   46CHL1   H1A 4555   1.739   6.076   5.771  0.8529  0.9326  0.9243
   46CHL1   H1B 4556   1.600   6.171   5.822 -1.0171 -0.0556  0.0074
   46CHL1    C2 4557   1.676   6.064   5.978 -0.4008 -0.5220  0.0431
   46CHL1   H2A 4558   1.755   6.141   5.989  4.3269 -4.5500 -1.9778
   46CHL1   H2B 4559   1.730   5.969   6.000  1.8217  0.4708 -0.8456
   46CHL1   C20 4560   1.445   5.962   5.068 -0.2309  0.0436  0.0696
   46CHL1   H20 4561   1.480   5.857   5.074  0.2619  0.0535 -2.0477
   46CHL1   C21 4562   1.558   6.062   5.057  0.5450 -0.1607 -0.2483
   46CHL1  H21A 4563   1.542   6.162   5.103  1.0362  0.2910 -1.0275
   46CHL1  H21B 4564   1.589   6.083   4.953  0.2021  0.3761 -0.2495
   46CHL1  H21C 4565   1.647   6.013   5.103  0.8955 -0.7240 -1.4824
   46CHL1   C22 4566   1.353   5.966   4.950  0.7968 -0.4435 -0.4997
   46CHL1  H22A 4567   1.256   5.919   4.979 -0.0782  2.3029  1.5200
   46CHL1  H22B 4568   1.336   6.069   4.912  0.6559 -0.8633 -1.6029
   46CHL1   C23 4569   1.405   5.895   4.822 -0.7815 -0.0157  0.2649
   46CHL1  H23A 4570   1.492   5.957   4.792 -0.8434 -0.1128 -0.1143
   46CHL1  H23B 4571   1.439   5.790   4.838 -0.1247  0.4540  2.3262
   46CHL1   C24 4572   1.300   5.895   4.715 -0.2065  0.1594  0.8696
   46CHL1  H24A 4573   1.211   5.833   4.735  0.4050 -0.3468  2.0898
   46CHL1  H24B 4574   1.243   5.991   4.713 -2.5916 -1.1424  2.3844
   46CHL1   C25 4575   1.367   5.853   4.573  0.1818  0.6528 -0.2271
   46CHL1   H25 4576   1.455   5.916   4.551 -0.7478  1.4795 -1.7413
   46CHL1   C26 4577   1.412   5.704   4.572  1.0379  0.1405  0.0136
   46CHL1  H26A 4578   1.483   5.684   4.656  2.7461 -1.0205 -1.6442
   46CHL1  H26B 4579   1.324   5.637   4.583 -1.0202  2.7528  0.4256
   46CHL1  H26C 4580   1.463   5.672   4.479 -0.9972  0.2806 -1.2064
   46CHL1   C27 4581   1.267   5.867   4.454  0.1286 -0.1037 -0.4182
   46CHL1  H27A 4582   1.234   5.971   4.437  2.1910  0.7292  0.4146
   46CHL1  H27B 4583   1.316   5.833   4.360 -1.8733 -0.9358 -1.2198
   46CHL1  H27C 4584   1.174   5.810   4.477 -0.9799  1.5687 -0.5852
   47CHL1    C3 4585   2.826   5.600   6.014  0.1704 -0.3968 -0.2902
   47CHL1    H3 4586   2.909   5.529   5.993 -0.4718 -1.6227  1.1634
   47CHL1    O3 4587   2.809   5.609   6.156  0.1729  0.4052 -0.0131
   47CHL1   H3' 4588   2.722   5.647   6.166  0.5855  1.9185 -1.6477
   47CHL1    C4 4589   2.853   5.743   5.966 -1.1029 -0.1183  0.0821
   47CHL1   H4A 4590   2.760   5.799   5.990  0.0467  1.5753  0.8256
   47CHL1   H4B 4591   2.939   5.786   6.022  0.2328  1.0258 -2.6171
   47CHL1    C5 4592   2.879   5.745   5.819 -0.3228  0.4636 -0.0499
   47CHL1    C6 4593   2.997   5.788   5.769 -0.2926 -0.2012  0.3527
   47CHL1    H6 4594   3.071   5.834   5.836 -0.1955  0.7570 -0.3852
   47CHL1    C7 4595   3.017   5.798   5.619  0.5963 -0.2710 -0.1455
   47CHL1   H7A 4596   3.073   5.893   5.605 -1.4471  0.7617 -1.7605
   47CHL1   H7B 4597   3.100   5.732   5.586 -0.1300 -2.0819  1.4338
   47CHL1    C8 4598   2.892   5.786   5.533  0.4972  0.2435 -0.3448
   47CHL1    H8 4599   2.829   5.876   5.549  1.5376  1.4979 -2.6749
   47CHL1   C14 4600   2.932   5.773   5.379  0.0324  0.3141  0.2285
   47CHL1   H14 4601   2.996   5.682   5.382 -0.5080 -0.0564  1.6323
   47CHL1   C15 4602   3.021   5.885   5.322  0.2478 -0.0151 -0.2934
   47CHL1  H15A 4603   2.983   5.986   5.348 -1.0289 -1.1457  2.5476
   47CHL1  H15B 4604   3.118   5.888   5.376  0.1672  2.8506 -0.1831
   47CHL1   C16 4605   3.019   5.855   5.173  0.0893 -0.3101  0.8208
   47CHL1  H16A 4606   3.009   5.948   5.114 -0.3419 -0.7667  0.1660
   47CHL1  H16B 4607   3.115   5.804   5.152 -0.7106 -1.5912  0.1282
   47CHL1   C17 4608   2.907   5.745   5.148 -0.0267 -0.6901 -0.4442
   47CHL1   H17 4609   2.954   5.644   5.148 -0.5104 -0.9188 -0.4762
   47CHL1   C13 4610   2.822   5.749   5.283 -0.2341 -0.4205 -0.1272
   47CHL1   C18 4611   2.728   5.886   5.292 -0.5161 -0.1463  0.4955
   47CHL1  H18A 4612   2.636   5.873   5.232 -1.3567  0.8255  1.5332
   47CHL1  H18B 4613   2.691   5.900   5.396 -0.8963  0.1409  0.3195
   47CHL1  H18C 4614   2.784   5.969   5.244 -3.3858  2.1453  0.8622
   47CHL1   C12 4615   2.745   5.620   5.329 -0.3496 -0.6826 -0.4771
   47CHL1  H12A 4616   2.651   5.604   5.271 -0.4075 -0.6408 -0.3952
   47CHL1  H12B 4617   2.808   5.532   5.306 -0.1314 -1.2159  1.9323
   47CHL1   C11 4618   2.706   5.616   5.479 -0.0866  0.1939  0.4947
   47CHL1  H11A 4619   2.622   5.689   5.485  0.6633  1.0845  0.3526
   47CHL1  H11B 4620   2.666   5.519   5.516 -0.4275  0.0652 -0.1867
   47CHL1    C9 4621   2.811   5.665   5.587  0.6227  0.0865 -0.2540
   47CHL1    H9 4622   2.884   5.582   5.572  0.9632  0.2777  0.3083
   47CHL1   C10 4623   2.766   5.688   5.733  0.2917 -0.4238  0.5266
   47CHL1   C19 4624   2.644   5.782   5.738  0.2524  0.3319  0.7317
   47CHL1  H19A 4625   2.666   5.882   5.695  0.1218  0.3335  0.6660
   47CHL1  H19B 4626   2.561   5.741   5.676  0.9529 -1.1632  0.7435
   47CHL1  H19C 4627   2.607   5.799   5.841  0.0321 -2.7479  1.2496
   47CHL1    C1 4628   2.724   5.551   5.790  0.1473 -0.4443  0.2349
   47CHL1   H1A 4629   2.632   5.512   5.742  0.0236 -1.5921  1.3657
   47CHL1   H1B 4630   2.804   5.478   5.765  0.3284 -0.0199 -0.4763
   47CHL1    C2 4631   2.695   5.550   5.944 -0.2088  0.0537 -0.8112
   47CHL1   H2A 4632   2.680   5.447   5.982  0.5592  0.8057  1.7367
   47CHL1   H2B 4633   2.603   5.601   5.981 -2.1439 -2.4374 -1.8919
   47CHL1   C20 4634   2.833   5.771   5.021  0.3488  0.3091 -0.9267
   47CHL1   H20 4635   2.773   5.864   5.027 -0.5214 -0.3369  1.3369
   47CHL1   C21 4636   2.738   5.652   4.995 -0.3453 -0.1451 -0.2527
   47CHL1  H21A 4637   2.794   5.555   4.992 -0.9247 -0.5158  0.4335
   47CHL1  H21B 4638   2.680   5.670   4.903  0.6075  0.4023 -0.7607
   47CHL1  H21C 4639   2.660   5.648   5.074  1.0563  0.2800  1.2214
   47CHL1   C22 4640   2.925   5.793   4.899 -0.3598 -0.0488  0.0732
   47CHL1  H22A 4641   2.991   5.881   4.916 -1.8338  0.8715  1.1868
   47CHL1  H22B 4642   2.993   5.706   4.886 -0.3402  0.3601 -3.6843
   47CHL1   C23 4643   2.859   5.816   4.767 -0.6644 -0.3492  0.1360
   47CHL1  H23A 4644   2.796   5.729   4.736  1.2231 -0.6776 -3.2124
   47CHL1  H23B 4645   2.798   5.909   4.759  0.1789  0.5846  3.2934
   47CHL1   C24 4646   2.955   5.831   4.640  0.1027  0.6652  0.0303
   47CHL1  H24A 4647   3.010   5.925   4.661 -1.0184  1.0183  1.5401
   47CHL1  H24B 4648   3.022   5.742   4.635 -1.8614 -0.8093 -1.6567
   47CHL1   C25 4649   2.884   5.847   4.502  0.1749  0.1462  0.0234
   47CHL1   H25 4650   2.828   5.944   4.497 -0.1728 -0.0778 -0.6425
   47CHL1   C26 4651   2.983   5.858   4.389 -0.4666 -0.1015 -0.2226
   47CHL1  H26A 4652   3.042   5.765   4.406 -0.5602 -0.1030  0.0871
   47CHL1  H26B 4653   2.930   5.857   4.291 -2.1626  0.8824  0.6294
   47CHL1  H26C 4654   3.046   5.949   4.389  0.9791 -1.0677  1.0048
   47CHL1   C27 4655   2.782   5.743   4.465  0.1815 -0.4626  0.7406
   47CHL1  H27A 4656   2.830   5.642   4.472 -1.5170 -1.2921  0.8951
   47CHL1  H27B 4657   2.693   5.751   4.531 -0.6708 -0.9126 -0.3315
   47CHL1  H27C 4658   2.734   5.759   4.366  2.2493 -0.6564 -0.3500
   48CHL1    C3 4659   6.024   6.200   6.233  0.3897  0.2312 -0.8639
   48CHL1    H3 4660   6.052   6.094   6.220 -1.1535 -0.3751  0.5008
   48CHL1    O3 4661   6.023   6.237   6.368  0.6684  0.2432  0.4890
   48CHL1   H3' 4662   5.996   6.329   6.368 -1.4253 -0.2779 -1.0211
   48CHL1    C4 4663   6.129   6.292   6.168 -0.1487  0.3037  0.4357
   48CHL1   H4A 4664   6.099   6.399   6.174 -2.3292 -0.1783 -0.9864
   48CHL1   H4B 4665   6.230   6.277   6.213 -0.6965  0.7110  1.8395
   48CHL1    C5 4666   6.140   6.269   6.015  0.3596 -0.3290  0.0141
   48CHL1    C6 4667   6.253   6.229   5.953  0.5341  0.0183 -0.2382
   48CHL1    H6 4668   6.347   6.216   6.009 -0.0395  1.1944  1.0665
   48CHL1    C7 4669   6.270   6.201   5.807 -0.2451 -0.6266  0.3243
   48CHL1   H7A 4670   6.363   6.248   5.769 -0.4228  0.2121  0.9175
   48CHL1   H7B 4671   6.294   6.093   5.800  0.4416 -0.4016 -1.2949
   48CHL1    C8 4672   6.139   6.250   5.727 -1.0233 -0.2935  0.0566
   48CHL1    H8 4673   6.145   6.360   5.715 -0.1252 -0.3698 -0.3230
   48CHL1   C14 4674   6.136   6.189   5.588 -0.2272 -0.2838 -0.6277
   48CHL1   H14 4675   6.123   6.084   5.623 -0.3343  0.0161  0.2729
   48CHL1   C15 4676   6.256   6.214   5.494  0.6022  0.1377  0.0066
   48CHL1  H15A 4677   6.293   6.319   5.498 -1.4405  0.9947 -1.6939
   48CHL1  H15B 4678   6.348   6.157   5.518  1.3124  1.9284  1.8256
   48CHL1   C16 4679   6.192   6.190   5.351  0.0393  0.0550 -0.2625
   48CHL1  H16A 4680   6.205   6.291   5.305  1.4594  0.1399  0.2789
   48CHL1  H16B 4681   6.244   6.113   5.289  3.4073  1.5610  0.4396
   48CHL1   C17 4682   6.043   6.161   5.374 -0.3112 -0.4597  0.2893
   48CHL1   H17 4683   6.026   6.053   5.391  0.1334 -0.9027 -1.8221
   48CHL1   C13 4684   6.007   6.221   5.511 -0.2073  0.4401  1.0663
   48CHL1   C18 4685   5.988   6.377   5.489  0.6377  0.4883  0.1165
   48CHL1  H18A 4686   6.059   6.406   5.409  0.1778 -0.2876 -0.6036
   48CHL1  H18B 4687   5.889   6.417   5.458  0.3928  0.5334  0.9270
   48CHL1  H18C 4688   6.010   6.432   5.583  2.2257  0.6521 -0.3235
   48CHL1   C12 4689   5.899   6.157   5.587  0.1396 -0.2194  0.0243
   48CHL1  H12A 4690   5.803   6.178   5.536 -0.5831  0.9069  1.7805
   48CHL1  H12B 4691   5.916   6.047   5.592  1.6607 -0.0490 -0.6124
   48CHL1   C11 4692   5.883   6.228   5.720  0.3373 -0.0061  0.2647
   48CHL1  H11A 4693   5.847   6.332   5.702 -1.2896 -0.8310 -1.7119
   48CHL1  H11B 4694   5.802   6.174   5.773  1.3531 -0.1611  1.7099
   48CHL1    C9 4695   6.013   6.214   5.801  0.2563 -0.9840  0.7856
   48CHL1    H9 4696   6.032   6.105   5.814  1.8133 -0.6800  1.2865
   48CHL1   C10 4697   6.001   6.275   5.938 -0.1161 -0.2842  0.4923
   48CHL1   C19 4698   5.949   6.421   5.915  0.1844  0.2177 -0.1229
   48CHL1  H19A 4699   5.979   6.486   6.000  0.2512  0.2220 -0.1485
   48CHL1  H19B 4700   5.986   6.486   5.832  2.6919  1.4464  1.8093
   48CHL1  H19C 4701   5.839   6.414   5.907  0.2189  0.1474 -0.5671
   48CHL1    C1 4702   5.895   6.197   6.018  0.1300  0.1414  0.0181
   48CHL1   H1A 4703   5.797   6.189   5.967  0.0691 -4.1126  0.4292
   48CHL1   H1B 4704   5.926   6.090   6.016 -1.1729 -0.3314  2.0942
   48CHL1    C2 4705   5.887   6.227   6.171 -0.1141 -0.3054  0.1301
   48CHL1   H2A 4706   5.817   6.155   6.219  1.8170 -1.9175  0.6854
   48CHL1   H2B 4707   5.845   6.329   6.182 -0.3816 -0.4755  0.7319
   48CHL1   C20 4708   5.962   6.210   5.248  0.3941 -0.0965  0.3853
   48CHL1   H20 4709   5.966   6.321   5.247  0.2590  0.0040  3.2281
   48CHL1   C21 4710   5.815   6.170   5.268  0.8311  0.1828 -0.1142
   48CHL1  H21A 4711   5.761   6.251   5.321 -0.4391 -0.8243  0.1748
   48CHL1  H21B 4712   5.755   6.158   5.176 -1.2569  0.1466  1.1850
   48CHL1  H21C 4713   5.815   6.075   5.327 -2.4996  0.2076  0.1249
   48CHL1   C22 4714   6.017   6.166   5.111 -0.4726 -0.4723  0.3584
   48CHL1  H22A 4715   6.127   6.152   5.103 -0.1936  2.2583 -2.3965
   48CHL1  H22B 4716   5.963   6.077   5.070  0.4631  0.9432 -4.5678
   48CHL1   C23 4717   5.985   6.269   4.996  0.6939  0.0785  0.0301
   48CHL1  H23A 4718   5.876   6.287   5.008  1.3087  3.0157  2.4354
   48CHL1  H23B 4719   6.036   6.365   5.017  0.1111  0.7231 -1.3286
   48CHL1   C24 4720   6.021   6.234   4.851  0.0523 -0.0272 -0.4034
   48CHL1  H24A 4721   6.130   6.251   4.841  0.0260  1.4335  1.2475
   48CHL1  H24B 4722   6.001   6.125   4.839  1.4000 -0.7610  2.8124
   48CHL1   C25 4723   5.941   6.314   4.740 -0.5384  0.2457 -0.0424
   48CHL1   H25 4724   5.979   6.419   4.739  2.4984 -0.7205 -2.7086
   48CHL1   C26 4725   5.990   6.254   4.608  0.0871  0.0866 -0.1463
   48CHL1  H26A 4726   6.100   6.258   4.594  0.0067  1.1417 -0.4984
   48CHL1  H26B 4727   5.966   6.147   4.626  0.8510  0.1070  1.1252
   48CHL1  H26C 4728   5.931   6.292   4.522  0.5876 -0.7876 -0.9009
   48CHL1   C27 4729   5.787   6.294   4.756  0.0243  0.2395  0.3552
   48CHL1  H27A 4730   5.755   6.335   4.855 -0.8118  2.3726 -0.7428
   48CHL1  H27B 4731   5.739   6.353   4.676  1.2911 -2.5085 -2.6365
   48CHL1  H27C 4732   5.766   6.187   4.734  0.0740  0.7897 -2.7368
   49CHL1    C3 4733   3.949   5.445   2.561 -0.4313 -0.1352  0.3327
   49CHL1    H3 4734   4.051   5.405   2.578 -0.1960  0.6594  0.8350
   49CHL1    O3 4735   3.932   5.473   2.421  0.0399  0.0167  0.2351
   49CHL1   H3' 4736   3.843   5.506   2.411  0.8290  2.2566  0.1679
   49CHL1    C4 4737   3.855   5.330   2.604 -0.5127  0.1618 -0.2829
   49CHL1   H4A 4738   3.751   5.340   2.566 -0.5641 -1.1351 -0.5388
   49CHL1   H4B 4739   3.893   5.237   2.556  2.0527  1.2719 -0.5749
   49CHL1    C5 4740   3.858   5.326   2.761  0.8007  0.2448  0.1180
   49CHL1    C6 4741   3.876   5.213   2.830 -1.0599  0.2737  0.6051
   49CHL1    H6 4742   3.882   5.114   2.783 -0.0931  0.4235  0.4017
   49CHL1    C7 4743   3.857   5.208   2.981 -0.7379  0.6951  0.0352
   49CHL1   H7A 4744   3.813   5.110   3.007  1.4014  0.2033  2.1662
   49CHL1   H7B 4745   3.960   5.208   3.023 -1.4475 -1.4636  2.0101
   49CHL1    C8 4746   3.787   5.328   3.052 -0.3871  0.0786  0.3042
   49CHL1    H8 4747   3.678   5.327   3.031 -0.3634  0.9013  0.1201
   49CHL1   C14 4748   3.815   5.332   3.205  0.0347 -0.7279 -0.2570
   49CHL1   H14 4749   3.924   5.355   3.208 -0.3906  1.6134 -1.1021
   49CHL1   C15 4750   3.801   5.205   3.292  0.4733 -0.3424 -0.1461
   49CHL1  H15A 4751   3.702   5.159   3.268  0.4918 -0.7103  0.4668
   49CHL1  H15B 4752   3.881   5.131   3.269  0.5818 -0.5757  0.9486
   49CHL1   C16 4753   3.808   5.266   3.437 -0.4007 -0.2538 -0.8973
   49CHL1  H16A 4754   3.726   5.229   3.502  1.3364 -0.1205  1.4998
   49CHL1  H16B 4755   3.910   5.243   3.472 -0.7672  1.2523  1.3561
   49CHL1   C17 4756   3.796   5.421   3.419  0.3353  0.6161 -0.5046
   49CHL1   H17 4757   3.900   5.461   3.425 -0.2255  2.0022  0.2851
   49CHL1   C13 4758   3.750   5.452   3.278  0.0939 -0.1423 -0.1106
   49CHL1   C18 4759   3.593   5.441   3.271 -0.7114 -0.4342  0.4835
   49CHL1  H18A 4760   3.543   5.508   3.345  0.4061  1.7114 -0.6052
   49CHL1  H18B 4761   3.564   5.472   3.168 -0.2057 -1.7017 -0.0605
   49CHL1  H18C 4762   3.557   5.336   3.278 -0.5285 -0.4444  1.3175
   49CHL1   C12 4763   3.809   5.577   3.221 -0.0311 -0.2646  0.1313
   49CHL1  H12A 4764   3.760   5.669   3.260  1.5749  1.6477 -2.0605
   49CHL1  H12B 4765   3.918   5.586   3.242 -0.3379  0.8078  1.3968
   49CHL1   C11 4766   3.798   5.588   3.066  0.6441  0.6214 -0.4631
   49CHL1  H11A 4767   3.687   5.600   3.063  0.5104  0.1267  1.1788
   49CHL1  H11B 4768   3.843   5.683   3.028 -0.6784  1.5211  0.1315
   49CHL1    C9 4769   3.844   5.461   2.993 -0.2405 -0.1933 -0.3886
   49CHL1    H9 4770   3.953   5.452   3.009 -0.1320 -0.0670 -1.0108
   49CHL1   C10 4771   3.830   5.465   2.838  0.1440 -0.5277  0.1845
   49CHL1   C19 4772   3.686   5.509   2.802  0.4040  0.1114  0.3249
   49CHL1  H19A 4773   3.661   5.609   2.842  1.3269  0.2761  0.5103
   49CHL1  H19B 4774   3.670   5.515   2.692 -1.4618 -1.5223  0.4469
   49CHL1  H19C 4775   3.604   5.441   2.834 -0.1453 -1.0138 -3.0713
   49CHL1    C1 4776   3.934   5.573   2.790  0.2039  0.9228 -0.8042
   49CHL1   H1A 4777   3.915   5.677   2.826 -2.1006  0.6585 -1.1147
   49CHL1   H1B 4778   4.039   5.548   2.816 -0.1183 -0.1641 -0.5245
   49CHL1    C2 4779   3.921   5.578   2.633 -0.4610 -0.2620 -0.5011
   49CHL1   H2A 4780   4.000   5.647   2.596  1.8144 -1.1099  2.4537
   49CHL1   H2B 4781   3.826   5.625   2.598 -2.0475 -3.9795 -1.7259
   49CHL1   C20 4782   3.727   5.486   3.541  0.1341 -0.0945  0.0709
   49CHL1   H20 4783   3.619   5.460   3.528  0.3291 -0.1595 -1.8173
   49CHL1   C21 4784   3.736   5.642   3.529  0.0989 -0.0205  0.3437
   49CHL1  H21A 4785   3.833   5.675   3.485  1.5403 -3.3007  0.8237
   49CHL1  H21B 4786   3.711   5.685   3.629 -0.2171 -1.3356  0.8425
   49CHL1  H21C 4787   3.667   5.677   3.449 -2.2162 -1.9863  1.3513
   49CHL1   C22 4788   3.769   5.414   3.680  0.1554 -0.8786 -0.3456
   49CHL1  H22A 4789   3.750   5.305   3.684  1.6371 -1.2390 -1.7130
   49CHL1  H22B 4790   3.880   5.423   3.682  0.0149  1.0838  0.1139
   49CHL1   C23 4791   3.704   5.487   3.796 -0.1335  0.1100 -0.2216
   49CHL1  H23A 4792   3.730   5.595   3.793  0.4876 -0.0408 -3.1914
   49CHL1  H23B 4793   3.594   5.469   3.800  0.1459 -1.9393 -0.7337
   49CHL1   C24 4794   3.769   5.430   3.923  0.1418  0.0604 -0.4872
   49CHL1  H24A 4795   3.755   5.319   3.920 -1.2186  0.2300 -2.0801
   49CHL1  H24B 4796   3.876   5.457   3.920  0.0993  0.2473 -0.3319
   49CHL1   C25 4797   3.697   5.480   4.054  0.4175 -0.3410  0.3782
   49CHL1   H25 4798   3.587   5.486   4.040  0.6541  2.3016 -0.8781
   49CHL1   C26 4799   3.717   5.389   4.162 -0.3593  0.3336  0.1779
   49CHL1  H26A 4800   3.676   5.288   4.138  2.9388 -0.6319 -2.0894
   49CHL1  H26B 4801   3.823   5.377   4.193 -0.0371  1.2825 -0.5057
   49CHL1  H26C 4802   3.653   5.421   4.246 -0.0787  0.4839  0.3356
   49CHL1   C27 4803   3.742   5.627   4.079  0.9591 -0.4249  0.1998
   49CHL1  H27A 4804   3.690   5.665   4.170 -0.0324  1.5899 -1.1139
   49CHL1  H27B 4805   3.850   5.652   4.086  0.9580  0.8747 -2.8027
   49CHL1  H27C 4806   3.701   5.688   3.995 -0.6638 -1.2594  0.3597
   50CHL1    C3 4807   3.320   2.548   2.781  0.5244 -0.0266  0.2607
   50CHL1    H3 4808   3.411   2.514   2.834  1.1036  0.8759 -0.1364
   50CHL1    O3 4809   3.329   2.517   2.641  0.0166  0.2387  0.3930
   50CHL1   H3' 4810   3.239   2.512   2.608  0.4883  2.4336 -1.4621
   50CHL1    C4 4811   3.201   2.475   2.850 -0.0769  0.3502  0.8319
   50CHL1   H4A 4812   3.115   2.520   2.795 -0.4748 -1.3315  0.0015
   50CHL1   H4B 4813   3.199   2.366   2.829 -2.8840  0.4380  0.2733
   50CHL1    C5 4814   3.179   2.519   2.991 -0.8534 -0.6311  0.5566
   50CHL1    C6 4815   3.177   2.418   3.080 -0.0669 -0.4973  0.5348
   50CHL1    H6 4816   3.193   2.317   3.041  4.9673  0.5185 -0.8060
   50CHL1    C7 4817   3.150   2.441   3.230 -0.6573  0.4845 -0.5092
   50CHL1   H7A 4818   3.066   2.380   3.269 -0.5221  2.2007  2.8210
   50CHL1   H7B 4819   3.241   2.421   3.291 -1.3632  1.5328  0.9399
   50CHL1    C8 4820   3.121   2.592   3.264 -0.0997  0.1356  0.5843
   50CHL1    H8 4821   3.016   2.615   3.235  0.2945 -1.1084 -2.1195
   50CHL1   C14 4822   3.153   2.625   3.408  0.6116  0.0895  0.0502
   50CHL1   H14 4823   3.262   2.603   3.410  0.8481  1.0078  2.9690
   50CHL1   C15 4824   3.099   2.532   3.518  0.2227 -0.3980  0.0950
   50CHL1  H15A 4825   2.992   2.513   3.496  0.1227  1.4818 -1.2831
   50CHL1  H15B 4826   3.154   2.436   3.527 -0.9369 -1.0634  0.3035
   50CHL1   C16 4827   3.124   2.615   3.646 -0.0102  0.3154  0.1274
   50CHL1  H16A 4828   3.031   2.620   3.707  0.1792 -1.0513  0.5714
   50CHL1  H16B 4829   3.197   2.564   3.713  1.8939  0.0257 -2.0478
   50CHL1   C17 4830   3.170   2.758   3.600 -0.4395  0.0760 -0.6126
   50CHL1   H17 4831   3.279   2.754   3.579 -0.6858  1.7678 -2.5976
   50CHL1   C13 4832   3.124   2.768   3.453  0.2729  0.3453  0.4668
   50CHL1   C18 4833   2.977   2.795   3.445  0.4245  0.0902  0.2152
   50CHL1  H18A 4834   2.939   2.895   3.476 -0.3792 -0.0060 -0.4455
   50CHL1  H18B 4835   2.949   2.785   3.339  2.2784  1.2802 -0.4456
   50CHL1  H18C 4836   2.910   2.725   3.499 -2.8906  2.5844 -0.3276
   50CHL1   C12 4837   3.203   2.861   3.362  0.2268 -0.4212  0.1000
   50CHL1  H12A 4838   3.203   2.970   3.383  3.4391  0.2110 -2.4726
   50CHL1  H12B 4839   3.311   2.837   3.362  0.8019  1.7732 -2.3002
   50CHL1   C11 4840   3.174   2.840   3.214  0.1995  0.0632  0.0027
   50CHL1  H11A 4841   3.065   2.853   3.196  0.4074  0.0764 -1.3503
   50CHL1  H11B 4842   3.239   2.913   3.160 -0.7951  0.7616 -0.2737
   50CHL1    C9 4843   3.203   2.690   3.168  0.2272  0.6944 -0.0476
   50CHL1    H9 4844   3.311   2.671   3.190 -0.0009 -0.1626  0.4132
   50CHL1   C10 4845   3.171   2.669   3.020  0.1649  0.5197 -0.1042
   50CHL1   C19 4846   3.026   2.705   2.990 -0.3294  0.3997  0.0605
   50CHL1  H19A 4847   2.997   2.645   2.901  0.3082  0.5251 -0.2390
   50CHL1  H19B 4848   2.952   2.673   3.066  1.4512 -1.0647  1.2567
   50CHL1  H19C 4849   3.013   2.812   2.960 -0.2214 -0.3532 -3.0629
   50CHL1    C1 4850   3.267   2.752   2.935 -0.2860  0.3096  0.1899
   50CHL1   H1A 4851   3.239   2.859   2.938 -0.5229  0.2595 -0.1979
   50CHL1   H1B 4852   3.362   2.744   2.992 -2.0308  1.4499  3.5022
   50CHL1    C2 4853   3.287   2.700   2.789 -0.2672  0.1670 -0.0232
   50CHL1   H2A 4854   3.374   2.751   2.743 -0.7217  0.8732 -0.1162
   50CHL1   H2B 4855   3.194   2.739   2.743 -0.1970 -0.1328 -0.4236
   50CHL1   C20 4856   3.149   2.881   3.693 -0.1955  0.8537 -0.4513
   50CHL1   H20 4857   3.168   2.977   3.641  0.5174  0.9787  0.0322
   50CHL1   C21 4858   3.258   2.875   3.803  0.1087 -0.0664  0.2415
   50CHL1  H21A 4859   3.258   2.780   3.860  0.7432 -0.5329 -0.5046
   50CHL1  H21B 4860   3.244   2.966   3.864 -0.3234 -0.1755  0.3102
   50CHL1  H21C 4861   3.356   2.885   3.751 -1.2698 -2.0853 -3.1101
   50CHL1   C22 4862   3.011   2.888   3.769  0.0439  0.4052  0.1910
   50CHL1  H22A 4863   2.926   2.875   3.699  0.1202  1.1283 -0.0397
   50CHL1  H22B 4864   3.010   2.807   3.846 -0.0107 -0.6129 -0.8569
   50CHL1   C23 4865   2.993   3.024   3.833  0.2887  0.1090 -0.9048
   50CHL1  H23A 4866   3.074   3.051   3.903 -0.7036  1.4273 -0.2296
   50CHL1  H23B 4867   2.995   3.095   3.747 -0.3769  0.5093 -0.6025
   50CHL1   C24 4868   2.858   3.033   3.903  0.1456  0.9485  0.4965
   50CHL1  H24A 4869   2.775   3.014   3.830 -1.6941  0.1362  2.6866
   50CHL1  H24B 4870   2.843   2.962   3.987 -1.0338  1.3749  0.6719
   50CHL1   C25 4871   2.836   3.170   3.973 -0.1806 -0.3999 -0.8121
   50CHL1   H25 4872   2.734   3.156   4.014 -0.4055 -0.6233 -1.4383
   50CHL1   C26 4873   2.923   3.210   4.093  0.4692  0.2523 -0.0942
   50CHL1  H26A 4874   2.894   3.142   4.176 -2.1682  2.7132  1.1883
   50CHL1  H26B 4875   3.030   3.194   4.070  0.6819  1.4424  0.0396
   50CHL1  H26C 4876   2.899   3.315   4.121  0.4538 -0.2357  1.9046
   50CHL1   C27 4877   2.829   3.277   3.865 -0.0981  0.1214  0.0165
   50CHL1  H27A 4878   2.922   3.304   3.812 -0.6755 -0.1576 -1.1851
   50CHL1  H27B 4879   2.758   3.251   3.784 -0.5704 -0.3093  0.5564
   50CHL1  H27C 4880   2.780   3.364   3.914  0.0704  1.1498 -1.5858
   51CHL1    C3 4881   3.060   4.125   2.660 -0.6343 -0.0839  0.9353
   51CHL1    H3 4882   2.986   4.050   2.694  0.7321 -2.8263 -1.7260
   51CHL1    O3 4883   3.047   4.131   2.515  0.0161 -0.4265 -0.1443
   51CHL1   H3' 4884   2.984   4.197   2.486 -2.9605 -2.0289  2.0673
   51CHL1    C4 4885   3.024   4.261   2.715 -0.1367  0.5502 -0.2232
   51CHL1   H4A 4886   3.068   4.349   2.664 -0.1126  1.1840  0.8646
   51CHL1   H4B 4887   2.914   4.266   2.697 -0.3511 -1.2123  0.3905
   51CHL1    C5 4888   3.054   4.271   2.862 -0.0550  0.0839  0.0790
   51CHL1    C6 4889   2.962   4.302   2.950 -0.4108  0.3097 -0.6430
   51CHL1    H6 4890   2.866   4.346   2.921 -0.5280  0.7207  0.3306
   51CHL1    C7 4891   2.979   4.296   3.102  0.0775  0.0678  0.7573
   51CHL1   H7A 4892   2.939   4.384   3.157  0.8516  0.7971  0.1951
   51CHL1   H7B 4893   2.923   4.207   3.137  0.8950 -0.8907 -0.2788
   51CHL1    C8 4894   3.132   4.292   3.144  0.0154  0.4074  1.1069
   51CHL1    H8 4895   3.178   4.392   3.129  1.8033 -0.4085  0.9334
   51CHL1   C14 4896   3.144   4.240   3.293  0.3539  0.2094  0.4405
   51CHL1   H14 4897   3.100   4.138   3.294  0.5396  0.1095  2.1425
   51CHL1   C15 4898   3.068   4.320   3.400  0.3017  0.5560  0.1635
   51CHL1  H15A 4899   3.097   4.426   3.383  2.2805  0.2368  1.2950
   51CHL1  H15B 4900   2.957   4.316   3.389  0.2422 -0.7164  1.0638
   51CHL1   C16 4901   3.129   4.261   3.531  0.3812  0.0087 -0.5108
   51CHL1  H16A 4902   3.143   4.341   3.607  0.1893 -2.2187  1.9880
   51CHL1  H16B 4903   3.068   4.177   3.570  1.1216  0.7959  2.6307
   51CHL1   C17 4904   3.261   4.190   3.490  0.3357 -0.2090 -0.0706
   51CHL1   H17 4905   3.244   4.080   3.498 -1.8489  0.1344  0.5569
   51CHL1   C13 4906   3.291   4.221   3.342  0.5623 -0.4903  0.6324
   51CHL1   C18 4907   3.366   4.361   3.327  0.3105  0.2639  0.1768
   51CHL1  H18A 4908   3.471   4.356   3.363  0.1345 -1.8802  0.5361
   51CHL1  H18B 4909   3.392   4.380   3.221  1.4491  2.9378  0.8362
   51CHL1  H18C 4910   3.309   4.447   3.370 -3.4474 -2.6702  1.6579
   51CHL1   C12 4911   3.354   4.108   3.257 -0.1702  0.1362  0.3258
   51CHL1  H12A 4912   3.461   4.101   3.285 -0.7444 -0.0291  2.6737
   51CHL1  H12B 4913   3.305   4.017   3.297 -1.2582  1.2224  1.5782
   51CHL1   C11 4914   3.346   4.147   3.107 -0.1935  0.4935  0.2319
   51CHL1  H11A 4915   3.421   4.221   3.071 -2.0484  1.4275 -1.9741
   51CHL1  H11B 4916   3.372   4.050   3.057 -0.6752  0.8594 -0.7468
   51CHL1    C9 4917   3.202   4.184   3.061  0.1917  0.0329  0.0719
   51CHL1    H9 4918   3.143   4.092   3.080  1.8504 -1.1703 -0.3617
   51CHL1   C10 4919   3.185   4.200   2.908 -1.4443  0.3020  0.2768
   51CHL1   C19 4920   3.288   4.311   2.866  0.2048  0.3321  0.1437
   51CHL1  H19A 4921   3.286   4.400   2.932  1.7839 -0.1997  0.9653
   51CHL1  H19B 4922   3.389   4.265   2.873  0.6616  1.3931  0.7197
   51CHL1  H19C 4923   3.273   4.349   2.763  0.1637 -0.0648  0.0008
   51CHL1    C1 4924   3.222   4.070   2.841 -0.2298  0.3103 -0.1079
   51CHL1   H1A 4925   3.323   4.026   2.855 -0.2010 -0.0922 -1.4310
   51CHL1   H1B 4926   3.164   3.979   2.869  1.3411 -1.0640 -1.1237
   51CHL1    C2 4927   3.197   4.074   2.688 -0.0122  0.2048  0.4128
   51CHL1   H2A 4928   3.193   3.972   2.645  1.7885  1.4533 -3.1558
   51CHL1   H2B 4929   3.275   4.135   2.638  0.4885 -1.8771 -1.5024
   51CHL1   C20 4930   3.380   4.205   3.600  0.4029  0.4338 -0.1388
   51CHL1   H20 4931   3.404   4.312   3.611  0.6879  0.2049  1.7351
   51CHL1   C21 4932   3.495   4.125   3.548 -1.1415 -0.5448 -0.0295
   51CHL1  H21A 4933   3.469   4.020   3.522 -2.2141 -0.8217  1.9262
   51CHL1  H21B 4934   3.573   4.120   3.627  0.5210 -0.4380 -1.6192
   51CHL1  H21C 4935   3.551   4.176   3.468 -2.5644 -0.0385 -0.7312
   51CHL1   C22 4936   3.342   4.156   3.745  0.7693 -0.2832  0.2554
   51CHL1  H22A 4937   3.411   4.198   3.821 -0.1273 -0.1989  1.0444
   51CHL1  H22B 4938   3.250   4.209   3.778  1.0727  0.5234 -0.1620
   51CHL1   C23 4939   3.318   3.999   3.754 -0.0901 -0.1042  0.7555
   51CHL1  H23A 4940   3.253   3.964   3.671  0.5783  0.9540 -0.2472
   51CHL1  H23B 4941   3.411   3.939   3.746  0.0336  0.3568 -2.4482
   51CHL1   C24 4942   3.243   3.970   3.883 -0.0217 -0.1348 -0.9709
   51CHL1  H24A 4943   3.288   4.038   3.957 -0.8338  0.4581 -1.0034
   51CHL1  H24B 4944   3.135   3.989   3.864  0.0015  1.0993  0.0891
   51CHL1   C25 4945   3.254   3.827   3.932  0.2334  0.2702 -0.6604
   51CHL1   H25 4946   3.362   3.802   3.930 -0.0333 -0.9267 -0.7372
   51CHL1   C26 4947   3.208   3.808   4.081 -0.1829 -0.6145 -0.0065
   51CHL1  H26A 4948   3.200   3.705   4.121 -2.9689 -0.0593  1.1015
   51CHL1  H26B 4949   3.278   3.873   4.138 -0.9166 -0.9856  1.3655
   51CHL1  H26C 4950   3.103   3.844   4.083 -0.9843 -2.6229 -1.8493
   51CHL1   C27 4951   3.168   3.729   3.859 -0.1163 -0.5666 -0.1374
   51CHL1  H27A 4952   3.061   3.758   3.862  0.2029  0.5971  0.5852
   51CHL1  H27B 4953   3.205   3.717   3.755 -1.2424  1.3852 -0.8042
   51CHL1  H27C 4954   3.188   3.631   3.908  1.9588  0.1428  0.5336
   52CHL1    C3 4955   2.400   4.831   2.560  0.5732 -0.0302  0.3555
   52CHL1    H3 4956   2.450   4.929   2.574  0.1175  0.1785  0.5048
   52CHL1    O3 4957   2.386   4.818   2.418 -0.1952 -0.0556  0.0623
   52CHL1   H3' 4958   2.389   4.727   2.388 -0.2829 -0.5788  1.5576
   52CHL1    C4 4959   2.487   4.715   2.614 -0.0140  0.0693 -0.1096
   52CHL1   H4A 4960   2.451   4.618   2.575  0.2422 -0.3332  0.6436
   52CHL1   H4B 4961   2.587   4.719   2.565 -0.3369  1.6951 -0.6912
   52CHL1    C5 4962   2.499   4.712   2.765  0.2430 -0.4836 -0.7567
   52CHL1    C6 4963   2.625   4.705   2.821  0.5072 -0.0731 -0.0732
   52CHL1    H6 4964   2.718   4.704   2.761 -0.1449 -0.3142 -1.1179
   52CHL1    C7 4965   2.652   4.713   2.971  0.6134 -0.3644  0.0538
   52CHL1   H7A 4966   2.739   4.649   2.995  1.0019  0.3897  0.6889
   52CHL1   H7B 4967   2.678   4.820   2.987  0.7713 -0.6304  1.7854
   52CHL1    C8 4968   2.522   4.692   3.057  0.2740  0.3022  0.3055
   52CHL1    H8 4969   2.506   4.584   3.078 -1.3326  0.5026  0.2406
   52CHL1   C14 4970   2.530   4.749   3.199 -0.6141 -0.4211  0.5947
   52CHL1   H14 4971   2.537   4.858   3.178  0.3604 -0.7354 -0.9057
   52CHL1   C15 4972   2.661   4.708   3.273  0.2767 -0.3070  0.2815
   52CHL1  H15A 4973   2.680   4.601   3.250 -1.9453 -0.6314 -0.2686
   52CHL1  H15B 4974   2.744   4.769   3.230  2.1048 -3.6031 -1.3597
   52CHL1   C16 4975   2.633   4.735   3.420 -0.2745 -0.2286  0.1821
   52CHL1  H16A 4976   2.661   4.652   3.488  3.1212 -0.8453 -1.7012
   52CHL1  H16B 4977   2.698   4.822   3.446  0.6909 -0.3533 -1.6580
   52CHL1   C17 4978   2.489   4.785   3.432 -0.1529  0.3843  0.1095
   52CHL1   H17 4979   2.487   4.896   3.427 -1.6516  0.3737 -0.0650
   52CHL1   C13 4980   2.417   4.734   3.300  0.3982  0.2209 -0.7890
   52CHL1   C18 4981   2.378   4.585   3.312  0.0518  0.5632 -0.3649
   52CHL1  H18A 4982   2.462   4.522   3.346 -0.1904  1.2727  1.6783
   52CHL1  H18B 4983   2.297   4.578   3.388 -0.8591  2.2626 -1.1213
   52CHL1  H18C 4984   2.343   4.551   3.212 -1.7951  2.2773 -0.3806
   52CHL1   C12 4985   2.301   4.819   3.238  0.2156 -0.4943  0.2738
   52CHL1  H12A 4986   2.203   4.813   3.289  1.4357 -0.0890  2.8335
   52CHL1  H12B 4987   2.326   4.927   3.253 -2.7241  0.2693  0.2263
   52CHL1   C11 4988   2.279   4.781   3.087  0.1081 -0.1190  1.1592
   52CHL1  H11A 4989   2.236   4.679   3.089 -1.1870  0.2875 -1.6148
   52CHL1  H11B 4990   2.204   4.854   3.048  0.8955  0.7681  1.2598
   52CHL1    C9 4991   2.400   4.767   2.989  0.1771 -0.7927  0.2352
   52CHL1    H9 4992   2.439   4.871   2.982 -0.4530 -0.6607 -2.1109
   52CHL1   C10 4993   2.367   4.731   2.845 -0.7416  0.1120 -0.0905
   52CHL1   C19 4994   2.300   4.590   2.840 -0.1938 -0.2601 -0.6993
   52CHL1  H19A 4995   2.200   4.603   2.885 -0.0770 -0.7461 -0.2779
   52CHL1  H19B 4996   2.275   4.557   2.737 -0.2025  0.8616 -1.0685
   52CHL1  H19C 4997   2.366   4.511   2.883 -1.0283 -0.8027 -0.3995
   52CHL1    C1 4998   2.273   4.837   2.773 -0.2969  0.2693 -0.0814
   52CHL1   H1A 4999   2.176   4.829   2.827 -1.9176  0.6351 -2.7777
   52CHL1   H1B 5000   2.327   4.933   2.792  0.7598 -0.2635 -0.3220
   52CHL1    C2 5001   2.256   4.827   2.625  0.2947 -0.5480  0.2059
   52CHL1   H2A 5002   2.202   4.920   2.597  0.6594 -0.0600  1.0761
   52CHL1   H2B 5003   2.200   4.739   2.587  2.4666 -1.4542 -1.0011
   52CHL1   C20 5004   2.419   4.745   3.565  0.1936  0.4982 -0.3417
   52CHL1   H20 5005   2.408   4.635   3.578  1.7256  0.2333 -1.0435
   52CHL1   C21 5006   2.278   4.808   3.562 -0.2977  0.0361  0.4614
   52CHL1  H21A 5007   2.241   4.829   3.665 -1.1367  0.3810  0.1007
   52CHL1  H21B 5008   2.208   4.734   3.516 -1.5376  1.2430  0.3211
   52CHL1  H21C 5009   2.274   4.900   3.500  3.2268  0.9236  1.3316
   52CHL1   C22 5010   2.489   4.793   3.696 -0.1143 -0.1617 -0.2412
   52CHL1  H22A 5011   2.598   4.773   3.700 -0.1812 -1.1125 -2.0997
   52CHL1  H22B 5012   2.474   4.903   3.692 -2.2097 -0.3910 -0.0389
   52CHL1   C23 5013   2.446   4.728   3.831  0.3426  0.2514  0.3273
   52CHL1  H23A 5014   2.338   4.750   3.844 -0.1652 -1.4046 -0.7292
   52CHL1  H23B 5015   2.460   4.619   3.814 -1.1937  0.1829 -0.6266
   52CHL1   C24 5016   2.537   4.777   3.953  0.6674  0.7574  0.3789
   52CHL1  H24A 5017   2.636   4.740   3.921  0.2168 -0.5886  0.4947
   52CHL1  H24B 5018   2.546   4.888   3.956  2.8901  0.6015  1.6555
   52CHL1   C25 5019   2.503   4.713   4.088 -0.6597  0.0489 -0.7724
   52CHL1   H25 5020   2.393   4.709   4.104 -1.5934  1.2896 -5.4188
   52CHL1   C26 5021   2.561   4.573   4.093 -0.4027 -0.6943  0.0855
   52CHL1  H26A 5022   2.537   4.519   4.000  1.7107  0.5347 -1.2556
   52CHL1  H26B 5023   2.672   4.579   4.083 -0.2970  1.5434  1.8701
   52CHL1  H26C 5024   2.538   4.510   4.182 -0.3458 -1.9152 -0.7423
   52CHL1   C27 5025   2.559   4.808   4.192 -0.5493  0.4806  0.5741
   52CHL1  H27A 5026   2.556   4.761   4.293 -0.1848  0.1668  0.4430
   52CHL1  H27B 5027   2.657   4.854   4.167 -1.4577  1.6859 -0.9980
   52CHL1  H27C 5028   2.492   4.896   4.185 -0.5267  0.4061 -0.7963
   53CHL1    C3 5029   1.729   4.753   2.668 -0.2341  0.0943  0.9114
   53CHL1    H3 5030   1.652   4.828   2.696  0.7727  1.7271 -0.4941
   53CHL1    O3 5031   1.727   4.724   2.527 -0.0382  0.4824  0.5120
   53CHL1   H3' 5032   1.804   4.666   2.524  0.3646  0.7745  2.8784
   53CHL1    C4 5033   1.866   4.794   2.720 -0.0398 -0.6219 -0.0156
   53CHL1   H4A 5034   1.935   4.710   2.695 -1.6585 -1.7014 -1.1316
   53CHL1   H4B 5035   1.905   4.887   2.673 -0.3335  0.4010  1.6756
   53CHL1    C5 5036   1.854   4.817   2.875  0.0604 -0.7590 -0.4335
   53CHL1    C6 5037   1.885   4.930   2.930 -0.0754 -0.3542 -0.2686
   53CHL1    H6 5038   1.917   5.015   2.868  0.0647  0.6248  1.1055
   53CHL1    C7 5039   1.872   4.955   3.072  0.2280 -0.3033  0.5791
   53CHL1   H7A 5040   1.956   5.019   3.107 -0.5060 -0.8390  3.5163
   53CHL1   H7B 5041   1.779   5.014   3.088  0.4044  0.2734 -0.4307
   53CHL1    C8 5042   1.868   4.835   3.163 -0.0048  0.3824  0.6106
   53CHL1    H8 5043   1.967   4.787   3.172 -0.1814  0.1773  1.5579
   53CHL1   C14 5044   1.807   4.880   3.300 -0.2354  0.6601  0.7707
   53CHL1   H14 5045   1.705   4.920   3.282 -0.4672  0.3096  1.2911
   53CHL1   C15 5046   1.880   4.995   3.385 -0.1609 -0.1108  0.5073
   53CHL1  H15A 5047   1.990   4.988   3.400  0.2433  3.1551 -0.2250
   53CHL1  H15B 5048   1.856   5.094   3.340  1.3506 -0.1338 -0.4155
   53CHL1   C16 5049   1.813   4.987   3.517 -0.3897 -0.1681 -0.6239
   53CHL1  H16A 5050   1.879   4.974   3.606 -1.2779 -0.2888  0.0291
   53CHL1  H16B 5051   1.741   5.068   3.539  0.5778  0.0910  1.9176
   53CHL1   C17 5052   1.723   4.861   3.504 -0.4203 -0.5434 -0.3368
   53CHL1   H17 5053   1.628   4.903   3.466 -2.4378 -1.7286  3.0166
   53CHL1   C13 5054   1.786   4.770   3.394 -0.8633  0.3397 -0.3068
   53CHL1   C18 5055   1.924   4.705   3.439 -0.5179 -0.6561 -0.9701
   53CHL1  H18A 5056   1.909   4.648   3.534  1.2831  0.3500 -0.0354
   53CHL1  H18B 5057   1.955   4.641   3.355  0.5406 -0.4602 -0.7442
   53CHL1  H18C 5058   2.001   4.784   3.449  0.5661 -1.8648  1.0682
   53CHL1   C12 5059   1.687   4.664   3.334 -0.0396  0.5891  0.1399
   53CHL1  H12A 5060   1.677   4.577   3.403 -0.9487 -0.1345 -0.8742
   53CHL1  H12B 5061   1.586   4.711   3.331  0.0236  0.7670  0.6469
   53CHL1   C11 5062   1.738   4.626   3.195  0.4935  0.1992 -0.1335
   53CHL1  H11A 5063   1.831   4.569   3.211  0.2807  0.0954  0.7834
   53CHL1  H11B 5064   1.661   4.562   3.145  3.7018 -2.5062 -2.0017
   53CHL1    C9 5065   1.766   4.744   3.100 -0.2118  0.0852 -0.2351
   53CHL1    H9 5066   1.671   4.800   3.102  0.7318  1.7442 -0.0491
   53CHL1   C10 5067   1.796   4.701   2.962 -0.0604  0.0282  0.0318
   53CHL1   C19 5068   1.907   4.594   2.967 -0.1253 -0.3377 -1.1484
   53CHL1  H19A 5069   1.948   4.580   2.864 -0.7463 -0.6060 -1.3668
   53CHL1  H19B 5070   1.990   4.619   3.036 -0.4301 -1.3402 -0.3851
   53CHL1  H19C 5071   1.848   4.503   2.992 -1.2372  0.4990 -0.6335
   53CHL1    C1 5072   1.672   4.642   2.884  0.0100 -0.4300  0.7829
   53CHL1   H1A 5073   1.660   4.548   2.942  0.7617 -1.6290 -0.9107
   53CHL1   H1B 5074   1.585   4.711   2.877  1.5657  1.5965  0.7376
   53CHL1    C2 5075   1.694   4.615   2.738 -0.0072 -0.1940 -0.1299
   53CHL1   H2A 5076   1.602   4.581   2.685 -0.4978  1.6886 -0.5954
   53CHL1   H2B 5077   1.774   4.539   2.723 -0.0253  0.1449 -2.1938
   53CHL1   C20 5078   1.673   4.787   3.641 -0.0747  0.3024 -0.0526
   53CHL1   H20 5079   1.745   4.705   3.660  0.8213  1.3821  1.3716
   53CHL1   C21 5080   1.525   4.729   3.629  0.0222 -0.1870  0.3967
   53CHL1  H21A 5081   1.477   4.682   3.717 -0.7854 -1.4177 -0.6728
   53CHL1  H21B 5082   1.515   4.665   3.539 -0.7884  0.1518  0.2430
   53CHL1  H21C 5083   1.467   4.818   3.595 -1.1064 -0.9924  0.1892
   53CHL1   C22 5084   1.686   4.880   3.764  0.1484 -0.1830 -1.1978
   53CHL1  H22A 5085   1.671   4.982   3.722  0.8762  0.5961  0.3566
   53CHL1  H22B 5086   1.601   4.855   3.832  0.8582 -0.8193 -0.5207
   53CHL1   C23 5087   1.806   4.869   3.858  0.6904  0.5037 -0.1064
   53CHL1  H23A 5088   1.896   4.868   3.792  1.1783 -1.2880  0.5109
   53CHL1  H23B 5089   1.810   4.955   3.927  1.1285  1.1512 -0.9249
   53CHL1   C24 5090   1.794   4.741   3.948 -0.7221  0.3402 -0.1741
   53CHL1  H24A 5091   1.699   4.755   4.004  0.0855  1.1053  1.0626
   53CHL1  H24B 5092   1.786   4.651   3.883 -0.3011 -0.4486  0.8391
   53CHL1   C25 5093   1.909   4.721   4.045 -0.1281 -0.6837 -0.7314
   53CHL1   H25 5094   1.913   4.619   4.088  0.6843 -0.3109  0.1133
   53CHL1   C26 5095   2.044   4.743   3.980  0.2489  1.3087  0.0695
   53CHL1  H26A 5096   2.062   4.849   3.954 -0.1172  0.9673 -1.6957
   53CHL1  H26B 5097   2.129   4.706   4.041  1.0046 -1.0750 -2.2814
   53CHL1  H26C 5098   2.050   4.696   3.879  2.0559 -0.4778  0.9367
   53CHL1   C27 5099   1.896   4.812   4.163 -0.1074  0.2954  0.2224
   53CHL1  H27A 5100   1.997   4.835   4.203  0.4653 -2.1761  0.3740
   53CHL1  H27B 5101   1.852   4.909   4.132 -1.2521 -0.2053  0.2029
   53CHL1  H27C 5102   1.806   4.774   4.216 -1.5790 -0.1683 -2.4302
   54CHL1    C3 5103   2.430   5.919   2.589  0.3838 -0.7858 -0.2787
   54CHL1    H3 5104   2.382   6.019   2.598  0.1932 -0.6742 -2.1379
   54CHL1    O3 5105   2.450   5.903   2.446 -0.5816 -0.0164 -0.8372
   54CHL1   H3' 5106   2.488   5.816   2.436 -0.3755  0.1892 -1.9793
   54CHL1    C4 5107   2.570   5.924   2.653 -0.4671  0.4869 -0.2490
   54CHL1   H4A 5108   2.634   5.843   2.611 -0.3286  0.4138  0.1021
   54CHL1   H4B 5109   2.626   6.016   2.627  2.0668 -1.0984 -0.6929
   54CHL1    C5 5110   2.575   5.900   2.804  0.0527 -0.6747 -0.4928
   54CHL1    C6 5111   2.659   5.965   2.888 -1.0582  0.7952 -0.2458
   54CHL1    H6 5112   2.725   6.043   2.846  1.4450 -0.5287  1.0070
   54CHL1    C7 5113   2.676   5.936   3.032  0.5128 -0.3670  0.3688
   54CHL1   H7A 5114   2.783   5.904   3.029 -0.2470 -3.1376 -0.0229
   54CHL1   H7B 5115   2.644   6.030   3.082 -0.4373  0.4378 -1.6274
   54CHL1    C8 5116   2.585   5.818   3.082 -0.1640  0.3944 -0.2099
   54CHL1    H8 5117   2.646   5.728   3.060  2.4643  2.5346 -2.5209
   54CHL1   C14 5118   2.547   5.830   3.234 -0.4595  0.3282 -0.3107
   54CHL1   H14 5119   2.468   5.909   3.234 -1.4946 -0.6556 -1.5858
   54CHL1   C15 5120   2.661   5.866   3.333  0.5134  0.8264  0.3710
   54CHL1  H15A 5121   2.753   5.817   3.295 -0.1145  1.5656 -2.3059
   54CHL1  H15B 5122   2.676   5.975   3.316 -3.6389  1.4923 -0.1682
   54CHL1   C16 5123   2.606   5.832   3.475 -0.7100  0.0291  0.5333
   54CHL1  H16A 5124   2.675   5.765   3.532  0.3194 -0.1560 -0.8821
   54CHL1  H16B 5125   2.590   5.923   3.536  1.1547  1.3701 -0.8580
   54CHL1   C17 5126   2.467   5.760   3.443 -0.1265  0.8615  0.7501
   54CHL1   H17 5127   2.390   5.840   3.442 -1.6208 -0.5255  1.3425
   54CHL1   C13 5128   2.476   5.708   3.298  0.4355  0.4003  0.4484
   54CHL1   C18 5129   2.556   5.585   3.284 -0.5826  0.7852 -0.2737
   54CHL1  H18A 5130   2.507   5.496   3.329 -3.1338  1.7882 -0.8865
   54CHL1  H18B 5131   2.580   5.557   3.179  1.0357 -0.6316  0.4344
   54CHL1  H18C 5132   2.659   5.585   3.326  0.1499 -1.9367 -1.8094
   54CHL1   C12 5133   2.343   5.687   3.215  0.4522 -0.7005  0.4563
   54CHL1  H12A 5134   2.286   5.601   3.256 -0.2496 -0.7343 -0.5642
   54CHL1  H12B 5135   2.280   5.777   3.232 -1.4310 -1.8101 -0.3649
   54CHL1   C11 5136   2.366   5.681   3.067 -0.0050  0.2222  0.0597
   54CHL1  H11A 5137   2.425   5.589   3.046  1.3156  1.0357  0.1060
   54CHL1  H11B 5138   2.269   5.674   3.014  0.6196 -5.2688 -0.9714
   54CHL1    C9 5139   2.451   5.802   3.006 -0.3490  0.1814 -0.3156
   54CHL1    H9 5140   2.385   5.890   3.023  0.3569  0.7303 -0.3750
   54CHL1   C10 5141   2.478   5.790   2.854 -0.2423 -0.1654 -0.6371
   54CHL1   C19 5142   2.553   5.661   2.818  0.0991  1.1734 -0.1152
   54CHL1  H19A 5143   2.651   5.645   2.868 -0.4280  0.3049  0.6693
   54CHL1  H19B 5144   2.489   5.572   2.832  1.2043  0.4544  0.5485
   54CHL1  H19C 5145   2.584   5.665   2.711  0.0573  2.3971 -0.1000
   54CHL1    C1 5146   2.341   5.804   2.794  1.0077 -0.1818  0.9279
   54CHL1   H1A 5147   2.280   5.717   2.824 -1.5225  1.9621  2.4420
   54CHL1   H1B 5148   2.293   5.899   2.825  1.0703 -0.5143  2.1020
   54CHL1    C2 5149   2.342   5.806   2.638 -0.0322  0.2153  0.9245
   54CHL1   H2A 5150   2.241   5.814   2.594 -0.4771 -1.0641  1.6483
   54CHL1   H2B 5151   2.383   5.709   2.602  2.4652  1.0168  1.4033
   54CHL1   C20 5152   2.431   5.670   3.561 -0.1789  0.1416 -0.6950
   54CHL1   H20 5153   2.519   5.604   3.576  0.2781  0.9321  0.2125
   54CHL1   C21 5154   2.303   5.586   3.532  0.3646 -0.2238  0.6020
   54CHL1  H21A 5155   2.219   5.656   3.515  0.6287 -0.2389 -0.9113
   54CHL1  H21B 5156   2.283   5.515   3.615 -2.0963  2.6380  2.7109
   54CHL1  H21C 5157   2.315   5.523   3.442  0.2798  0.6858 -0.0612
   54CHL1   C22 5158   2.408   5.759   3.690 -0.1202 -0.0428 -0.4185
   54CHL1  H22A 5159   2.470   5.851   3.701 -0.8204  0.2662  1.2905
   54CHL1  H22B 5160   2.304   5.796   3.680  0.1524  0.6343 -0.8785
   54CHL1   C23 5161   2.423   5.679   3.813 -0.8513  0.1111  0.1515
   54CHL1  H23A 5162   2.362   5.587   3.806 -0.5846  0.0235 -1.4958
   54CHL1  H23B 5163   2.527   5.645   3.833  0.6343  4.2509  0.3856
   54CHL1   C24 5164   2.400   5.756   3.946 -0.1533 -1.0261 -0.2510
   54CHL1  H24A 5165   2.476   5.837   3.952 -0.0100 -1.1585 -0.2522
   54CHL1  H24B 5166   2.307   5.814   3.933  1.1950  1.7243  1.5176
   54CHL1   C25 5167   2.412   5.667   4.074 -0.0227  0.2562  0.0469
   54CHL1   H25 5168   2.381   5.722   4.165 -0.5483 -0.4780  0.3228
   54CHL1   C26 5169   2.323   5.543   4.072 -0.5838  0.2610 -0.1538
   54CHL1  H26A 5170   2.338   5.488   4.168  0.7172 -1.3100 -1.2138
   54CHL1  H26B 5171   2.215   5.564   4.053 -0.7608 -0.4453  0.0347
   54CHL1  H26C 5172   2.352   5.489   3.980 -1.8037 -0.9611  0.1414
   54CHL1   C27 5173   2.566   5.635   4.098  0.5037 -0.3738  0.0054
   54CHL1  H27A 5174   2.572   5.609   4.206 -0.3274 -0.1440  0.1114
   54CHL1  H27B 5175   2.596   5.552   4.030  2.0374 -1.4416  1.8616
   54CHL1  H27C 5176   2.626   5.727   4.081 -0.6689  0.0662 -2.0505
   55CHL1    C3 5177   4.289   1.743   2.846 -0.5085 -0.1470 -0.0334
   55CHL1    H3 5178   4.280   1.853   2.856 -0.6638  0.1366 -2.5926
   55CHL1    O3 5179   4.297   1.731   2.708  0.0291 -0.0539 -0.0198
   55CHL1   H3' 5180   4.217   1.776   2.679 -0.8740 -1.8491 -0.4524
   55CHL1    C4 5181   4.428   1.694   2.893  0.3579 -0.0863 -0.0706
   55CHL1   H4A 5182   4.441   1.590   2.856  1.8098 -0.0979  0.4347
   55CHL1   H4B 5183   4.510   1.746   2.840  1.2959 -1.3296  0.1210
   55CHL1    C5 5184   4.447   1.690   3.044  0.9154 -0.1347  0.3322
   55CHL1    C6 5185   4.546   1.758   3.100 -0.6665 -0.2673  0.7188
   55CHL1    H6 5186   4.632   1.787   3.038 -1.1693 -0.4297 -0.0635
   55CHL1    C7 5187   4.584   1.756   3.241 -0.0510 -0.5808 -0.2795
   55CHL1   H7A 5188   4.693   1.745   3.257  0.2066 -0.6527 -1.9759
   55CHL1   H7B 5189   4.566   1.849   3.299 -2.4138 -0.7941 -0.5747
   55CHL1    C8 5190   4.493   1.657   3.320 -0.2554 -0.3757  0.5749
   55CHL1    H8 5191   4.527   1.552   3.302 -0.8346 -1.0820  3.1493
   55CHL1   C14 5192   4.501   1.683   3.470  1.0866 -0.2383 -0.3227
   55CHL1   H14 5193   4.461   1.785   3.488  0.5628 -0.7998  2.0471
   55CHL1   C15 5194   4.637   1.685   3.549  0.1615  0.6125 -0.1603
   55CHL1  H15A 5195   4.703   1.603   3.511  1.5261  0.3177  2.6126
   55CHL1  H15B 5196   4.697   1.777   3.533  0.4674  0.3142 -0.7664
   55CHL1   C16 5197   4.596   1.656   3.693 -0.2993 -0.5349 -0.4344
   55CHL1  H16A 5198   4.648   1.561   3.720 -0.6345 -1.2015 -2.0328
   55CHL1  H16B 5199   4.632   1.726   3.772 -0.1531 -0.8791 -0.1926
   55CHL1   C17 5200   4.441   1.638   3.698 -0.4848 -0.3731 -0.6084
   55CHL1   H17 5201   4.381   1.731   3.702 -2.6676 -1.7428  0.7817
   55CHL1   C13 5202   4.417   1.590   3.553 -0.8573 -0.4166 -0.3563
   55CHL1   C18 5203   4.477   1.443   3.539  0.5305  0.1155  0.1231
   55CHL1  H18A 5204   4.570   1.426   3.596 -0.5356  0.3254  2.0248
   55CHL1  H18B 5205   4.399   1.375   3.579 -0.0543 -1.1034 -2.7827
   55CHL1  H18C 5206   4.473   1.408   3.433 -1.5571 -0.7316  0.4195
   55CHL1   C12 5207   4.266   1.598   3.507 -0.1525 -0.7209  0.0671
   55CHL1  H12A 5208   4.195   1.538   3.569 -1.1175  0.7713  0.4686
   55CHL1  H12B 5209   4.232   1.703   3.521 -0.4805 -0.7174 -0.7371
   55CHL1   C11 5210   4.250   1.574   3.355 -0.1720 -0.4977 -0.1914
   55CHL1  H11A 5211   4.282   1.468   3.346  2.2185  0.3240 -3.5885
   55CHL1  H11B 5212   4.146   1.590   3.321  0.6515  1.0232 -2.1773
   55CHL1    C9 5213   4.348   1.664   3.268 -0.5411  0.5065  0.4642
   55CHL1    H9 5214   4.311   1.768   3.281 -1.2992  0.0481  2.2250
   55CHL1   C10 5215   4.330   1.628   3.115 -0.1035 -0.5704  0.0620
   55CHL1   C19 5216   4.327   1.478   3.098 -0.2584  0.0243  0.0616
   55CHL1  H19A 5217   4.233   1.437   3.142 -0.6461  1.6945  0.8451
   55CHL1  H19B 5218   4.325   1.448   2.991 -0.7925  0.2713 -0.0025
   55CHL1  H19C 5219   4.410   1.428   3.152  0.8391  0.0219 -1.5662
   55CHL1    C1 5220   4.197   1.689   3.068 -0.0312  0.1308 -0.4411
   55CHL1   H1A 5221   4.110   1.641   3.117 -0.7426  0.8665 -0.9493
   55CHL1   H1B 5222   4.190   1.794   3.106 -0.3900 -0.4416  1.1828
   55CHL1    C2 5223   4.174   1.665   2.911 -0.5840  0.4325 -0.4667
   55CHL1   H2A 5224   4.076   1.714   2.887 -0.6292  0.9051  0.6100
   55CHL1   H2B 5225   4.166   1.557   2.890  0.2974  0.0050  1.2875
   55CHL1   C20 5226   4.398   1.554   3.809 -0.2869  0.8189 -0.5605
   55CHL1   H20 5227   4.406   1.447   3.780  0.6770  0.5051  0.7826
   55CHL1   C21 5228   4.252   1.589   3.841  0.4166  0.3854 -0.4727
   55CHL1  H21A 5229   4.246   1.696   3.870  0.2399  0.1983  0.2250
   55CHL1  H21B 5230   4.223   1.525   3.928 -0.0681  1.0894 -0.1019
   55CHL1  H21C 5231   4.179   1.574   3.759  0.2003  2.1981 -0.6599
   55CHL1   C22 5232   4.494   1.565   3.935  0.1981  0.6601  0.2605
   55CHL1  H22A 5233   4.590   1.517   3.908  0.3801 -0.2854  2.3254
   55CHL1  H22B 5234   4.521   1.672   3.951 -0.7931  0.7493  1.4826
   55CHL1   C23 5235   4.449   1.495   4.059  0.0024  0.2554 -0.2355
   55CHL1  H23A 5236   4.358   1.548   4.094 -0.0797  0.1535 -0.2915
   55CHL1  H23B 5237   4.429   1.388   4.035  0.6955 -0.0911  0.6465
   55CHL1   C24 5238   4.558   1.494   4.172  0.7111 -0.0237  0.1945
   55CHL1  H24A 5239   4.638   1.567   4.148 -0.1919  0.9672  0.1346
   55CHL1  H24B 5240   4.506   1.531   4.262  0.8649  3.0268 -0.8728
   55CHL1   C25 5241   4.633   1.360   4.197  0.6286 -0.7215 -0.8051
   55CHL1   H25 5242   4.549   1.289   4.215  0.4044 -0.2327  0.1382
   55CHL1   C26 5243   4.722   1.316   4.078  0.2948 -0.4647  0.3926
   55CHL1  H26A 5244   4.765   1.214   4.084 -1.2808 -1.2288 -0.7408
   55CHL1  H26B 5245   4.665   1.339   3.986 -2.6394  1.5922  2.5215
   55CHL1  H26C 5246   4.811   1.383   4.068 -0.3002  0.5097  1.3820
   55CHL1   C27 5247   4.716   1.386   4.324  0.0002 -0.0185 -0.0600
   55CHL1  H27A 5248   4.743   1.287   4.367 -1.6210 -0.2665  0.4505
   55CHL1  H27B 5249   4.810   1.440   4.302 -0.0915  0.7761  1.3871
   55CHL1  H27C 5250   4.654   1.440   4.398 -0.7655 -1.5508  0.4646
   56CHL1    C3 5251   6.245   2.469   3.150  0.0015  0.1740 -0.0057
   56CHL1    H3 5252   6.347   2.499   3.185  0.0830 -0.5468  0.4021
   56CHL1    O3 5253   6.254   2.435   3.010  0.0898 -0.5946 -0.2633
   56CHL1   H3' 5254   6.170   2.399   2.982  0.2915  0.4026 -2.3530
   56CHL1    C4 5255   6.195   2.345   3.225 -0.6931 -0.9876  0.1633
   56CHL1   H4A 5256   6.093   2.329   3.185  0.1089 -1.0765 -1.9318
   56CHL1   H4B 5257   6.259   2.259   3.195  2.4441  1.7379 -1.5900
   56CHL1    C5 5258   6.183   2.361   3.375 -0.1745 -0.0395  0.1312
   56CHL1    C6 5259   6.248   2.281   3.464  0.3821 -0.7668  0.0069
   56CHL1    H6 5260   6.311   2.199   3.425 -0.2355 -0.2032 -2.3266
   56CHL1    C7 5261   6.240   2.299   3.612 -0.0415  0.1478  0.3082
   56CHL1   H7A 5262   6.241   2.204   3.671  0.2358 -0.6846 -0.9794
   56CHL1   H7B 5263   6.334   2.353   3.634 -0.6891  2.3125 -1.8331
   56CHL1    C8 5264   6.137   2.400   3.657  0.3803 -0.4601 -0.2760
   56CHL1    H8 5265   6.034   2.358   3.660  0.3114 -0.2622  2.2200
   56CHL1   C14 5266   6.174   2.448   3.802 -0.0270  0.2961  0.9607
   56CHL1   H14 5267   6.277   2.490   3.793  0.9030 -1.9226  0.6046
   56CHL1   C15 5268   6.175   2.346   3.915  0.0124 -0.5047  0.1310
   56CHL1  H15A 5269   6.074   2.300   3.928 -0.1579  0.1914  1.5039
   56CHL1  H15B 5270   6.241   2.258   3.931  0.5083 -0.0593  0.5932
   56CHL1   C16 5271   6.200   2.441   4.032 -0.2390  0.0651  0.0177
   56CHL1  H16A 5272   6.164   2.388   4.122  0.7404 -2.1651 -0.8298
   56CHL1  H16B 5273   6.310   2.443   4.044 -0.0179 -2.0999 -1.0898
   56CHL1   C17 5274   6.144   2.579   3.998  0.0650 -0.4176  0.0656
   56CHL1   H17 5275   6.238   2.636   3.982 -0.2821 -0.5358 -2.8406
   56CHL1   C13 5276   6.087   2.563   3.854 -0.0339 -0.5278 -0.0259
   56CHL1   C18 5277   5.936   2.521   3.866  0.1054 -0.2767  0.1486
   56CHL1  H18A 5278   5.894   2.468   3.778 -1.2290  0.1931  0.4737
   56CHL1  H18B 5279   5.929   2.443   3.945  0.8344  0.4232  0.9242
   56CHL1  H18C 5280   5.868   2.606   3.885 -0.0984 -0.0747 -1.3795
   56CHL1   C12 5281   6.103   2.686   3.759 -0.4458  0.6257 -0.1647
   56CHL1  H12A 5282   6.053   2.777   3.797 -0.5225  0.2198  0.7129
   56CHL1  H12B 5283   6.210   2.715   3.767 -0.7639  1.7271  0.2393
   56CHL1   C11 5284   6.055   2.643   3.616 -0.6067 -0.7371  0.4161
   56CHL1  H11A 5285   5.945   2.624   3.619 -0.6131 -0.5912  1.4994
   56CHL1  H11B 5286   6.079   2.734   3.557  0.1841 -1.0023  0.3294
   56CHL1    C9 5287   6.138   2.523   3.562 -0.6099  0.6834  0.2132
   56CHL1    H9 5288   6.246   2.551   3.563 -0.1966 -0.8169  0.7621
   56CHL1   C10 5289   6.109   2.481   3.419 -0.0815 -0.4435  0.0606
   56CHL1   C19 5290   5.961   2.459   3.414  0.1926 -0.1431  0.0420
   56CHL1  H19A 5291   5.930   2.370   3.474 -0.0643 -0.3143 -0.3437
   56CHL1  H19B 5292   5.890   2.544   3.422  1.8518  1.1576  1.7659
   56CHL1  H19C 5293   5.946   2.412   3.315 -2.6998  0.9889 -0.1623
   56CHL1    C1 5294   6.153   2.609   3.326  0.6451 -0.1145 -0.5837
   56CHL1   H1A 5295   6.073   2.685   3.340  1.0779  0.3495 -0.5865
   56CHL1   H1B 5296   6.257   2.629   3.358  1.5535 -3.2636 -1.2015
   56CHL1    C2 5297   6.154   2.585   3.173 -0.3379  0.1907  1.0897
   56CHL1   H2A 5298   6.187   2.674   3.117  0.2807 -2.1283 -2.5685
   56CHL1   H2B 5299   6.053   2.554   3.139 -0.3890  2.7916 -1.4028
   56CHL1   C20 5300   6.062   2.654   4.106  0.5533 -0.4482 -0.0456
   56CHL1   H20 5301   5.963   2.604   4.115  0.5460 -0.9469 -2.2081
   56CHL1   C21 5302   6.024   2.798   4.058 -0.4113 -0.1672 -0.2031
   56CHL1  H21A 5303   5.955   2.838   4.136  0.0831  0.0537  0.1202
   56CHL1  H21B 5304   5.962   2.809   3.966  1.6974  2.8545 -1.4085
   56CHL1  H21C 5305   6.114   2.862   4.053 -0.2450 -0.4860 -1.7351
   56CHL1   C22 5306   6.120   2.662   4.244  0.0567  0.3695  0.3523
   56CHL1  H22A 5307   6.047   2.715   4.309  0.9210 -1.3796  2.9335
   56CHL1  H22B 5308   6.128   2.559   4.285 -1.1244  0.1736  0.1067
   56CHL1   C23 5309   6.255   2.748   4.248  0.7004 -0.2769  0.0969
   56CHL1  H23A 5310   6.314   2.726   4.156 -1.8640  0.2810 -1.8102
   56CHL1  H23B 5311   6.235   2.857   4.237  0.1111 -0.3443  0.4725
   56CHL1   C24 5312   6.336   2.737   4.376  0.6118  0.2827 -0.5278
   56CHL1  H24A 5313   6.421   2.805   4.353 -0.2660  1.3403 -0.7016
   56CHL1  H24B 5314   6.285   2.778   4.465  2.4511 -0.3196  0.8739
   56CHL1   C25 5315   6.377   2.588   4.412  0.5379 -1.1842 -0.0826
   56CHL1   H25 5316   6.289   2.525   4.390 -1.2227  0.4921  1.7073
   56CHL1   C26 5317   6.489   2.551   4.310 -0.2938 -0.2776 -0.4178
   56CHL1  H26A 5318   6.559   2.637   4.297  0.1007 -0.3896  0.7924
   56CHL1  H26B 5319   6.543   2.462   4.349 -0.0653  0.6173  1.3775
   56CHL1  H26C 5320   6.444   2.523   4.213  0.0301  0.4138 -0.7752
   56CHL1   C27 5321   6.415   2.582   4.563 -0.2173 -0.0286  0.5929
   56CHL1  H27A 5322   6.480   2.664   4.600 -0.5732  0.5914 -0.1264
   56CHL1  H27B 5323   6.329   2.590   4.633 -1.3192  1.0009 -0.8303
   56CHL1  H27C 5324   6.461   2.482   4.573  1.4638  0.6498  0.1100
   57CHL1    C3 5325   5.035   0.816   2.523  0.2053 -0.9409 -0.1699
   57CHL1    H3 5326   4.981   0.727   2.561  1.1676 -1.2105  0.5903
   57CHL1    O3 5327   5.003   0.844   2.389 -0.3997 -0.0510 -0.1830
   57CHL1   H3' 5328   5.010   0.761   2.340 -2.7766 -0.6056  0.3433
   57CHL1    C4 5329   4.984   0.941   2.600 -0.2959  0.1892 -0.6369
   57CHL1   H4A 5330   5.024   1.031   2.548 -0.8640  2.2919  2.2662
   57CHL1   H4B 5331   4.874   0.950   2.607 -0.2131 -0.0164  3.1340
   57CHL1    C5 5332   5.032   0.925   2.741 -0.5358 -0.1286 -1.0276
   57CHL1    C6 5333   4.939   0.930   2.844 -0.4785 -0.1261  0.7005
   57CHL1    H6 5334   4.836   0.948   2.809 -0.5871  1.4031  1.6846
   57CHL1    C7 5335   4.964   0.928   2.995 -0.4331  0.5862 -0.5530
   57CHL1   H7A 5336   4.926   1.023   3.037  2.2431  1.2475  0.5603
   57CHL1   H7B 5337   4.915   0.836   3.034 -1.4462  1.2773 -0.1533
   57CHL1    C8 5338   5.117   0.928   3.018  0.3450  0.5236 -0.4235
   57CHL1    H8 5339   5.152   1.034   3.017  2.9150 -0.2370 -2.3653
   57CHL1   C14 5340   5.138   0.864   3.162  0.1511 -0.0813 -0.4519
   57CHL1   H14 5341   5.103   0.759   3.166  0.8719 -0.2922  1.7784
   57CHL1   C15 5342   5.063   0.930   3.287  0.2271  0.4713 -0.5878
   57CHL1  H15A 5343   5.073   1.039   3.270  2.3980 -0.0081 -3.0309
   57CHL1  H15B 5344   4.959   0.890   3.294  0.3781  0.0240 -0.8534
   57CHL1   C16 5345   5.143   0.893   3.411 -0.4073  0.6560  0.0327
   57CHL1  H16A 5346   5.177   0.987   3.461  0.5837  0.2261  0.1855
   57CHL1  H16B 5347   5.078   0.827   3.473  0.0519  0.2338  0.0695
   57CHL1   C17 5348   5.260   0.807   3.361  0.8064  0.3238  0.0153
   57CHL1   H17 5349   5.223   0.703   3.357 -1.7379  1.1328  0.9231
   57CHL1   C13 5350   5.283   0.855   3.212  0.1820 -0.3368 -0.6351
   57CHL1   C18 5351   5.351   0.993   3.210 -0.0599 -0.9217 -0.6042
   57CHL1  H18A 5352   5.310   1.057   3.291 -0.1070 -0.6237 -0.8607
   57CHL1  H18B 5353   5.461   1.003   3.224 -0.5616  3.3211  2.1222
   57CHL1  H18C 5354   5.329   1.057   3.121  0.8698 -0.2243 -0.3483
   57CHL1   C12 5355   5.357   0.772   3.111  0.1561 -0.0987  0.1163
   57CHL1  H12A 5356   5.463   0.768   3.142 -0.3566  1.6757  2.3501
   57CHL1  H12B 5357   5.319   0.667   3.111 -0.6168  0.1772 -0.1091
   57CHL1   C11 5358   5.342   0.831   2.964 -0.1421 -0.1773 -0.0714
   57CHL1  H11A 5359   5.409   0.919   2.957 -1.0558  0.6166  0.9224
   57CHL1  H11B 5360   5.396   0.753   2.906  1.4123 -1.5717  2.9933
   57CHL1    C9 5361   5.197   0.850   2.915 -0.6579  1.0509 -0.3948
   57CHL1    H9 5362   5.148   0.752   2.931  2.9889 -0.6904  1.5088
   57CHL1   C10 5363   5.184   0.893   2.764  0.4343  0.2541  0.4033
   57CHL1   C19 5364   5.266   1.024   2.741 -0.0148  0.2665  0.1818
   57CHL1  H19A 5365   5.370   0.993   2.763 -0.0955 -0.6199 -0.6302
   57CHL1  H19B 5366   5.260   1.057   2.635  1.1983 -1.0177 -0.3086
   57CHL1  H19C 5367   5.237   1.103   2.814 -0.2762  0.0567  0.3085
   57CHL1    C1 5368   5.229   0.781   2.669 -0.6339  0.1298  0.3851
   57CHL1   H1A 5369   5.340   0.779   2.677 -0.5097  3.2315  0.3519
   57CHL1   H1B 5370   5.196   0.686   2.716 -0.2521  0.7715  2.0032
   57CHL1    C2 5371   5.191   0.803   2.523  0.1126  0.8667 -0.4904
   57CHL1   H2A 5372   5.225   0.717   2.462  1.7403 -0.7781  2.4871
   57CHL1   H2B 5373   5.226   0.899   2.479 -0.4767  0.7133 -1.3111
   57CHL1   C20 5374   5.391   0.807   3.450  0.4305 -0.1059 -0.8426
   57CHL1   H20 5375   5.434   0.910   3.450 -0.8489  0.4605 -0.9582
   57CHL1   C21 5376   5.500   0.699   3.421  0.8898 -0.1823 -0.0757
   57CHL1  H21A 5377   5.446   0.603   3.404  2.9430 -1.2303 -1.0972
   57CHL1  H21B 5378   5.574   0.689   3.503  1.4729  1.4481 -0.3769
   57CHL1  H21C 5379   5.553   0.739   3.332  0.2666 -0.2958 -0.5075
   57CHL1   C22 5380   5.361   0.801   3.606 -0.5655  0.5094 -0.0961
   57CHL1  H22A 5381   5.450   0.826   3.668 -0.5136  0.3270 -0.0950
   57CHL1  H22B 5382   5.288   0.878   3.638 -1.3702 -0.6309  0.8986
   57CHL1   C23 5383   5.324   0.665   3.667  1.2466 -0.8275 -0.1067
   57CHL1  H23A 5384   5.251   0.615   3.599  2.1568 -1.4709 -0.6362
   57CHL1  H23B 5385   5.409   0.594   3.679  2.1208  0.3373  0.8492
   57CHL1   C24 5386   5.270   0.691   3.805 -0.6661 -0.0620  0.5444
   57CHL1  H24A 5387   5.352   0.743   3.859  0.4077 -1.7718  0.6314
   57CHL1  H24B 5388   5.179   0.754   3.810 -1.5776 -1.0723 -1.8837
   57CHL1   C25 5389   5.230   0.566   3.883  0.7421  0.3821  0.5572
   57CHL1   H25 5390   5.322   0.503   3.893 -0.0023 -0.4019  2.9672
   57CHL1   C26 5391   5.182   0.597   4.027  0.3387 -0.1548 -0.2922
   57CHL1  H26A 5392   5.160   0.502   4.080 -3.6397 -0.0191 -1.4343
   57CHL1  H26B 5393   5.265   0.661   4.065  1.8368 -1.3799 -1.3660
   57CHL1  H26C 5394   5.098   0.669   4.020  0.5065  0.0845  0.0956
   57CHL1   C27 5395   5.122   0.482   3.812 -0.0210  0.0758  0.1738
   57CHL1  H27A 5396   5.135   0.453   3.705  0.5096 -0.6433  0.4255
   57CHL1  H27B 5397   5.094   0.398   3.878 -0.0129  0.2746  0.4293
   57CHL1  H27C 5398   5.025   0.535   3.815  0.0511  0.2071  3.4476
   58CHL1    C3 5399   3.803   1.494   2.965  0.0452  0.2319 -0.2057
   58CHL1    H3 5400   3.910   1.508   2.938 -0.4250 -0.4681 -2.7229
   58CHL1    O3 5401   3.735   1.476   2.839  0.5087 -0.0938  0.2472
   58CHL1   H3' 5402   3.652   1.433   2.865 -0.3608 -0.1102 -2.3012
   58CHL1    C4 5403   3.799   1.364   3.039  0.2972 -0.2043  0.5864
   58CHL1   H4A 5404   3.693   1.332   3.030  0.1391  0.6761 -1.0091
   58CHL1   H4B 5405   3.859   1.289   2.983 -1.7003 -0.6868 -1.0515
   58CHL1    C5 5406   3.829   1.379   3.188 -0.2336  0.2400  0.2321
   58CHL1    C6 5407   3.925   1.306   3.237  0.1604 -0.6082 -0.0542
   58CHL1    H6 5408   3.990   1.241   3.175  3.0663  1.4353  0.6485
   58CHL1    C7 5409   3.964   1.309   3.378 -0.1220  0.5754 -0.6675
   58CHL1   H7A 5410   3.969   1.200   3.401 -2.7309  0.3020 -1.0992
   58CHL1   H7B 5411   4.061   1.363   3.383  1.9794 -3.0072  1.2302
   58CHL1    C8 5412   3.857   1.381   3.472  0.1574 -0.4176  0.3434
   58CHL1    H8 5413   3.776   1.305   3.469  1.0663 -1.4021 -0.1572
   58CHL1   C14 5414   3.909   1.396   3.611 -1.2542  0.2190  0.2166
   58CHL1   H14 5415   4.004   1.455   3.606 -0.9642 -0.0404  1.8547
   58CHL1   C15 5416   3.945   1.272   3.692 -0.4864  0.0444 -0.0133
   58CHL1  H15A 5417   3.865   1.198   3.669 -0.4070 -0.2240  0.5721
   58CHL1  H15B 5418   4.045   1.230   3.667 -0.6401 -0.6894  0.5797
   58CHL1   C16 5419   3.928   1.314   3.838  0.2308  0.3401 -0.2851
   58CHL1  H16A 5420   3.852   1.248   3.886  1.2418  0.3279  1.3733
   58CHL1  H16B 5421   4.022   1.303   3.896  1.4932 -1.2207 -2.5127
   58CHL1   C17 5422   3.892   1.464   3.836  0.5633  0.0607 -0.4997
   58CHL1   H17 5423   3.986   1.521   3.824  0.4409 -0.0895 -2.6186
   58CHL1   C13 5424   3.816   1.486   3.702  0.3647  0.5833  0.6810
   58CHL1   C18 5425   3.676   1.428   3.712 -0.2247  0.0327  0.2267
   58CHL1  H18A 5426   3.604   1.499   3.758  1.8189  1.3575  1.5525
   58CHL1  H18B 5427   3.640   1.403   3.610  1.3557 -1.5570  0.0170
   58CHL1  H18C 5428   3.678   1.330   3.765 -0.1326 -0.3543 -0.4828
   58CHL1   C12 5429   3.815   1.629   3.644  0.5394  0.2843  0.2116
   58CHL1  H12A 5430   3.757   1.695   3.712  0.1483  0.5547 -0.3766
   58CHL1  H12B 5431   3.919   1.667   3.640  0.3476  0.7079 -0.9669
   58CHL1   C11 5432   3.745   1.620   3.505 -0.7711 -0.9635  0.0281
   58CHL1  H11A 5433   3.638   1.594   3.518 -0.9694 -0.6198 -0.8614
   58CHL1  H11B 5434   3.739   1.724   3.467  0.9124 -0.2140  1.6299
   58CHL1    C9 5435   3.820   1.520   3.409  0.2289  0.5398  0.2601
   58CHL1    H9 5436   3.915   1.577   3.392 -0.3719  1.1021 -1.5114
   58CHL1   C10 5437   3.756   1.494   3.265  0.0281  0.3757  0.0327
   58CHL1   C19 5438   3.608   1.449   3.281  0.1946 -0.0566 -0.3640
   58CHL1  H19A 5439   3.565   1.426   3.182 -0.8643  1.7448 -0.3533
   58CHL1  H19B 5440   3.608   1.353   3.338 -1.2081  0.8582  1.2539
   58CHL1  H19C 5441   3.542   1.512   3.344 -0.6910 -2.9833  1.9143
   58CHL1    C1 5442   3.770   1.627   3.181  0.4838  0.1495 -0.0506
   58CHL1   H1A 5443   3.705   1.704   3.228  0.2933 -0.1482  0.1775
   58CHL1   H1B 5444   3.876   1.661   3.189  0.4605 -0.1137  2.0333
   58CHL1    C2 5445   3.732   1.614   3.032 -0.4116  0.7837 -0.2459
   58CHL1   H2A 5446   3.762   1.713   2.991  1.3066  0.5661  0.3979
   58CHL1   H2B 5447   3.623   1.598   3.035 -0.1520 -1.1357  1.1289
   58CHL1   C20 5448   3.834   1.516   3.964 -0.6576 -0.4569  0.3644
   58CHL1   H20 5449   3.794   1.619   3.951  0.4119  0.4006  3.1085
   58CHL1   C21 5450   3.958   1.534   4.062 -0.3408  0.3888 -0.5224
   58CHL1  H21A 5451   3.924   1.586   4.154 -1.6708 -0.6630 -0.4035
   58CHL1  H21B 5452   4.029   1.605   4.013  0.7778 -1.1838 -1.2942
   58CHL1  H21C 5453   4.008   1.437   4.083  2.1028  1.7969  0.6294
   58CHL1   C22 5454   3.734   1.419   4.032 -0.5648 -0.0739 -0.3155
   58CHL1  H22A 5455   3.670   1.359   3.963 -1.0182  1.9733 -1.7480
   58CHL1  H22B 5456   3.795   1.338   4.078 -1.3526 -0.6136 -0.1989
   58CHL1   C23 5457   3.647   1.490   4.131  0.2340  0.0066 -0.5003
   58CHL1  H23A 5458   3.715   1.491   4.219  2.6066 -1.9347 -2.1770
   58CHL1  H23B 5459   3.630   1.595   4.098  1.3415 -0.1361 -1.5873
   58CHL1   C24 5460   3.512   1.420   4.162  0.3389  0.2514  0.0122
   58CHL1  H24A 5461   3.458   1.421   4.064 -0.9687  3.1089  0.6450
   58CHL1  H24B 5462   3.524   1.316   4.198 -0.0280  1.0460  2.6446
   58CHL1   C25 5463   3.422   1.501   4.260  0.3528 -0.0724  0.9101
   58CHL1   H25 5464   3.382   1.595   4.216  0.4727 -1.4353 -2.3424
   58CHL1   C26 5465   3.298   1.416   4.287 -0.0706 -0.5873  0.1422
   58CHL1  H26A 5466   3.223   1.467   4.352 -1.0016  0.5427 -1.7443
   58CHL1  H26B 5467   3.236   1.415   4.195 -0.2745  1.4822  0.1941
   58CHL1  H26C 5468   3.327   1.318   4.331  2.0388 -0.1726 -0.2173
   58CHL1   C27 5469   3.491   1.532   4.395  0.3265  0.2863 -0.1350
   58CHL1  H27A 5470   3.521   1.435   4.442 -0.9313  0.2742  0.6843
   58CHL1  H27B 5471   3.572   1.608   4.394 -0.3568  1.0291  0.2016
   58CHL1  H27C 5472   3.417   1.577   4.465  0.7801  1.5782 -0.4591
   59CHL1    C3 5473   3.214   0.644   2.780 -0.0972 -0.1641  0.1199
   59CHL1    H3 5474   3.272   0.738   2.783  0.1049 -0.1349 -2.3534
   59CHL1    O3 5475   3.197   0.607   2.643  0.7983 -0.1030  0.0218
   59CHL1   H3' 5476   3.272   0.655   2.607 -0.2645  2.3061  0.8217
   59CHL1    C4 5477   3.297   0.539   2.866  0.1347 -0.1118 -0.2214
   59CHL1   H4A 5478   3.254   0.438   2.852  0.1871 -0.6200  2.7397
   59CHL1   H4B 5479   3.399   0.534   2.821  0.9374  2.4676  1.1206
   59CHL1    C5 5480   3.286   0.567   3.016  0.3849  0.1304 -0.1271
   59CHL1    C6 5481   3.391   0.584   3.095 -0.6230  0.6277 -0.3464
   59CHL1    H6 5482   3.491   0.583   3.050 -0.1920  1.8666  0.5223
   59CHL1    C7 5483   3.389   0.602   3.243  0.3293 -0.4849 -0.4857
   59CHL1   H7A 5484   3.460   0.532   3.292  1.2448 -0.1214 -1.2412
   59CHL1   H7B 5485   3.413   0.703   3.283  1.2140 -1.7188  2.3470
   59CHL1    C8 5486   3.256   0.561   3.305  0.8643 -0.3454 -0.2278
   59CHL1    H8 5487   3.249   0.451   3.306 -0.0536 -0.2944  0.6505
   59CHL1   C14 5488   3.247   0.607   3.446  0.8377  0.2049  0.2268
   59CHL1   H14 5489   3.261   0.718   3.445  2.2350  0.0497 -0.6865
   59CHL1   C15 5490   3.361   0.558   3.530 -0.2010  0.3617 -0.1542
   59CHL1  H15A 5491   3.374   0.453   3.497 -0.9214 -0.0267  0.7644
   59CHL1  H15B 5492   3.452   0.619   3.515  0.8069 -0.5932  1.7352
   59CHL1   C16 5493   3.307   0.570   3.670 -0.3211 -0.2818 -0.0150
   59CHL1  H16A 5494   3.307   0.472   3.723 -0.1864  1.1653  2.8794
   59CHL1  H16B 5495   3.359   0.638   3.742  0.1735 -0.5490 -0.1152
   59CHL1   C17 5496   3.162   0.634   3.656  0.1092  0.2861 -0.5377
   59CHL1   H17 5497   3.169   0.745   3.653  0.5865  0.2513 -2.9303
   59CHL1   C13 5498   3.119   0.584   3.520 -0.4209  0.2461 -0.1828
   59CHL1   C18 5499   3.083   0.433   3.527  0.1705 -1.1949  0.6420
   59CHL1  H18A 5500   3.166   0.383   3.581  1.3555 -0.4743 -0.4576
   59CHL1  H18B 5501   2.991   0.413   3.586  1.1177 -1.8222  1.9569
   59CHL1  H18C 5502   3.079   0.398   3.421 -1.0129  2.4412 -0.6669
   59CHL1   C12 5503   3.008   0.659   3.439  0.3042  0.4359  0.1454
   59CHL1  H12A 5504   2.909   0.641   3.485  1.1288  0.6708  2.1070
   59CHL1  H12B 5505   3.026   0.769   3.436  2.0177  0.1727 -1.8977
   59CHL1   C11 5506   3.004   0.607   3.296  0.0815 -0.3503 -0.0369
   59CHL1  H11A 5507   2.961   0.504   3.294 -0.3098 -0.1859 -0.3381
   59CHL1  H11B 5508   2.920   0.658   3.244 -1.6729 -1.7754  1.2757
   59CHL1    C9 5509   3.142   0.619   3.223  0.2591  0.0344  0.2157
   59CHL1    H9 5510   3.157   0.729   3.220  1.2284 -0.0759  0.4360
   59CHL1   C10 5511   3.145   0.575   3.072  0.1562 -0.7281  0.5067
   59CHL1   C19 5512   3.072   0.434   3.070  0.7793 -0.7190  0.0096
   59CHL1  H19A 5513   2.963   0.449   3.084  0.5042 -2.0623 -0.5053
   59CHL1  H19B 5514   3.084   0.380   2.974 -0.4471 -3.3786  1.2543
   59CHL1  H19C 5515   3.106   0.373   3.157 -0.6382  1.1493  1.9908
   59CHL1    C1 5516   3.066   0.675   2.988  1.2707  0.4908 -0.4046
   59CHL1   H1A 5517   2.959   0.667   3.016  1.7660  0.0533  1.5287
   59CHL1   H1B 5518   3.091   0.781   3.008 -3.1201  1.8058 -0.9555
   59CHL1    C2 5519   3.071   0.659   2.836  0.1610  0.1918 -1.1634
   59CHL1   H2A 5520   3.026   0.749   2.789 -0.8106  0.7584  0.7196
   59CHL1   H2B 5521   3.014   0.567   2.813 -0.9410  0.7530 -0.7727
   59CHL1   C20 5522   3.072   0.593   3.775 -0.5351 -0.6086  0.0713
   59CHL1   H20 5523   3.051   0.484   3.772  0.7257 -0.8452 -1.5527
   59CHL1   C21 5524   2.943   0.678   3.772  0.0219  0.3037  0.3317
   59CHL1  H21A 5525   2.876   0.634   3.696  1.5469 -1.6078  0.0277
   59CHL1  H21B 5526   2.966   0.782   3.740  0.7582  0.7536  2.1907
   59CHL1  H21C 5527   2.890   0.664   3.869  0.2047 -0.5020  0.3185
   59CHL1   C22 5528   3.152   0.606   3.906 -0.0107 -0.3989 -0.4623
   59CHL1  H22A 5529   3.085   0.572   3.987 -0.2614  0.5283 -0.2661
   59CHL1  H22B 5530   3.223   0.523   3.889  0.9236  0.1886  0.4470
   59CHL1   C23 5531   3.200   0.744   3.951 -0.1742 -0.5972 -0.3164
   59CHL1  H23A 5532   3.273   0.793   3.883  0.1357 -0.8303 -0.1554
   59CHL1  H23B 5533   3.113   0.812   3.961 -0.8133 -1.3774 -0.5171
   59CHL1   C24 5534   3.268   0.732   4.092  0.4086  0.2353  0.2275
   59CHL1  H24A 5535   3.209   0.664   4.157 -0.1252 -0.7167 -1.2016
   59CHL1  H24B 5536   3.359   0.678   4.060  0.1455 -1.1148  1.6815
   59CHL1   C25 5537   3.319   0.864   4.155  0.4884 -0.4701  0.2498
   59CHL1   H25 5538   3.359   0.927   4.073 -0.1148  0.0589  0.3521
   59CHL1   C26 5539   3.194   0.946   4.204  0.1186 -0.7271 -0.1289
   59CHL1  H26A 5540   3.132   0.908   4.288 -0.6380 -0.5570 -0.5989
   59CHL1  H26B 5541   3.227   1.045   4.243 -1.6679 -0.6326  1.2683
   59CHL1  H26C 5542   3.116   0.960   4.126  0.0947 -0.4942 -0.0652
   59CHL1   C27 5543   3.430   0.835   4.264 -0.3688  0.3355  0.1228
   59CHL1  H27A 5544   3.387   0.756   4.329  0.5119  0.4817  0.9183
   59CHL1  H27B 5545   3.517   0.789   4.213 -0.3717  0.2945  0.1546
   59CHL1  H27C 5546   3.465   0.920   4.327  0.6614 -0.4131  0.5821
   60CHL1    C3 5547   4.803   5.996   2.784  0.0411 -0.0087 -1.6530
   60CHL1    H3 5548   4.837   6.094   2.745  0.8435  0.7310  0.7267
   60CHL1    O3 5549   4.776   5.904   2.679  0.0815 -0.6089 -0.6551
   60CHL1   H3' 5550   4.699   5.945   2.640 -0.1124  1.8426  1.9900
   60CHL1    C4 5551   4.927   5.942   2.869 -0.3612  0.2941  0.8109
   60CHL1   H4A 5552   4.905   5.834   2.881  0.0499  0.0917 -0.2112
   60CHL1   H4B 5553   5.011   5.942   2.797 -0.1117  0.1267  1.0972
   60CHL1    C5 5554   4.954   6.019   2.995 -0.4308  0.7528  0.3685
   60CHL1    C6 5555   5.083   6.048   3.019  0.2709 -0.5761  0.4630
   60CHL1    H6 5556   5.166   6.016   2.954  1.1179 -0.9304  1.6798
   60CHL1    C7 5557   5.120   6.133   3.139  0.7591  0.4055 -0.9149
   60CHL1   H7A 5558   5.206   6.087   3.193 -2.2423 -0.8082  3.4297
   60CHL1   H7B 5559   5.143   6.230   3.091  1.4893  0.6838 -0.0395
   60CHL1    C8 5560   5.011   6.151   3.252 -0.1099  0.6283 -0.3565
   60CHL1    H8 5561   5.003   6.054   3.306  1.0484  0.9156  0.3620
   60CHL1   C14 5562   5.032   6.269   3.342 -0.1295 -0.0728  0.2295
   60CHL1   H14 5563   5.023   6.345   3.261 -0.3068 -1.1861 -0.8300
   60CHL1   C15 5564   5.168   6.297   3.412  0.1375 -0.0182  0.0167
   60CHL1  H15A 5565   5.202   6.212   3.476 -2.5480  0.5141  2.3525
   60CHL1  H15B 5566   5.236   6.331   3.331 -2.3351  1.4593 -1.5286
   60CHL1   C16 5567   5.142   6.408   3.514 -0.5124 -0.4518  0.1472
   60CHL1  H16A 5568   5.193   6.394   3.612 -1.4104  1.4171  0.9358
   60CHL1  H16B 5569   5.181   6.505   3.476  0.5372 -1.1950 -0.7271
   60CHL1   C17 5570   4.988   6.418   3.524  0.3215  0.7673  0.6752
   60CHL1   H17 5571   4.969   6.507   3.460 -0.2298  0.3457  0.2432
   60CHL1   C13 5572   4.929   6.298   3.454  0.8626  1.2475  0.3864
   60CHL1   C18 5573   4.936   6.168   3.548  0.4616 -0.5513 -0.1773
   60CHL1  H18A 5574   4.871   6.187   3.636 -0.7677 -2.3956 -0.6418
   60CHL1  H18B 5575   4.902   6.073   3.501  2.1849 -0.9825 -0.6293
   60CHL1  H18C 5576   5.039   6.146   3.584  0.3410 -2.2725 -0.8068
   60CHL1   C12 5577   4.793   6.315   3.378 -0.0416 -0.6304 -0.2361
   60CHL1  H12A 5578   4.707   6.326   3.447  0.9971 -2.0555  1.3586
   60CHL1  H12B 5579   4.805   6.412   3.325 -3.2460  0.6918  1.1994
   60CHL1   C11 5580   4.755   6.202   3.283  0.3987 -0.2422  0.4192
   60CHL1  H11A 5581   4.742   6.112   3.347  0.1389 -2.8001 -2.9563
   60CHL1  H11B 5582   4.658   6.213   3.231  0.4299 -2.3599 -0.1667
   60CHL1    C9 5583   4.869   6.167   3.185 -0.2781 -0.1534  0.7178
   60CHL1    H9 5584   4.872   6.252   3.113 -0.0943 -1.2352 -0.5781
   60CHL1   C10 5585   4.832   6.054   3.083 -0.6652 -0.6009  0.1014
   60CHL1   C19 5586   4.794   5.931   3.164  0.3624  0.4737  0.0668
   60CHL1  H19A 5587   4.878   5.901   3.230  0.1217 -0.4651 -0.0385
   60CHL1  H19B 5588   4.710   5.951   3.233  0.8064 -1.0208  1.0959
   60CHL1  H19C 5589   4.766   5.837   3.111  2.1912 -1.6365  2.5498
   60CHL1    C1 5590   4.708   6.099   2.998  0.3332 -0.5760  0.2526
   60CHL1   H1A 5591   4.615   6.099   3.059  0.7620  0.6691  0.9523
   60CHL1   H1B 5592   4.721   6.203   2.959 -1.2275 -1.1105 -1.8482
   60CHL1    C2 5593   4.681   6.009   2.878 -0.0388  0.5029 -0.3170
   60CHL1   H2A 5594   4.596   6.052   2.822 -1.3102  1.1632  1.9901
   60CHL1   H2B 5595   4.643   5.909   2.908  1.1630 -0.1726 -0.9568
   60CHL1   C20 5596   4.942   6.457   3.663 -0.1004 -0.0401  1.0585
   60CHL1   H20 5597   4.969   6.379   3.738  0.4270 -0.3483  0.5574
   60CHL1   C21 5598   4.791   6.491   3.661  0.1117  0.4139 -0.0111
   60CHL1  H21A 5599   4.754   6.516   3.762  0.7268  1.2837  0.0103
   60CHL1  H21B 5600   4.732   6.403   3.629 -0.8399  1.0098  0.0763
   60CHL1  H21C 5601   4.759   6.572   3.592  0.0523 -1.0367 -1.7775
   60CHL1   C22 5602   5.020   6.590   3.707 -0.5485  0.4857  0.4609
   60CHL1  H22A 5603   5.127   6.589   3.676 -0.9181  3.0603 -1.1539
   60CHL1  H22B 5604   4.967   6.674   3.657  0.6135  0.4809 -0.8541
   60CHL1   C23 5605   5.024   6.610   3.858  0.6028 -0.0315  0.2877
   60CHL1  H23A 5606   4.918   6.602   3.888  1.1267  2.8102  3.4427
   60CHL1  H23B 5607   5.083   6.530   3.908  0.5069  0.7298  1.6523
   60CHL1   C24 5608   5.069   6.753   3.903  0.2871  0.0471 -0.5053
   60CHL1  H24A 5609   5.012   6.827   3.843 -0.7763 -0.6626 -0.3904
   60CHL1  H24B 5610   5.045   6.777   4.009 -0.5393 -0.6512 -0.5254
   60CHL1   C25 5611   5.222   6.782   3.881 -0.3473 -0.2957 -0.8724
   60CHL1   H25 5612   5.255   6.758   3.778  0.9253 -0.9157 -0.3486
   60CHL1   C26 5613   5.247   6.935   3.890  0.4238  0.4968 -0.0985
   60CHL1  H26A 5614   5.355   6.954   3.876  0.8119 -1.4430 -0.1187
   60CHL1  H26B 5615   5.190   6.988   3.811 -0.3602 -0.4228 -0.1661
   60CHL1  H26C 5616   5.214   6.968   3.991 -1.4216 -2.0559  0.2397
   60CHL1   C27 5617   5.310   6.686   3.979 -0.6094  0.0089  0.2110
   60CHL1  H27A 5618   5.305   6.580   3.946 -1.0300  0.7109 -2.1607
   60CHL1  H27B 5619   5.417   6.716   3.974 -0.8172  0.5551 -1.4725
   60CHL1  H27C 5620   5.269   6.680   4.082  1.3413 -0.6690  1.0005
   61CHL1    C3 5621   5.509   1.847   2.945  0.4304 -0.2947  0.2449
   61CHL1    H3 5622   5.463   1.949   2.948 -2.7598 -1.4855 -2.2068
   61CHL1    O3 5623   5.482   1.798   2.811  0.0894 -0.2330  0.1108
   61CHL1   H3' 5624   5.545   1.849   2.761  1.4560 -0.1785  1.7833
   61CHL1    C4 5625   5.664   1.849   2.964 -0.2621  0.2090  0.0935
   61CHL1   H4A 5626   5.704   1.746   2.956  2.8085  1.0572  2.5978
   61CHL1   H4B 5627   5.699   1.917   2.884 -1.3783  2.6615  1.5656
   61CHL1    C5 5628   5.695   1.902   3.103 -0.8937 -0.2519  0.1508
   61CHL1    C6 5629   5.777   2.006   3.126  0.3143  0.1038 -0.6863
   61CHL1    H6 5630   5.823   2.059   3.041 -0.9246  1.2325 -0.6844
   61CHL1    C7 5631   5.813   2.056   3.263 -0.0878 -0.3870  0.5165
   61CHL1   H7A 5632   5.921   2.082   3.270  0.0631 -0.6400 -0.6909
   61CHL1   H7B 5633   5.750   2.148   3.271 -1.8283 -1.4153 -0.7843
   61CHL1    C8 5634   5.788   1.949   3.370 -0.4137  0.1531 -0.2748
   61CHL1    H8 5635   5.861   1.868   3.350 -2.1207 -0.8892 -2.7674
   61CHL1   C14 5636   5.811   2.012   3.503 -0.0269 -0.1573  0.3969
   61CHL1   H14 5637   5.753   2.107   3.504 -0.3759 -0.2846 -2.2532
   61CHL1   C15 5638   5.950   2.067   3.534  0.4044 -0.4822  0.4076
   61CHL1  H15A 5639   6.014   1.986   3.493 -1.4711 -1.0632 -1.5615
   61CHL1  H15B 5640   5.979   2.167   3.495 -2.4220  0.6593  0.9905
   61CHL1   C16 5641   5.961   2.077   3.688  0.2853 -0.1235  0.1294
   61CHL1  H16A 5642   6.050   2.017   3.714  0.2144  0.1730  1.1053
   61CHL1  H16B 5643   5.966   2.186   3.712  0.6357  0.1242 -0.9801
   61CHL1   C17 5644   5.827   2.021   3.745 -0.0642 -0.3068  0.5876
   61CHL1   H17 5645   5.752   2.103   3.751  0.3354  0.0866  0.2309
   61CHL1   C13 5646   5.775   1.931   3.633  0.3003 -0.5843  0.4905
   61CHL1   C18 5647   5.854   1.802   3.634  0.4114  0.1687 -0.1169
   61CHL1  H18A 5648   5.855   1.753   3.534  3.0511  2.2599 -1.2383
   61CHL1  H18B 5649   5.960   1.814   3.664  0.6254 -0.3195 -0.6453
   61CHL1  H18C 5650   5.819   1.729   3.710 -0.1516 -0.3991 -0.9017
   61CHL1   C12 5651   5.630   1.903   3.620  0.5741  0.2057  0.2622
   61CHL1  H12A 5652   5.592   1.831   3.696 -0.8960  2.9690  2.3209
   61CHL1  H12B 5653   5.570   1.997   3.620  0.6386  0.2640 -0.8699
   61CHL1   C11 5654   5.595   1.826   3.487 -0.2196  0.0680 -0.3754
   61CHL1  H11A 5655   5.643   1.726   3.483 -0.8938 -0.2278 -1.7479
   61CHL1  H11B 5656   5.486   1.806   3.480 -0.1708 -1.8456  2.5990
   61CHL1    C9 5657   5.641   1.902   3.361  0.2432 -0.1045 -0.2211
   61CHL1    H9 5658   5.576   1.992   3.356  1.0299  0.4601 -0.5998
   61CHL1   C10 5659   5.623   1.827   3.222  0.1873 -0.8258 -0.7562
   61CHL1   C19 5660   5.690   1.689   3.221  0.6876 -0.5729  0.0442
   61CHL1  H19A 5661   5.798   1.682   3.244  1.7098 -2.2169 -4.2942
   61CHL1  H19B 5662   5.636   1.636   3.303 -3.0620  1.5305 -0.8399
   61CHL1  H19C 5663   5.666   1.626   3.132 -1.3625 -0.1459  0.2344
   61CHL1    C1 5664   5.474   1.810   3.186 -0.7140 -0.3940  0.4358
   61CHL1   H1A 5665   5.423   1.733   3.247  0.0638 -2.4863 -1.3936
   61CHL1   H1B 5666   5.414   1.903   3.193 -0.4024 -0.2149  0.7544
   61CHL1    C2 5667   5.449   1.756   3.046  0.1381  0.0018  0.0605
   61CHL1   H2A 5668   5.340   1.745   3.030 -0.1863  3.7850 -1.2997
   61CHL1   H2B 5669   5.491   1.654   3.031  0.5840  0.2446 -0.3506
   61CHL1   C20 5670   5.837   1.965   3.886 -0.5074 -0.2370  0.4195
   61CHL1   H20 5671   5.893   1.869   3.889  1.7434  0.9330 -1.2152
   61CHL1   C21 5672   5.699   1.935   3.940  0.0671 -0.0322 -0.6299
   61CHL1  H21A 5673   5.642   2.029   3.924  3.8538  2.6604  0.5319
   61CHL1  H21B 5674   5.698   1.910   4.048 -0.9000  0.5517 -0.4861
   61CHL1  H21C 5675   5.651   1.847   3.892  0.3719 -1.2549  1.2203
   61CHL1   C22 5676   5.913   2.058   3.986  0.3473 -0.3749 -0.4033
   61CHL1  H22A 5677   6.020   2.065   3.957  1.2037  2.1419  2.7178
   61CHL1  H22B 5678   5.850   2.149   3.972 -2.4450 -2.2065 -0.4840
   61CHL1   C23 5679   5.910   2.023   4.134 -0.5220 -0.7865 -0.2903
   61CHL1  H23A 5680   5.808   2.032   4.176 -0.2145  2.3891  0.0889
   61CHL1  H23B 5681   5.938   1.916   4.145 -0.7362 -0.8465 -0.3347
   61CHL1   C24 5682   6.012   2.116   4.204  0.1776 -0.0068 -0.7836
   61CHL1  H24A 5683   6.117   2.093   4.177  0.3858  2.5986 -2.4915
   61CHL1  H24B 5684   5.999   2.225   4.190  0.6234  0.2744  0.8203
   61CHL1   C25 5685   6.016   2.107   4.360 -0.1442 -0.2130 -0.0385
   61CHL1   H25 5686   6.002   2.001   4.391  0.3167 -0.3974 -0.4485
   61CHL1   C26 5687   6.142   2.166   4.427 -0.6791 -0.1964 -0.4364
   61CHL1  H26A 5688   6.166   2.273   4.406 -2.1867  0.2350 -0.0631
   61CHL1  H26B 5689   6.148   2.158   4.537 -0.9285  1.4903 -0.2711
   61CHL1  H26C 5690   6.224   2.102   4.388 -0.3768 -0.3751  0.4865
   61CHL1   C27 5691   5.887   2.170   4.425 -0.0748  0.3891 -0.9005
   61CHL1  H27A 5692   5.903   2.170   4.535  1.4856  0.2801 -1.1058
   61CHL1  H27B 5693   5.873   2.274   4.389 -1.2639  0.6378  0.2123
   61CHL1  H27C 5694   5.801   2.106   4.395  1.6207 -1.0757 -2.9102
   62CHL1    C3 5695   0.360   2.182   2.603  0.0485  0.0256 -0.3282
   62CHL1    H3 5696   0.385   2.284   2.639  1.4677 -0.5270  0.3123
   62CHL1    O3 5697   0.374   2.180   2.460 -0.7043 -0.7802  0.4597
   62CHL1   H3' 5698   0.370   2.085   2.442 -0.4085 -1.1778  2.3200
   62CHL1    C4 5699   0.451   2.082   2.669 -0.4187 -0.1828  0.9277
   62CHL1   H4A 5700   0.437   1.979   2.632  1.1782  0.5514 -1.9847
   62CHL1   H4B 5701   0.554   2.109   2.638 -0.3402  0.9030  2.0077
   62CHL1    C5 5702   0.453   2.089   2.817 -0.2513  0.8242  0.1743
   62CHL1    C6 5703   0.566   2.114   2.886 -0.4110 -0.2513 -0.5061
   62CHL1    H6 5704   0.661   2.132   2.833 -0.3888  3.1468  0.4610
   62CHL1    C7 5705   0.580   2.133   3.033  0.5116 -0.6006  0.0201
   62CHL1   H7A 5706   0.664   2.075   3.078 -0.6069 -2.9031 -0.6942
   62CHL1   H7B 5707   0.600   2.240   3.053  2.6112 -0.2865 -3.1899
   62CHL1    C8 5708   0.454   2.080   3.115  0.8932  0.2483 -0.1341
   62CHL1    H8 5709   0.463   1.971   3.130  0.5343 -0.0795 -2.0290
   62CHL1   C14 5710   0.438   2.140   3.255  0.2936  0.2809  0.5949
   62CHL1   H14 5711   0.414   2.246   3.234  0.9695  0.1891 -0.7932
   62CHL1   C15 5712   0.564   2.130   3.342  0.9720 -0.0215  0.0217
   62CHL1  H15A 5713   0.603   2.026   3.348  1.1910  0.1514  2.9751
   62CHL1  H15B 5714   0.636   2.202   3.298  1.5821  0.2243  1.3822
   62CHL1   C16 5715   0.512   2.159   3.492 -0.5765  0.1041  0.4946
   62CHL1  H16A 5716   0.551   2.066   3.539 -0.8043 -1.0115 -1.4275
   62CHL1  H16B 5717   0.557   2.245   3.546  1.3304 -0.3780 -0.2559
   62CHL1   C17 5718   0.361   2.165   3.479  0.0669  0.5910  0.2713
   62CHL1   H17 5719   0.339   2.273   3.467 -0.5421  0.7178  2.1816
   62CHL1   C13 5720   0.322   2.095   3.345 -0.0181  0.5293 -0.0959
   62CHL1   C18 5721   0.331   1.941   3.370 -0.5148 -1.1338  0.4805
   62CHL1  H18A 5722   0.327   1.872   3.282  0.2887  1.2882 -1.6015
   62CHL1  H18B 5723   0.427   1.916   3.420  0.0071  0.1037  0.1375
   62CHL1  H18C 5724   0.253   1.911   3.443 -1.9583 -0.5221 -0.7481
   62CHL1   C12 5725   0.193   2.143   3.263 -0.2456  0.2409 -0.4703
   62CHL1  H12A 5726   0.100   2.098   3.305 -1.1507  1.9574 -0.5496
   62CHL1  H12B 5727   0.184   2.253   3.269  0.1593  0.2206  4.0672
   62CHL1   C11 5728   0.196   2.085   3.121  0.0819 -0.0670 -0.0701
   62CHL1  H11A 5729   0.186   1.975   3.132 -2.0882  0.2824  2.6615
   62CHL1  H11B 5730   0.106   2.107   3.060  0.5524 -1.2417 -1.2268
   62CHL1    C9 5731   0.324   2.108   3.030  0.7082  0.2610 -0.2879
   62CHL1    H9 5732   0.330   2.219   3.027  2.4453  0.2151  0.2990
   62CHL1   C10 5733   0.315   2.065   2.885 -0.9829 -0.2140  0.4705
   62CHL1   C19 5734   0.285   1.909   2.885 -0.2269  0.0226 -0.1190
   62CHL1  H19A 5735   0.352   1.861   2.960  1.7677  1.0100 -1.1879
   62CHL1  H19B 5736   0.177   1.900   2.910 -1.2414  2.9056 -2.8791
   62CHL1  H19C 5737   0.301   1.868   2.783  2.5289  2.3207 -0.7435
   62CHL1    C1 5738   0.212   2.148   2.804 -0.1196 -0.0066  0.6717
   62CHL1   H1A 5739   0.106   2.128   2.829 -0.4791  0.0056 -0.7605
   62CHL1   H1B 5740   0.234   2.253   2.835  3.5344 -0.2112 -0.7345
   62CHL1    C2 5741   0.220   2.148   2.654 -0.0595 -0.0636 -0.4095
   62CHL1   H2A 5742   0.157   2.231   2.614  0.6367  0.6182 -0.1337
   62CHL1   H2B 5743   0.184   2.049   2.619  0.4349  0.0875 -1.3506
   62CHL1   C20 5744   0.289   2.118   3.605 -0.6068  0.2253 -0.4569
   62CHL1   H20 5745   0.315   2.012   3.622  1.5616  0.7493 -0.0801
   62CHL1   C21 5746   0.138   2.128   3.590 -0.1418  0.5249  0.6516
   62CHL1  H21A 5747   0.104   2.067   3.503 -1.2779 -0.6210  1.8467
   62CHL1  H21B 5748   0.112   2.235   3.583 -1.9327  0.1476  0.9384
   62CHL1  H21C 5749   0.094   2.087   3.684  1.0360 -1.8713  0.2339
   62CHL1   C22 5750   0.355   2.192   3.729 -0.2522  0.0448 -0.2667
   62CHL1  H22A 5751   0.466   2.204   3.728 -0.4275  2.2152  1.2273
   62CHL1  H22B 5752   0.315   2.293   3.748 -1.5997 -0.3163 -1.0496
   62CHL1   C23 5753   0.324   2.111   3.857  0.1025 -0.0522  0.2320
   62CHL1  H23A 5754   0.214   2.099   3.861  0.0758 -0.1241 -0.5321
   62CHL1  H23B 5755   0.370   2.010   3.857 -1.6691 -0.9266  2.0939
   62CHL1   C24 5756   0.373   2.191   3.981 -0.8784  0.0703  0.3467
   62CHL1  H24A 5757   0.482   2.177   3.995 -0.8075 -1.2435 -1.2230
   62CHL1  H24B 5758   0.352   2.299   3.968 -0.2228  0.1792  0.1595
   62CHL1   C25 5759   0.308   2.144   4.119 -0.5134  0.4625  0.7088
   62CHL1   H25 5760   0.198   2.140   4.101 -0.3783 -1.1575  0.0375
   62CHL1   C26 5761   0.347   1.999   4.153 -0.2973  0.3624 -0.0821
   62CHL1  H26A 5762   0.448   1.991   4.200 -1.2379 -0.3872  1.9202
   62CHL1  H26B 5763   0.266   1.949   4.210 -0.5517  0.4045 -0.4088
   62CHL1  H26C 5764   0.353   1.930   4.066 -0.4512  0.4648 -0.1744
   62CHL1   C27 5765   0.325   2.239   4.234 -0.0308  0.8821 -0.0056
   62CHL1  H27A 5766   0.258   2.207   4.317  1.1111 -0.8265  0.3111
   62CHL1  H27B 5767   0.431   2.235   4.267 -0.7993  0.5525  2.6660
   62CHL1  H27C 5768   0.288   2.340   4.206 -1.4577  0.5582  0.6024
   63CHL1    C3 5769   4.874   5.207   2.664 -0.1634 -0.3426 -0.9709
   63CHL1    H3 5770   4.765   5.215   2.647  0.2302  2.1349 -2.9140
   63CHL1    O3 5771   4.932   5.193   2.539  0.2853 -0.4911 -0.7765
   63CHL1   H3' 5772   5.022   5.168   2.562 -0.2755 -1.4006  0.6232
   63CHL1    C4 5773   4.919   5.338   2.734  0.3369 -0.2329 -0.5074
   63CHL1   H4A 5774   5.030   5.335   2.743  0.7441  1.0258 -3.6797
   63CHL1   H4B 5775   4.912   5.425   2.665  4.6142  0.1809 -0.6974
   63CHL1    C5 5776   4.849   5.367   2.864 -0.3625 -0.8809 -0.5755
   63CHL1    C6 5777   4.779   5.479   2.883 -0.0930  0.9004 -0.4618
   63CHL1    H6 5778   4.773   5.554   2.803 -3.1027 -2.0483 -3.3317
   63CHL1    C7 5779   4.710   5.510   3.018  0.0342  0.1701 -0.2959
   63CHL1   H7A 5780   4.699   5.617   3.045 -1.9179  0.1495 -0.8846
   63CHL1   H7B 5781   4.609   5.467   3.000  0.2135 -1.1856  1.6292
   63CHL1    C8 5782   4.768   5.428   3.126  0.6298 -1.3214 -0.1728
   63CHL1    H8 5783   4.866   5.474   3.152 -0.3407  1.1632 -0.6238
   63CHL1   C14 5784   4.675   5.447   3.250 -0.5525 -0.7577 -0.5317
   63CHL1   H14 5785   4.571   5.411   3.234 -1.4299 -0.3526  3.2756
   63CHL1   C15 5786   4.663   5.594   3.303  0.4825 -0.3675 -0.2779
   63CHL1  H15A 5787   4.767   5.632   3.305  0.4150 -0.1082 -1.3170
   63CHL1  H15B 5788   4.591   5.657   3.247 -0.0210 -0.9890 -0.3466
   63CHL1   C16 5789   4.615   5.578   3.445 -0.0531 -0.0462  0.5331
   63CHL1  H16A 5790   4.674   5.651   3.505  0.1252  1.0042 -0.8870
   63CHL1  H16B 5791   4.510   5.607   3.467  1.0161  3.0019  2.2995
   63CHL1   C17 5792   4.629   5.424   3.483  0.0779  0.0902 -0.1696
   63CHL1   H17 5793   4.525   5.385   3.476 -0.0062  0.0122  1.2654
   63CHL1   C13 5794   4.721   5.364   3.372  0.8127 -0.3352  0.3706
   63CHL1   C18 5795   4.866   5.380   3.414  0.0061 -0.4193 -0.7218
   63CHL1  H18A 5796   4.894   5.325   3.506 -2.9163 -0.8585  0.0150
   63CHL1  H18B 5797   4.934   5.355   3.330 -1.1317  1.3199 -2.2361
   63CHL1  H18C 5798   4.877   5.486   3.445 -0.1886 -0.6586  0.2109
   63CHL1   C12 5799   4.698   5.217   3.325 -0.4842  0.6337  0.3366
   63CHL1  H12A 5800   4.733   5.145   3.401 -0.0534 -1.3537 -1.6232
   63CHL1  H12B 5801   4.588   5.208   3.313 -0.3344 -0.3521 -0.3817
   63CHL1   C11 5802   4.785   5.177   3.202  0.5308  0.0830  0.7179
   63CHL1  H11A 5803   4.889   5.170   3.238  0.5874  1.9939  1.0254
   63CHL1  H11B 5804   4.761   5.080   3.154 -0.9353  0.6348  0.2799
   63CHL1    C9 5805   4.769   5.280   3.084  0.2404  0.2852  0.1056
   63CHL1    H9 5806   4.671   5.253   3.039  0.9653  1.9641 -2.7680
   63CHL1   C10 5807   4.868   5.258   2.967 -0.5770  0.0204  0.7168
   63CHL1   C19 5808   5.009   5.262   3.023 -0.1728  0.1970  0.1177
   63CHL1  H19A 5809   5.030   5.361   3.069  1.2241  0.5003 -1.1047
   63CHL1  H19B 5810   5.029   5.173   3.086 -1.9193 -0.7347 -0.5831
   63CHL1  H19C 5811   5.093   5.241   2.953 -0.2674 -0.6642  0.2440
   63CHL1    C1 5812   4.825   5.125   2.895 -0.1186 -0.3231 -0.0324
   63CHL1   H1A 5813   4.836   5.047   2.973 -2.5282 -1.3719 -0.6391
   63CHL1   H1B 5814   4.718   5.124   2.865 -0.7625 -0.4948  2.0894
   63CHL1    C2 5815   4.907   5.096   2.769  0.8659  0.0366 -0.3957
   63CHL1   H2A 5816   4.872   5.003   2.719  2.3726  0.8098 -3.1162
   63CHL1   H2B 5817   5.014   5.079   2.792  0.4895 -1.0734  0.6351
   63CHL1   C20 5818   4.663   5.397   3.631  0.4115 -0.5341  0.5502
   63CHL1   H20 5819   4.768   5.423   3.654 -0.2359  2.6317  0.3672
   63CHL1   C21 5820   4.622   5.255   3.666 -0.2793  0.8123 -0.0089
   63CHL1  H21A 5821   4.511   5.244   3.665 -0.1592 -0.6148 -0.9599
   63CHL1  H21B 5822   4.663   5.221   3.764 -0.4798 -0.8307 -0.4763
   63CHL1  H21C 5823   4.669   5.189   3.590  2.2590 -1.8945  3.5871
   63CHL1   C22 5824   4.591   5.491   3.735  0.4789  0.1990  0.8403
   63CHL1  H22A 5825   4.623   5.597   3.722  1.0028  0.0140  0.5815
   63CHL1  H22B 5826   4.482   5.485   3.718  0.8977 -0.5007 -2.1403
   63CHL1   C23 5827   4.618   5.465   3.883 -0.1349  0.8613 -0.2579
   63CHL1  H23A 5828   4.584   5.364   3.912 -2.3476  1.6359  0.0840
   63CHL1  H23B 5829   4.724   5.479   3.914 -0.1990  1.1320 -0.1521
   63CHL1   C24 5830   4.534   5.564   3.970 -0.2416 -0.2536  0.4125
   63CHL1  H24A 5831   4.557   5.671   3.947 -0.5700 -0.4016 -0.6722
   63CHL1  H24B 5832   4.427   5.550   3.943  0.2560  0.1308 -1.9854
   63CHL1   C25 5833   4.534   5.545   4.126 -0.0842 -0.3903 -0.1679
   63CHL1   H25 5834   4.507   5.441   4.157 -1.1422  0.8650  3.7199
   63CHL1   C26 5835   4.678   5.566   4.175 -0.6006  0.3671 -0.2326
   63CHL1  H26A 5836   4.708   5.673   4.165 -1.6245  0.7094  0.1775
   63CHL1  H26B 5837   4.688   5.536   4.282 -0.0803 -0.6489 -0.5614
   63CHL1  H26C 5838   4.753   5.521   4.107  1.2396  0.9752  1.3055
   63CHL1   C27 5839   4.428   5.624   4.201 -0.5428 -0.3414 -0.3217
   63CHL1  H27A 5840   4.327   5.583   4.179 -0.8062 -0.9560  1.7695
   63CHL1  H27B 5841   4.425   5.602   4.310 -1.7040  0.5873 -0.1357
   63CHL1  H27C 5842   4.443   5.734   4.200  1.8678 -0.5981  0.8897
   64CHL1    C3 5843   1.806   5.414   2.818 -0.0880  0.0480 -0.6532
   64CHL1    H3 5844   1.699   5.421   2.789 -0.6934  0.9328  1.6240
   64CHL1    O3 5845   1.888   5.395   2.704  0.4425 -0.0495  0.5537
   64CHL1   H3' 5846   1.884   5.477   2.654 -0.4897 -0.7556 -0.5632
   64CHL1    C4 5847   1.840   5.554   2.889 -0.2026  0.6469 -0.5906
   64CHL1   H4A 5848   1.948   5.557   2.916 -0.1615 -3.4427  0.4861
   64CHL1   H4B 5849   1.802   5.637   2.827  2.5653  1.8671 -0.8199
   64CHL1    C5 5850   1.773   5.571   3.022 -0.0608 -0.0056 -0.0372
   64CHL1    C6 5851   1.696   5.677   3.038  0.4208  0.6154  0.5218
   64CHL1    H6 5852   1.682   5.746   2.953 -1.3227 -1.4347 -0.9730
   64CHL1    C7 5853   1.622   5.711   3.162  0.2498 -0.1450 -0.4523
   64CHL1   H7A 5854   1.631   5.817   3.194 -0.0992 -0.1138 -0.4608
   64CHL1   H7B 5855   1.514   5.689   3.147  0.2940 -2.5631  1.9473
   64CHL1    C8 5856   1.662   5.623   3.286 -0.4525  0.1806  0.0220
   64CHL1    H8 5857   1.744   5.687   3.325 -0.9321  0.9946 -0.2857
   64CHL1   C14 5858   1.557   5.632   3.398  0.1021  0.0908  0.5214
   64CHL1   H14 5859   1.471   5.579   3.352  0.3915 -1.4298  1.6826
   64CHL1   C15 5860   1.500   5.768   3.442  0.5200  0.0253 -0.3805
   64CHL1  H15A 5861   1.583   5.840   3.459  1.7090 -0.9630 -1.7779
   64CHL1  H15B 5862   1.434   5.817   3.367  2.2332  0.4528 -1.6450
   64CHL1   C16 5863   1.425   5.730   3.578  0.3933  0.5337  0.1242
   64CHL1  H16A 5864   1.471   5.802   3.650  0.8984 -0.6572  1.0284
   64CHL1  H16B 5865   1.315   5.747   3.579  0.4606  1.1352 -1.2051
   64CHL1   C17 5866   1.459   5.579   3.599  0.0766 -0.5772  0.1901
   64CHL1   H17 5867   1.389   5.510   3.547 -0.8159  0.2246  0.3147
   64CHL1   C13 5868   1.590   5.543   3.523 -0.2454 -0.5110  0.1615
   64CHL1   C18 5869   1.714   5.603   3.595 -0.0893  0.2023 -0.0522
   64CHL1  H18A 5870   1.798   5.611   3.523  2.0686  1.2522  2.3814
   64CHL1  H18B 5871   1.698   5.708   3.628 -0.8330 -0.1507  0.7570
   64CHL1  H18C 5872   1.745   5.535   3.678  1.1944  0.9371  0.0994
   64CHL1   C12 5873   1.618   5.395   3.488  0.0535 -0.6017 -0.0650
   64CHL1  H12A 5874   1.659   5.330   3.568 -0.8003  0.1315  1.0010
   64CHL1  H12B 5875   1.523   5.353   3.449 -0.2698 -1.2372  1.3823
   64CHL1   C11 5876   1.723   5.391   3.377 -0.2457 -0.2299  0.4048
   64CHL1  H11A 5877   1.826   5.420   3.407 -0.0310 -0.1674 -0.3593
   64CHL1  H11B 5878   1.729   5.286   3.340  1.2221 -1.1236  2.9115
   64CHL1    C9 5879   1.688   5.479   3.250 -0.1851 -0.6652  0.4567
   64CHL1    H9 5880   1.594   5.434   3.212 -1.1287  0.4115  1.4512
   64CHL1   C10 5881   1.787   5.463   3.122 -0.6893  0.5043 -0.2924
   64CHL1   C19 5882   1.938   5.477   3.176  0.5930 -0.1908  0.9411
   64CHL1  H19A 5883   2.004   5.455   3.090 -2.0852 -3.3335 -0.5248
   64CHL1  H19B 5884   1.951   5.571   3.233  0.8397 -0.0735  0.6914
   64CHL1  H19C 5885   1.965   5.390   3.240 -0.7021 -1.3112  0.0171
   64CHL1    C1 5886   1.746   5.330   3.054  0.4758  0.4991  0.7375
   64CHL1   H1A 5887   1.761   5.250   3.129 -1.7168 -0.5882  0.1191
   64CHL1   H1B 5888   1.637   5.342   3.036  0.4152 -2.7161 -1.7911
   64CHL1    C2 5889   1.820   5.296   2.922 -0.3902 -0.4209  0.6189
   64CHL1   H2A 5890   1.779   5.201   2.881 -0.9057 -0.2354  0.7099
   64CHL1   H2B 5891   1.925   5.268   2.947 -0.7048 -2.2721  0.0372
   64CHL1   C20 5892   1.462   5.537   3.746  0.5918  0.2721 -0.9153
   64CHL1   H20 5893   1.521   5.444   3.762  0.4395  0.4124  0.5537
   64CHL1   C21 5894   1.316   5.494   3.780 -0.0947 -0.0820  0.5780
   64CHL1  H21A 5895   1.314   5.463   3.887  1.4193 -1.9292  0.1192
   64CHL1  H21B 5896   1.275   5.416   3.711  2.2969 -1.7905  0.9667
   64CHL1  H21C 5897   1.255   5.585   3.767  1.8314  1.2600  0.6020
   64CHL1   C22 5898   1.522   5.631   3.846 -0.6151 -0.4840 -0.2291
   64CHL1  H22A 5899   1.630   5.643   3.825 -1.0565  0.5300 -2.1270
   64CHL1  H22B 5900   1.462   5.725   3.842 -0.4447 -0.4062 -1.1089
   64CHL1   C23 5901   1.517   5.594   3.998  0.4230 -0.0079  0.9951
   64CHL1  H23A 5902   1.414   5.591   4.039  0.6322 -1.0347  1.4705
   64CHL1  H23B 5903   1.557   5.491   4.003  1.1398  0.1682 -0.5680
   64CHL1   C24 5904   1.603   5.691   4.081  0.9654  0.4836 -0.1950
   64CHL1  H24A 5905   1.703   5.702   4.033  1.3508  1.7517  0.8537
   64CHL1  H24B 5906   1.544   5.785   4.076 -1.0954 -0.7950 -2.0394
   64CHL1   C25 5907   1.610   5.664   4.242 -0.0083 -0.5013  0.0095
   64CHL1   H25 5908   1.508   5.674   4.286 -0.2041  0.9552 -0.7172
   64CHL1   C26 5909   1.670   5.524   4.273 -0.1473 -0.2184  0.0583
   64CHL1  H26A 5910   1.691   5.515   4.382 -0.5002 -1.7189  0.0263
   64CHL1  H26B 5911   1.595   5.444   4.254  0.4548 -0.4196 -1.6145
   64CHL1  H26C 5912   1.763   5.494   4.220  0.2259 -0.5226  0.8631
   64CHL1   C27 5913   1.688   5.769   4.324  0.5189 -0.0055  0.8476
   64CHL1  H27A 5914   1.793   5.767   4.289 -0.3035 -0.5323 -1.8349
   64CHL1  H27B 5915   1.637   5.867   4.329 -0.9995 -0.6468 -0.9241
   64CHL1  H27C 5916   1.688   5.737   4.431 -0.3748  1.3521  1.2841
   65CHL1    C3 5917   0.762   2.645   2.378 -0.1670 -0.2806  0.2678
   65CHL1    H3 5918   0.813   2.743   2.384  2.9573 -1.7548 -0.1052
   65CHL1    O3 5919   0.747   2.615   2.238  0.6347  0.0973 -0.5978
   65CHL1   H3' 5920   0.825   2.643   2.188  0.3356  1.1575 -0.4864
   65CHL1    C4 5921   0.866   2.557   2.444  0.2122  0.3015 -0.3796
   65CHL1   H4A 5922   0.821   2.456   2.442 -1.2859  0.9346  0.1280
   65CHL1   H4B 5923   0.964   2.566   2.392  0.4323 -0.8300 -0.1845
   65CHL1    C5 5924   0.883   2.583   2.594  0.3028 -0.2896 -0.0369
   65CHL1    C6 5925   1.001   2.590   2.649  0.2836  0.2145  0.5359
   65CHL1    H6 5926   1.088   2.578   2.582 -0.5178 -0.9536 -0.3479
   65CHL1    C7 5927   1.038   2.609   2.794  0.4975  0.0756  0.5332
   65CHL1   H7A 5928   1.117   2.536   2.822 -0.0220 -1.9138 -2.6840
   65CHL1   H7B 5929   1.073   2.713   2.813  1.9138 -0.0752 -1.0091
   65CHL1    C8 5930   0.917   2.578   2.889 -0.6816 -0.3689 -0.1429
   65CHL1    H8 5931   0.911   2.467   2.884 -0.2522 -0.3405 -1.7853
   65CHL1   C14 5932   0.952   2.635   3.028  0.2573 -0.1906 -0.3625
   65CHL1   H14 5933   0.941   2.746   3.029 -1.0437 -0.2898  1.1062
   65CHL1   C15 5934   1.083   2.597   3.094 -0.8196 -0.2865 -0.4839
   65CHL1  H15A 5935   1.105   2.488   3.085 -0.9500 -0.2886 -0.7683
   65CHL1  H15B 5936   1.161   2.661   3.047 -0.3779 -0.1235  0.4429
   65CHL1   C16 5937   1.053   2.627   3.240  0.0932 -0.0320 -0.3299
   65CHL1  H16A 5938   1.070   2.535   3.300  3.1941  1.2934  1.0310
   65CHL1  H16B 5939   1.131   2.695   3.281 -0.7176  0.6828  0.0745
   65CHL1   C17 5940   0.902   2.666   3.249 -0.2609  0.4165  0.1582
   65CHL1   H17 5941   0.898   2.776   3.237 -0.5018  0.3993  0.0703
   65CHL1   C13 5942   0.838   2.602   3.125 -0.7330 -0.0395  0.1393
   65CHL1   C18 5943   0.814   2.447   3.136  0.7691  0.5433 -0.0120
   65CHL1  H18A 5944   0.718   2.437   3.191 -0.0579  1.0442 -1.3024
   65CHL1  H18B 5945   0.802   2.395   3.039 -2.9630  1.4307 -0.1844
   65CHL1  H18C 5946   0.884   2.397   3.206 -0.8501 -0.2195  1.1432
   65CHL1   C12 5947   0.712   2.681   3.067  0.4589  0.1894  0.2787
   65CHL1  H12A 5948   0.627   2.670   3.137 -0.3861 -0.8818 -0.8721
   65CHL1  H12B 5949   0.732   2.790   3.064 -1.9613  0.6877 -0.0635
   65CHL1   C11 5950   0.667   2.631   2.930 -1.0029  0.6051 -0.1580
   65CHL1  H11A 5951   0.622   2.529   2.931  0.7874 -0.2642 -1.7806
   65CHL1  H11B 5952   0.597   2.702   2.881  1.5727  1.8251 -2.3271
   65CHL1    C9 5953   0.785   2.643   2.824  0.3764  1.0568  0.5282
   65CHL1    H9 5954   0.808   2.751   2.813  1.5177  0.5627 -2.7402
   65CHL1   C10 5955   0.754   2.591   2.682  0.4232  0.4374  1.2142
   65CHL1   C19 5956   0.689   2.449   2.690 -0.0225 -0.2843 -0.3442
   65CHL1  H19A 5957   0.586   2.459   2.729  0.3901 -1.5449  1.1631
   65CHL1  H19B 5958   0.685   2.404   2.588 -0.2314  1.5281 -1.1889
   65CHL1  H19C 5959   0.747   2.388   2.763 -1.0620 -0.8203  0.0510
   65CHL1    C1 5960   0.661   2.679   2.603  0.5888 -1.2520 -0.6599
   65CHL1   H1A 5961   0.572   2.684   2.668  1.2725  0.7527  0.2010
   65CHL1   H1B 5962   0.712   2.778   2.612  0.5459 -1.1639 -1.3183
   65CHL1    C2 5963   0.632   2.642   2.454  0.4151 -0.1445  0.6104
   65CHL1   H2A 5964   0.558   2.715   2.415  0.9166 -0.3581 -0.8035
   65CHL1   H2B 5965   0.578   2.546   2.442 -1.0561  0.3929  2.4284
   65CHL1   C20 5966   0.842   2.627   3.389  0.4308 -0.4586  0.8255
   65CHL1   H20 5967   0.821   2.518   3.390  0.8862 -0.7868 -3.7161
   65CHL1   C21 5968   0.690   2.673   3.405  0.6143 -0.8716  0.1815
   65CHL1  H21A 5969   0.687   2.774   3.357  3.5365 -1.7590 -2.1969
   65CHL1  H21B 5970   0.659   2.662   3.511  1.2155 -1.3309  0.3079
   65CHL1  H21C 5971   0.620   2.608   3.348  1.0202 -1.0070 -0.1640
   65CHL1   C22 5972   0.923   2.682   3.508  0.3607  0.2630 -0.2670
   65CHL1  H22A 5973   1.032   2.669   3.490  0.5873  0.1237  1.1364
   65CHL1  H22B 5974   0.914   2.791   3.526  0.4104  0.3605 -0.8115
   65CHL1   C23 5975   0.900   2.605   3.642  0.8909  1.0751  0.0924
   65CHL1  H23A 5976   0.794   2.574   3.649  1.3188 -1.8853 -3.2698
   65CHL1  H23B 5977   0.960   2.512   3.636  0.6354  0.7496  2.1008
   65CHL1   C24 5978   0.955   2.675   3.767  0.7347  0.1117  0.0398
   65CHL1  H24A 5979   1.066   2.679   3.766  0.8019 -1.2554  0.7963
   65CHL1  H24B 5980   0.900   2.771   3.781 -0.6113 -0.6826  0.3647
   65CHL1   C25 5981   0.900   2.597   3.894 -0.2619 -0.2743  0.8520
   65CHL1   H25 5982   0.932   2.490   3.890 -1.1473 -0.6443  2.5630
   65CHL1   C26 5983   0.968   2.648   4.018  0.4926  0.1241  0.2236
   65CHL1  H26A 5984   0.936   2.586   4.104  0.7563  1.1357  1.0634
   65CHL1  H26B 5985   1.078   2.651   4.002  0.4938  1.5823  0.4010
   65CHL1  H26C 5986   0.932   2.752   4.028  0.0282 -0.2251  2.8899
   65CHL1   C27 5987   0.749   2.599   3.912 -0.0329 -0.4700 -0.3475
   65CHL1  H27A 5988   0.698   2.698   3.922 -0.7184 -0.8364 -0.1235
   65CHL1  H27B 5989   0.693   2.540   3.836  1.2143  0.2493 -1.8766
   65CHL1  H27C 5990   0.728   2.545   4.007  0.4846  2.2341  1.4135
   66CHL1    C3 5991   5.204   2.330   2.795 -0.2205 -0.2757 -0.5726
   66CHL1    H3 5992   5.131   2.412   2.810 -2.1084 -2.3202  2.5198
   66CHL1    O3 5993   5.193   2.281   2.660 -0.1994  0.0695  0.0161
   66CHL1   H3' 5994   5.098   2.286   2.645  0.0467 -0.2300 -1.9194
   66CHL1    C4 5995   5.342   2.399   2.835  0.4188  0.4250  0.5281
   66CHL1   H4A 5996   5.416   2.317   2.823 -1.6769 -1.8081  2.0435
   66CHL1   H4B 5997   5.363   2.477   2.758 -0.5926 -0.8573 -1.1157
   66CHL1    C5 5998   5.355   2.446   2.979  0.1689 -0.5841 -0.3909
   66CHL1    C6 5999   5.397   2.570   3.023 -0.3039 -0.3182  0.2357
   66CHL1    H6 6000   5.427   2.651   2.955  0.3018  0.1753  1.0682
   66CHL1    C7 6001   5.418   2.611   3.159 -0.3795  0.1537 -0.5956
   66CHL1   H7A 6002   5.512   2.670   3.165 -1.0500  1.2320 -0.3885
   66CHL1   H7B 6003   5.339   2.671   3.209  1.3429 -0.2909  2.9170
   66CHL1    C8 6004   5.431   2.491   3.264 -0.2633 -0.6347  0.0674
   66CHL1    H8 6005   5.532   2.449   3.245  0.0121 -0.0363  0.1836
   66CHL1   C14 6006   5.424   2.538   3.411  0.5902  1.2792  0.1565
   66CHL1   H14 6007   5.322   2.578   3.429 -0.3017 -1.2947  1.1951
   66CHL1   C15 6008   5.514   2.643   3.473  0.1504 -0.4789 -0.6033
   66CHL1  H15A 6009   5.622   2.622   3.456  0.6509  0.3994  1.1821
   66CHL1  H15B 6010   5.488   2.747   3.444  1.4879  0.0745  0.0603
   66CHL1   C16 6011   5.509   2.621   3.628 -0.1051 -0.2271  0.0962
   66CHL1  H16A 6012   5.612   2.624   3.669  0.0882 -0.8845 -0.3199
   66CHL1  H16B 6013   5.453   2.704   3.677  1.1306 -0.0874  1.3503
   66CHL1   C17 6014   5.445   2.484   3.649  0.4468  0.4459 -0.8034
   66CHL1   H17 6015   5.338   2.507   3.668  0.4385 -0.4396  0.2988
   66CHL1   C13 6016   5.436   2.412   3.512 -0.8130 -0.0834 -0.0897
   66CHL1   C18 6017   5.575   2.339   3.499 -0.5097 -0.2740 -0.1267
   66CHL1  H18A 6018   5.654   2.411   3.531 -1.2497  0.3306  0.3849
   66CHL1  H18B 6019   5.573   2.247   3.560 -1.2744 -0.2481 -0.1028
   66CHL1  H18C 6020   5.603   2.319   3.393 -0.1562  3.1526 -0.7959
   66CHL1   C12 6021   5.314   2.316   3.485 -0.6578 -0.1205 -0.4366
   66CHL1  H12A 6022   5.311   2.223   3.547 -1.3068  0.0571 -0.1957
   66CHL1  H12B 6023   5.223   2.366   3.522 -1.6280 -2.5016  0.6179
   66CHL1   C11 6024   5.314   2.270   3.337 -0.0385  0.3622  0.7612
   66CHL1  H11A 6025   5.409   2.213   3.331  1.6883  3.0920  0.1582
   66CHL1  H11B 6026   5.229   2.200   3.326  1.7405 -1.7966 -0.0215
   66CHL1    C9 6027   5.317   2.387   3.237 -0.2362 -1.0381  0.4299
   66CHL1    H9 6028   5.221   2.440   3.254  0.3570  0.2001  0.0466
   66CHL1   C10 6029   5.318   2.334   3.082  0.5672  0.0869  0.2094
   66CHL1   C19 6030   5.424   2.224   3.074  0.3924 -0.0909  0.3975
   66CHL1  H19A 6031   5.524   2.258   3.107  0.5763  0.5087 -0.7424
   66CHL1  H19B 6032   5.384   2.135   3.129 -2.7120  1.3672  0.7337
   66CHL1  H19C 6033   5.450   2.179   2.976 -1.8227  0.9782 -0.7502
   66CHL1    C1 6034   5.178   2.272   3.051 -0.0440 -0.2157  0.2718
   66CHL1   H1A 6035   5.156   2.192   3.125 -2.6924 -0.2122 -0.3905
   66CHL1   H1B 6036   5.098   2.349   3.055  0.6811  0.5086  3.4178
   66CHL1    C2 6037   5.154   2.224   2.906 -0.0496 -0.5993  0.6166
   66CHL1   H2A 6038   5.046   2.211   2.883 -0.0810 -3.5231  2.0954
   66CHL1   H2B 6039   5.198   2.123   2.891  2.1307  0.6421 -2.5897
   66CHL1   C20 6040   5.503   2.404   3.772  0.0885  0.4211  0.2502
   66CHL1   H20 6041   5.609   2.386   3.744 -0.3298  0.2257 -1.3289
   66CHL1   C21 6042   5.411   2.287   3.800  0.7192  0.0322 -0.2823
   66CHL1  H21A 6043   5.422   2.242   3.901  1.5995  0.3148 -0.2401
   66CHL1  H21B 6044   5.418   2.201   3.729 -0.9554 -0.9453  0.6642
   66CHL1  H21C 6045   5.307   2.323   3.791  0.0558 -1.5174  0.8227
   66CHL1   C22 6046   5.515   2.487   3.907  0.4274 -0.1836  0.4681
   66CHL1  H22A 6047   5.562   2.586   3.891  2.7133 -1.2563  0.1191
   66CHL1  H22B 6048   5.412   2.496   3.948  1.0856 -0.3208  2.2218
   66CHL1   C23 6049   5.603   2.424   4.015 -0.4944  0.9182  0.1943
   66CHL1  H23A 6050   5.571   2.321   4.044 -1.1383  1.3631  1.1392
   66CHL1  H23B 6051   5.698   2.401   3.963 -0.1322  1.0664  0.7858
   66CHL1   C24 6052   5.611   2.504   4.140  0.0211 -0.0984  0.4145
   66CHL1  H24A 6053   5.678   2.588   4.111  0.8709 -0.1411  2.1186
   66CHL1  H24B 6054   5.509   2.541   4.160 -0.0928 -1.0266  1.6863
   66CHL1   C25 6055   5.679   2.433   4.264 -0.1265  0.1062  0.2518
   66CHL1   H25 6056   5.776   2.390   4.229  1.0689  1.6295  1.5315
   66CHL1   C26 6057   5.703   2.531   4.383 -0.5278 -0.3002  0.7237
   66CHL1  H26A 6058   5.603   2.572   4.411 -0.7488  0.3478 -0.8651
   66CHL1  H26B 6059   5.750   2.487   4.473 -0.9438  0.6102  1.4090
   66CHL1  H26C 6060   5.757   2.616   4.336 -0.2500 -0.7387  0.2444
   66CHL1   C27 6061   5.595   2.313   4.323  0.5732  0.4106  0.8288
   66CHL1  H27A 6062   5.487   2.338   4.323  0.2696 -0.8131  1.6333
   66CHL1  H27B 6063   5.602   2.297   4.433 -0.3128  1.8240  1.1179
   66CHL1  H27C 6064   5.604   2.217   4.268  1.3976  0.6866  0.4763
   67CHL1    C3 6065   4.536   6.276   2.630  0.0605  0.6405  0.5116
   67CHL1    H3 6066   4.604   6.199   2.674 -1.4467 -1.0198  0.0690
   67CHL1    O3 6067   4.522   6.259   2.488 -0.4051  0.0691 -0.6704
   67CHL1   H3' 6068   4.437   6.299   2.470 -1.2900 -0.4858  1.9178
   67CHL1    C4 6069   4.393   6.260   2.682 -0.7936  0.4016  0.1276
   67CHL1   H4A 6070   4.328   6.333   2.629 -1.5447  1.5328  2.4467
   67CHL1   H4B 6071   4.360   6.158   2.652 -0.4492  0.5070 -0.6197
   67CHL1    C5 6072   4.379   6.287   2.827  0.0339 -0.2556 -0.2230
   67CHL1    C6 6073   4.323   6.193   2.903  0.8891  1.2167 -0.0396
   67CHL1    H6 6074   4.289   6.099   2.856  3.0309  0.0027  0.6501
   67CHL1    C7 6075   4.296   6.217   3.050  0.4230  0.9738  0.3350
   67CHL1   H7A 6076   4.202   6.161   3.068  1.3022 -0.4217  0.8056
   67CHL1   H7B 6077   4.375   6.159   3.102 -0.8912 -1.5334 -0.3076
   67CHL1    C8 6078   4.305   6.362   3.094 -0.2617  0.6040 -0.0291
   67CHL1    H8 6079   4.217   6.421   3.059  0.2598  1.2613 -0.2469
   67CHL1   C14 6080   4.315   6.377   3.249  0.5945 -0.0657 -0.6101
   67CHL1   H14 6081   4.398   6.308   3.274 -1.1882 -0.8619  4.0968
   67CHL1   C15 6082   4.198   6.318   3.330 -0.4195 -0.8025  0.2058
   67CHL1  H15A 6083   4.099   6.341   3.284  0.5032 -1.0623 -2.0725
   67CHL1  H15B 6084   4.199   6.207   3.330 -0.5841 -0.8042  0.1576
   67CHL1   C16 6085   4.199   6.394   3.461 -0.4902  0.3427 -0.2855
   67CHL1  H16A 6086   4.113   6.462   3.474 -2.3000 -2.1216  1.4960
   67CHL1  H16B 6087   4.197   6.319   3.543 -1.1799 -0.4802 -1.0287
   67CHL1   C17 6088   4.326   6.483   3.456  0.5583  0.4461 -0.3634
   67CHL1   H17 6089   4.410   6.417   3.486  1.3282  1.1228 -1.0067
   67CHL1   C13 6090   4.342   6.515   3.306  0.2765 -0.3382  0.0463
   67CHL1   C18 6091   4.238   6.618   3.261  0.1209  0.5828 -0.0482
   67CHL1  H18A 6092   4.233   6.608   3.151 -3.0308 -3.1954  0.2337
   67CHL1  H18B 6093   4.139   6.581   3.293 -0.4327  1.5091 -0.6300
   67CHL1  H18C 6094   4.258   6.724   3.290 -2.2463  0.6251  1.7694
   67CHL1   C12 6095   4.481   6.558   3.250  0.4160 -0.0805 -0.5314
   67CHL1  H12A 6096   4.502   6.662   3.282  2.2795 -0.7047  0.4276
   67CHL1  H12B 6097   4.555   6.480   3.280 -0.4232 -1.8316 -2.7157
   67CHL1   C11 6098   4.473   6.557   3.095 -0.6596  0.1308 -0.6705
   67CHL1  H11A 6099   4.401   6.635   3.059  0.5633  1.5007 -0.2553
   67CHL1  H11B 6100   4.574   6.594   3.069 -1.3326  2.8028  0.1626
   67CHL1    C9 6101   4.434   6.423   3.031 -0.6870  0.6794  0.1169
   67CHL1    H9 6102   4.509   6.351   3.071 -4.0994 -2.1496  1.9722
   67CHL1   C10 6103   4.436   6.421   2.881 -0.1224 -0.1995  0.4288
   67CHL1   C19 6104   4.334   6.532   2.821  0.0675  0.2875  0.0111
   67CHL1  H19A 6105   4.330   6.537   2.710 -2.4457  0.9312  0.0876
   67CHL1  H19B 6106   4.229   6.519   2.855  0.2247 -1.2459 -0.0187
   67CHL1  H19C 6107   4.363   6.633   2.857 -0.3863  0.2185  0.5847
   67CHL1    C1 6108   4.585   6.440   2.826 -0.6234 -0.7118  0.0289
   67CHL1   H1A 6109   4.618   6.542   2.857 -1.6692 -1.0991  2.6442
   67CHL1   H1B 6110   4.657   6.368   2.870  0.3591  0.2382  0.0446
   67CHL1    C2 6111   4.585   6.421   2.667 -0.3576  0.8742  0.3967
   67CHL1   H2A 6112   4.684   6.438   2.620 -0.4328 -0.9928 -0.5638
   67CHL1   H2B 6113   4.511   6.491   2.623 -0.0835 -0.5602 -2.6455
   67CHL1   C20 6114   4.324   6.609   3.550  0.3134 -0.3641  0.3992
   67CHL1   H20 6115   4.239   6.672   3.515  0.2791  0.9120  2.6030
   67CHL1   C21 6116   4.457   6.683   3.538  0.4017  0.0792  0.0257
   67CHL1  H21A 6117   4.548   6.620   3.540  2.4605  2.8618  0.0141
   67CHL1  H21B 6118   4.471   6.741   3.632 -1.5232  1.6837 -0.6011
   67CHL1  H21C 6119   4.456   6.747   3.447 -2.4095 -0.8593 -0.6960
   67CHL1   C22 6120   4.288   6.573   3.702  1.1306 -0.1719  1.0476
   67CHL1  H22A 6121   4.244   6.471   3.710 -0.2401  0.4176  1.3686
   67CHL1  H22B 6122   4.381   6.574   3.763  0.2541 -0.1403  2.4323
   67CHL1   C23 6123   4.194   6.667   3.769 -0.1513 -0.8547 -0.5437
   67CHL1  H23A 6124   4.090   6.671   3.730 -0.5633 -0.1632  0.5803
   67CHL1  H23B 6125   4.188   6.627   3.873 -0.2190 -1.5109 -0.7957
   67CHL1   C24 6126   4.245   6.816   3.771  0.0596 -0.1786  0.4670
   67CHL1  H24A 6127   4.334   6.825   3.837 -0.5335 -0.3886  1.3062
   67CHL1  H24B 6128   4.266   6.850   3.668  1.1506  3.3791  1.7075
   67CHL1   C25 6129   4.151   6.926   3.835 -0.4326 -0.8771 -0.5478
   67CHL1   H25 6130   4.218   7.013   3.849 -1.0776 -0.2894 -1.0333
   67CHL1   C26 6131   4.032   6.959   3.752 -0.4820  0.2371 -0.2782
   67CHL1  H26A 6132   3.963   6.872   3.748 -0.3246  0.0836  0.2621
   67CHL1  H26B 6133   3.992   7.053   3.796 -3.1311  0.0702 -2.0985
   67CHL1  H26C 6134   4.065   6.981   3.648  0.6590  3.7823  0.6673
   67CHL1   C27 6135   4.099   6.895   3.977 -0.9927  0.5573  0.6091
   67CHL1  H27A 6136   4.041   6.980   4.020 -2.0881  0.5880 -0.8698
   67CHL1  H27B 6137   4.029   6.809   3.977 -0.1834 -0.1180  0.4779
   67CHL1  H27C 6138   4.187   6.859   4.035  0.3853  0.4166 -1.4939
   68CHL1    C3 6139   1.712   0.379   2.339  0.0848  0.4155  0.4206
   68CHL1    H3 6140   1.602   0.391   2.349 -0.0321 -0.6163  0.5257
   68CHL1    O3 6141   1.755   0.390   2.205 -0.0861 -0.2860 -0.3919
   68CHL1   H3' 6142   1.844   0.419   2.221  0.1099 -1.4917  0.9683
   68CHL1    C4 6143   1.779   0.491   2.424 -0.0897  0.1534  0.0847
   68CHL1   H4A 6144   1.890   0.489   2.416  0.0676  1.6897  1.5055
   68CHL1   H4B 6145   1.751   0.584   2.370 -1.3051 -1.3755 -2.1098
   68CHL1    C5 6146   1.742   0.473   2.569  0.8053  0.0554 -0.4045
   68CHL1    C6 6147   1.680   0.575   2.639 -0.6369  0.5286 -0.3679
   68CHL1    H6 6148   1.646   0.661   2.581 -3.4527  0.2687  0.7566
   68CHL1    C7 6149   1.650   0.578   2.787  0.4512  0.7041 -0.0775
   68CHL1   H7A 6150   1.671   0.676   2.836 -4.2876  0.8914  2.1903
   68CHL1   H7B 6151   1.541   0.561   2.800  0.7274 -1.1878 -0.0280
   68CHL1    C8 6152   1.705   0.456   2.866  0.2677 -0.0474  0.5895
   68CHL1    H8 6153   1.811   0.480   2.889  0.2859 -0.0456  0.5031
   68CHL1   C14 6154   1.644   0.440   3.002  0.1109  0.3771 -0.5327
   68CHL1   H14 6155   1.540   0.405   2.987  0.9944 -2.1715 -1.1914
   68CHL1   C15 6156   1.648   0.569   3.090  0.2773 -0.1100  0.0529
   68CHL1  H15A 6157   1.751   0.611   3.089  0.5513 -0.6213  2.0619
   68CHL1  H15B 6158   1.577   0.647   3.055  1.2440  0.7256 -0.0654
   68CHL1   C16 6159   1.621   0.514   3.232  0.5151  0.4704  0.1130
   68CHL1  H16A 6160   1.700   0.545   3.304 -0.1397  0.3434  0.9001
   68CHL1  H16B 6161   1.518   0.546   3.259 -0.8389 -4.1819  1.4688
   68CHL1   C17 6162   1.627   0.353   3.219 -0.0968 -0.0473 -0.1859
   68CHL1   H17 6163   1.522   0.325   3.193  0.1837 -0.5325 -0.8153
   68CHL1   C13 6164   1.712   0.332   3.085  0.0436  0.0324 -0.3651
   68CHL1   C18 6165   1.859   0.357   3.113 -0.2281 -0.0669 -0.0773
   68CHL1  H18A 6166   1.921   0.388   3.026 -1.5702  0.3399 -0.9126
   68CHL1  H18B 6167   1.863   0.449   3.175  0.5699 -1.8391  2.7008
   68CHL1  H18C 6168   1.910   0.269   3.159  1.6524  1.6578  1.3373
   68CHL1   C12 6169   1.691   0.204   3.009  0.1121  0.7203  0.5833
   68CHL1  H12A 6170   1.734   0.113   3.056 -0.9073  0.6818  1.4700
   68CHL1  H12B 6171   1.583   0.183   2.997  0.3672  0.5998 -2.2354
   68CHL1   C11 6172   1.755   0.210   2.869  0.1466 -0.4163 -0.6735
   68CHL1  H11A 6173   1.864   0.205   2.892  0.0321 -0.3438 -0.1028
   68CHL1  H11B 6174   1.738   0.117   2.811 -0.6876 -0.1622 -0.8477
   68CHL1    C9 6175   1.710   0.328   2.784  0.3673  0.0431  0.4320
   68CHL1    H9 6176   1.603   0.310   2.760 -0.0771  0.7348  1.7767
   68CHL1   C10 6177   1.776   0.335   2.636  0.5129  0.4730 -0.0300
   68CHL1   C19 6178   1.922   0.323   2.656 -0.3982  0.1404 -0.1990
   68CHL1  H19A 6179   1.948   0.226   2.701  2.3836  0.0318 -1.8432
   68CHL1  H19B 6180   1.986   0.349   2.569 -1.0566  0.5620 -0.5677
   68CHL1  H19C 6181   1.942   0.395   2.738  0.9472  0.1550 -0.5204
   68CHL1    C1 6182   1.725   0.225   2.549 -0.4389  0.5366  0.6853
   68CHL1   H1A 6183   1.779   0.136   2.589  0.9412 -0.1166 -2.3470
   68CHL1   H1B 6184   1.616   0.209   2.563 -0.4754  0.7400  0.6481
   68CHL1    C2 6185   1.756   0.246   2.401  0.2729  0.0530  0.4422
   68CHL1   H2A 6186   1.705   0.157   2.358  0.1644 -0.1229  0.9284
   68CHL1   H2B 6187   1.866   0.236   2.394  0.2597 -1.9736  2.4330
   68CHL1   C20 6188   1.661   0.282   3.352 -0.6905 -0.0615 -0.2169
   68CHL1   H20 6189   1.767   0.305   3.374 -0.7642  1.3809 -1.2205
   68CHL1   C21 6190   1.636   0.133   3.335  0.9904 -0.3603  0.1899
   68CHL1  H21A 6191   1.529   0.113   3.312  1.7390 -3.2106 -1.2651
   68CHL1  H21B 6192   1.648   0.078   3.431  0.3175 -1.0965 -0.1370
   68CHL1  H21C 6193   1.703   0.085   3.261 -1.7149 -3.2141 -0.6528
   68CHL1   C22 6194   1.582   0.335   3.474 -0.8305 -0.0868 -0.1867
   68CHL1  H22A 6195   1.580   0.446   3.477  1.2707 -0.0249  0.9002
   68CHL1  H22B 6196   1.481   0.292   3.455  0.0856 -2.1403 -0.6067
   68CHL1   C23 6197   1.650   0.305   3.612  0.0160  0.0219 -0.5773
   68CHL1  H23A 6198   1.661   0.195   3.628  0.4660  0.0561 -0.6500
   68CHL1  H23B 6199   1.753   0.343   3.627 -0.4165  0.3621  2.1134
   68CHL1   C24 6200   1.566   0.359   3.732  0.6593 -0.3586 -0.4531
   68CHL1  H24A 6201   1.580   0.469   3.746 -1.6340 -0.0643 -0.0517
   68CHL1  H24B 6202   1.458   0.337   3.720  0.8926 -0.5898 -2.4653
   68CHL1   C25 6203   1.603   0.284   3.862 -0.2632 -0.0996  0.9164
   68CHL1   H25 6204   1.592   0.175   3.845  0.9135  0.0524 -1.0844
   68CHL1   C26 6205   1.759   0.311   3.891  0.9676 -0.1137 -0.0790
   68CHL1  H26A 6206   1.774   0.416   3.922  0.0724  0.3231 -1.0675
   68CHL1  H26B 6207   1.801   0.236   3.962  1.5173 -3.6149 -3.7406
   68CHL1  H26C 6208   1.823   0.293   3.802 -0.0362  0.8437 -1.0167
   68CHL1   C27 6209   1.520   0.330   3.981  0.0810 -0.9232 -0.6536
   68CHL1  H27A 6210   1.540   0.268   4.071  0.3232 -0.5589 -0.4569
   68CHL1  H27B 6211   1.536   0.436   4.010  0.9483 -1.5171  1.2634
   68CHL1  H27C 6212   1.411   0.313   3.967 -0.0413 -0.4665 -0.2806
   69CHL1    C3 6213   6.523   5.825   2.897  0.7243  0.0967  0.3959
   69CHL1    H3 6214   6.596   5.747   2.926  1.1221  0.5106  0.5275
   69CHL1    O3 6215   6.504   5.827   2.751 -0.2755  0.1712  0.3883
   69CHL1   H3' 6216   6.424   5.881   2.748  0.2209  0.9351  0.6199
   69CHL1    C4 6217   6.384   5.805   2.959 -0.0897  0.1217  0.0834
   69CHL1   H4A 6218   6.311   5.882   2.928 -0.7581 -0.7275 -0.4822
   69CHL1   H4B 6219   6.350   5.713   2.908  2.1580 -0.5114 -0.3731
   69CHL1    C5 6220   6.395   5.805   3.110  0.2044  0.0584  0.0471
   69CHL1    C6 6221   6.337   5.708   3.174  0.3710 -0.1594  0.3992
   69CHL1    H6 6222   6.300   5.622   3.116  0.1995 -0.4111  0.8772
   69CHL1    C7 6223   6.344   5.697   3.326 -0.0501 -0.2406 -0.0899
   69CHL1   H7A 6224   6.253   5.652   3.370 -1.7727  2.7480 -0.3243
   69CHL1   H7B 6225   6.434   5.649   3.368 -0.4771 -0.1932  0.8923
   69CHL1    C8 6226   6.352   5.840   3.391 -0.8670  0.6981 -0.7641
   69CHL1    H8 6227   6.256   5.895   3.385 -1.1002  0.4151  0.2683
   69CHL1   C14 6228   6.378   5.820   3.543  0.8996 -0.1113  0.2172
   69CHL1   H14 6229   6.464   5.751   3.553  1.7981  0.9728  0.0682
   69CHL1   C15 6230   6.271   5.740   3.630  1.0283 -0.4996  0.2009
   69CHL1  H15A 6231   6.171   5.774   3.597  1.1369  0.5430  0.8808
   69CHL1  H15B 6232   6.279   5.634   3.599  0.2303 -0.4689 -0.1321
   69CHL1   C16 6233   6.298   5.782   3.772  0.0120  0.0092  0.0645
   69CHL1  H16A 6234   6.202   5.828   3.802 -0.1549 -0.9266  1.0260
   69CHL1  H16B 6235   6.324   5.694   3.834  2.7292  2.5847  2.9444
   69CHL1   C17 6236   6.418   5.873   3.759  0.2215  0.0966 -0.2887
   69CHL1   H17 6237   6.511   5.814   3.748  1.5239  2.0841 -0.4113
   69CHL1   C13 6238   6.404   5.942   3.619 -0.6642  0.0534  0.9112
   69CHL1   C18 6239   6.281   6.035   3.626  0.2035  0.6630 -0.1745
   69CHL1  H18A 6240   6.183   5.985   3.640 -0.7669  1.9951 -1.9539
   69CHL1  H18B 6241   6.299   6.114   3.701 -0.5510  1.2830 -0.6330
   69CHL1  H18C 6242   6.264   6.086   3.529 -0.7270  0.9714  0.1510
   69CHL1   C12 6243   6.524   6.023   3.560  0.2212  0.2879  0.1624
   69CHL1  H12A 6244   6.554   6.109   3.622 -0.5105  1.8660 -1.5746
   69CHL1  H12B 6245   6.607   5.948   3.561 -0.2351 -0.2333 -0.2318
   69CHL1   C11 6246   6.501   6.041   3.410  0.4308  0.4718  0.8703
   69CHL1  H11A 6247   6.411   6.102   3.390 -0.8264 -1.2321  1.0893
   69CHL1  H11B 6248   6.588   6.102   3.378  1.0691 -0.5798  0.5510
   69CHL1    C9 6249   6.474   5.911   3.332  0.4201 -0.0919 -0.0678
   69CHL1    H9 6250   6.564   5.850   3.354  0.7536  0.6859  0.7396
   69CHL1   C10 6251   6.456   5.929   3.176  0.1156 -0.0647 -0.6420
   69CHL1   C19 6252   6.345   6.031   3.155 -0.0437  0.5488  0.0265
   69CHL1  H19A 6253   6.339   6.050   3.045  0.3951 -0.5659 -0.2082
   69CHL1  H19B 6254   6.246   6.002   3.195 -0.6014  0.0155 -1.6258
   69CHL1  H19C 6255   6.383   6.124   3.202 -2.8010 -0.0415  3.8332
   69CHL1    C1 6256   6.588   5.963   3.102 -0.0376  0.8342 -0.0821
   69CHL1   H1A 6257   6.627   6.061   3.137  1.3712  0.7203 -1.2255
   69CHL1   H1B 6258   6.673   5.895   3.124 -0.3116  0.4129 -0.2897
   69CHL1    C2 6259   6.569   5.962   2.949 -0.0787  0.2324  0.3504
   69CHL1   H2A 6260   6.669   5.970   2.903  1.4233  0.1896  3.3747
   69CHL1   H2B 6261   6.496   6.038   2.912 -1.2568 -1.3200 -0.6102
   69CHL1   C20 6262   6.443   5.956   3.886  0.3081 -0.6835  0.3922
   69CHL1   H20 6263   6.514   6.038   3.865  0.2721 -0.7601 -0.0321
   69CHL1   C21 6264   6.521   5.869   3.988 -0.2714  0.3652 -0.0289
   69CHL1  H21A 6265   6.616   5.824   3.951 -0.7866 -0.7614 -0.0285
   69CHL1  H21B 6266   6.456   5.784   4.017  0.3090  0.8769  3.1028
   69CHL1  H21C 6267   6.544   5.928   4.079 -0.7439 -0.5741  0.7104
   69CHL1   C22 6268   6.325   6.011   3.962 -0.4122 -0.2891 -0.8234
   69CHL1  H22A 6269   6.236   6.031   3.898 -0.9861 -0.7025 -0.1644
   69CHL1  H22B 6270   6.288   5.937   4.036 -0.4702 -0.3773 -0.9404
   69CHL1   C23 6271   6.369   6.132   4.041  0.0640 -0.7216 -0.9418
   69CHL1  H23A 6272   6.451   6.103   4.110 -0.5258  0.5071  0.3199
   69CHL1  H23B 6273   6.409   6.200   3.962 -1.6524  1.2295 -0.2317
   69CHL1   C24 6274   6.254   6.182   4.133  0.8696  0.2382  0.1960
   69CHL1  H24A 6275   6.180   6.239   4.073 -0.6574 -1.0092  0.7814
   69CHL1  H24B 6276   6.200   6.104   4.191 -2.2535  0.7660 -1.7364
   69CHL1   C25 6277   6.294   6.287   4.239  0.0100  0.3699 -1.1239
   69CHL1   H25 6278   6.201   6.329   4.284  0.9600  4.5483 -2.6742
   69CHL1   C26 6279   6.374   6.230   4.357 -1.1614 -0.7374 -0.0914
   69CHL1  H26A 6280   6.447   6.154   4.322 -1.3849 -0.2325 -1.7635
   69CHL1  H26B 6281   6.425   6.300   4.426 -0.8140 -1.0005 -0.0768
   69CHL1  H26C 6282   6.305   6.178   4.427  0.7823 -2.5424  0.5846
   69CHL1   C27 6283   6.356   6.413   4.180 -0.1858  0.3105  0.1060
   69CHL1  H27A 6284   6.284   6.457   4.108 -0.6700  0.2686  0.5620
   69CHL1  H27B 6285   6.380   6.495   4.251  0.7096 -0.3078  0.5313
   69CHL1  H27C 6286   6.450   6.387   4.127 -0.6273 -0.4527 -0.3137
   70CHL1    C3 6287   2.246   1.916   2.628 -0.5132  0.6101 -0.7760
   70CHL1    H3 6288   2.254   1.805   2.619 -0.0708  0.6417 -0.7810
   70CHL1    O3 6289   2.200   1.972   2.509 -0.6297  0.1475 -0.1394
   70CHL1   H3' 6290   2.201   2.067   2.518  1.0891  0.3887 -2.1315
   70CHL1    C4 6291   2.130   1.940   2.734 -0.3551  0.1758  0.5887
   70CHL1   H4A 6292   2.107   2.047   2.717 -1.9845 -0.4482 -1.4822
   70CHL1   H4B 6293   2.037   1.889   2.702 -1.6859  2.0195  1.3863
   70CHL1    C5 6294   2.173   1.909   2.881  0.3720 -0.0293 -0.1695
   70CHL1    C6 6295   2.084   1.837   2.962 -0.5239 -0.9670  0.7600
   70CHL1    H6 6296   1.983   1.825   2.920 -0.0058 -2.0037 -0.2691
   70CHL1    C7 6297   2.118   1.822   3.112  0.1394 -0.0557 -0.1602
   70CHL1   H7A 6298   2.029   1.840   3.176 -0.4843  0.8789 -1.2532
   70CHL1   H7B 6299   2.156   1.719   3.127 -0.2144 -0.2225 -0.3955
   70CHL1    C8 6300   2.246   1.901   3.160  0.6083  0.1351  0.2563
   70CHL1    H8 6301   2.212   2.003   3.188 -1.4615 -0.2515 -0.6655
   70CHL1   C14 6302   2.298   1.839   3.288  0.1759 -0.1589  0.2756
   70CHL1   H14 6303   2.328   1.734   3.267  1.2121  0.5407 -2.2225
   70CHL1   C15 6304   2.205   1.820   3.409 -0.4539 -1.0638 -0.1719
   70CHL1  H15A 6305   2.131   1.902   3.422  1.3122  0.4710  0.4662
   70CHL1  H15B 6306   2.144   1.727   3.403  0.5668 -1.7856  0.4018
   70CHL1   C16 6307   2.297   1.808   3.532  0.4130 -0.0516  0.1244
   70CHL1  H16A 6308   2.277   1.897   3.596 -0.7623 -0.3877  0.2577
   70CHL1  H16B 6309   2.287   1.713   3.588  1.5752 -1.3120 -1.7052
   70CHL1   C17 6310   2.443   1.819   3.474  0.7139 -0.2082  0.6767
   70CHL1   H17 6311   2.475   1.716   3.445  0.8871 -0.6452  2.3035
   70CHL1   C13 6312   2.427   1.894   3.340 -0.9185 -0.0466 -0.2822
   70CHL1   C18 6313   2.411   2.042   3.375 -0.0949  0.4740  0.0962
   70CHL1  H18A 6314   2.384   2.094   3.281  0.1562 -1.4660 -1.1038
   70CHL1  H18B 6315   2.334   2.068   3.450 -1.1422 -0.5578 -0.5979
   70CHL1  H18C 6316   2.510   2.084   3.404  0.5236 -0.4726 -0.5787
   70CHL1   C12 6317   2.544   1.877   3.238 -0.4718  0.0106 -0.0295
   70CHL1  H12A 6318   2.642   1.921   3.267 -0.6969  1.0928 -0.8193
   70CHL1  H12B 6319   2.571   1.770   3.240  0.2705  0.1997  0.8877
   70CHL1   C11 6320   2.496   1.933   3.103  0.2198  0.4804  0.1147
   70CHL1  H11A 6321   2.504   2.044   3.102 -2.7875  0.8014 -1.9989
   70CHL1  H11B 6322   2.573   1.911   3.027  2.3741  2.7778  1.4987
   70CHL1    C9 6323   2.352   1.886   3.049 -0.5899  0.2263  0.2056
   70CHL1    H9 6324   2.355   1.775   3.038 -2.3916 -0.0044  1.4706
   70CHL1   C10 6325   2.310   1.957   2.921 -0.5056  0.0165 -0.3239
   70CHL1   C19 6326   2.299   2.111   2.944  0.4215  0.0900  1.1282
   70CHL1  H19A 6327   2.231   2.155   2.868  2.1101 -1.1519 -1.2229
   70CHL1  H19B 6328   2.251   2.140   3.040 -2.1025  1.2369 -0.3789
   70CHL1  H19C 6329   2.399   2.161   2.947  0.6635 -0.3818  0.9714
   70CHL1    C1 6330   2.421   1.932   2.812 -0.2704  0.1590  0.2485
   70CHL1   H1A 6331   2.508   1.995   2.839 -0.8115  1.5359 -1.0670
   70CHL1   H1B 6332   2.445   1.824   2.809 -1.5494 -0.1256 -0.7971
   70CHL1    C2 6333   2.380   1.977   2.670 -0.5335 -0.2068  0.6623
   70CHL1   H2A 6334   2.459   1.945   2.598 -1.5708 -2.0490  0.2619
   70CHL1   H2B 6335   2.373   2.088   2.666  1.0908 -0.0698  0.8330
   70CHL1   C20 6336   2.541   1.880   3.574 -0.1273  0.2640  0.4803
   70CHL1   H20 6337   2.520   1.987   3.593 -0.0584 -0.0910  2.9547
   70CHL1   C21 6338   2.682   1.872   3.515  0.2843 -0.1287  0.2777
   70CHL1  H21A 6339   2.710   1.962   3.457 -0.0634  0.5312  1.1001
   70CHL1  H21B 6340   2.677   1.780   3.452 -2.5736 -0.9188  1.4508
   70CHL1  H21C 6341   2.761   1.866   3.593 -0.4256  0.1818  1.0347
   70CHL1   C22 6342   2.539   1.805   3.708 -0.2757 -0.4252 -0.5007
   70CHL1  H22A 6343   2.435   1.775   3.732  0.3471 -0.6164  2.2715
   70CHL1  H22B 6344   2.596   1.711   3.693 -1.6128 -1.4770  0.7181
   70CHL1   C23 6345   2.609   1.882   3.817  0.2567 -0.2812 -0.7653
   70CHL1  H23A 6346   2.717   1.903   3.801  0.4615 -1.1307 -0.5609
   70CHL1  H23B 6347   2.569   1.986   3.818 -0.1535 -0.4322 -1.0047
   70CHL1   C24 6348   2.608   1.822   3.956 -0.9315  0.1101  0.2902
   70CHL1  H24A 6349   2.505   1.781   3.964 -0.4535 -1.3360 -0.6053
   70CHL1  H24B 6350   2.686   1.744   3.959 -0.1613  0.7739 -1.2515
   70CHL1   C25 6351   2.635   1.921   4.072 -0.2335 -0.2969 -0.2615
   70CHL1   H25 6352   2.726   1.980   4.048 -0.3785  0.7325  1.4998
   70CHL1   C26 6353   2.524   2.029   4.100 -0.2012 -0.2904 -0.7232
   70CHL1  H26A 6354   2.432   1.968   4.111 -0.3109 -0.0081 -0.0631
   70CHL1  H26B 6355   2.548   2.092   4.188 -0.4149 -0.0508 -0.8379
   70CHL1  H26C 6356   2.519   2.105   4.019 -1.7484 -0.7685 -1.1037
   70CHL1   C27 6357   2.654   1.832   4.192  0.3943 -0.4432 -0.7890
   70CHL1  H27A 6358   2.557   1.782   4.214 -0.2237  0.3527 -1.5868
   70CHL1  H27B 6359   2.735   1.757   4.183 -0.8766 -2.0209  0.3930
   70CHL1  H27C 6360   2.689   1.891   4.279 -1.8040  0.1225 -0.2267
   71CHL1    C3 6361   6.773   0.778   2.567 -0.0262 -0.2521 -0.5742
   71CHL1    H3 6362   6.715   0.695   2.613 -1.2123  1.3304  0.9264
   71CHL1    O3 6363   6.763   0.777   2.425 -0.4473 -0.0355 -0.3980
   71CHL1   H3' 6364   6.679   0.818   2.404  0.4429  1.2676 -1.6787
   71CHL1    C4 6365   6.710   0.909   2.620  0.4916  0.3662 -0.6416
   71CHL1   H4A 6366   6.773   0.991   2.580  1.7976 -0.7254 -0.8780
   71CHL1   H4B 6367   6.607   0.925   2.579  0.1737 -0.4319 -0.1831
   71CHL1    C5 6368   6.711   0.910   2.771 -0.2478 -0.0935  0.1303
   71CHL1    C6 6369   6.603   0.915   2.847 -0.4129 -0.0730  0.5282
   71CHL1    H6 6370   6.502   0.918   2.803  0.8850  0.7113 -2.7324
   71CHL1    C7 6371   6.610   0.943   2.991  0.5914  0.4665 -0.3223
   71CHL1   H7A 6372   6.541   1.029   3.007  0.6443  0.5956 -0.7794
   71CHL1   H7B 6373   6.573   0.856   3.049  0.3882 -0.1827 -1.4167
   71CHL1    C8 6374   6.745   0.986   3.044 -0.0678  1.3335  0.2196
   71CHL1    H8 6375   6.769   1.093   3.026  0.1037  1.1697 -0.6086
   71CHL1   C14 6376   6.745   0.965   3.198  0.5220 -0.9416  0.2977
   71CHL1   H14 6377   6.729   0.857   3.218 -3.6463 -0.6878 -0.6862
   71CHL1   C15 6378   6.641   1.029   3.290  0.6329  0.0126  0.5509
   71CHL1  H15A 6379   6.613   1.129   3.250 -1.1465 -0.4583  0.5036
   71CHL1  H15B 6380   6.549   0.966   3.289 -0.9890  2.2357  0.9413
   71CHL1   C16 6381   6.705   1.029   3.429 -0.4718  0.0170  0.2848
   71CHL1  H16A 6382   6.709   1.137   3.455 -2.3109  0.6290 -1.7404
   71CHL1  H16B 6383   6.645   0.973   3.503 -0.9346  0.6186  0.3744
   71CHL1   C17 6384   6.854   0.981   3.420 -0.0089 -0.2851 -0.0474
   71CHL1   H17 6385   6.858   0.871   3.431  1.6078 -0.0727  2.0561
   71CHL1   C13 6386   6.887   0.999   3.264  0.2348 -0.6386 -0.4078
   71CHL1   C18 6387   6.928   1.142   3.234  0.1534 -0.0930  0.0185
   71CHL1  H18A 6388   6.952   1.166   3.128 -1.3473  1.3480 -0.0345
   71CHL1  H18B 6389   6.855   1.216   3.273  0.5774 -0.6206  1.8914
   71CHL1  H18C 6390   7.025   1.162   3.286  0.4878 -3.0679  0.7342
   71CHL1   C12 6391   6.994   0.900   3.205 -0.6305  0.8034 -0.6440
   71CHL1  H12A 6392   7.091   0.932   3.249 -0.0106 -1.0860 -0.5676
   71CHL1  H12B 6393   6.975   0.794   3.232  0.7099 -0.0261 -2.7347
   71CHL1   C11 6394   6.994   0.903   3.055  1.0622  0.5012  0.2346
   71CHL1  H11A 6395   7.059   0.987   3.021  1.4260  0.1282  0.0044
   71CHL1  H11B 6396   7.051   0.812   3.028 -1.2577 -0.8947 -0.2227
   71CHL1    C9 6397   6.853   0.896   2.982  0.1098 -0.3030  0.5569
   71CHL1    H9 6398   6.817   0.794   3.007 -0.6428 -0.2639 -0.3325
   71CHL1   C10 6399   6.855   0.910   2.833  0.1888  0.1077  0.2874
   71CHL1   C19 6400   6.925   1.049   2.799 -0.2694 -0.4440  0.3531
   71CHL1  H19A 6401   6.870   1.130   2.852 -0.3427  0.6616 -1.3567
   71CHL1  H19B 6402   7.032   1.061   2.825 -0.4826 -1.0940  1.6152
   71CHL1  H19C 6403   6.928   1.076   2.691 -2.0470  3.2459  1.0646
   71CHL1    C1 6404   6.930   0.788   2.771 -0.3327  0.1634  0.4120
   71CHL1   H1A 6405   7.037   0.798   2.800 -0.2616  0.4083  0.0554
   71CHL1   H1B 6406   6.884   0.694   2.810 -1.2496  1.6498  3.1767
   71CHL1    C2 6407   6.923   0.782   2.615 -0.0121 -0.0406 -0.3705
   71CHL1   H2A 6408   6.984   0.702   2.568  1.4555  1.1512 -0.5887
   71CHL1   H2B 6409   6.967   0.875   2.573  0.4592  0.9574  2.1496
   71CHL1   C20 6410   6.947   1.052   3.529  0.1619 -0.2203  0.2881
   71CHL1   H20 6411   6.934   1.162   3.525  0.7937 -0.1379  0.4052
   71CHL1   C21 6412   7.097   1.011   3.509  0.3924 -0.1001 -0.2929
   71CHL1  H21A 6413   7.113   0.901   3.519  2.6947  0.2368  0.2262
   71CHL1  H21B 6414   7.159   1.072   3.578  0.4915  0.5325 -0.9296
   71CHL1  H21C 6415   7.131   1.057   3.413  3.1532 -1.1374  0.0768
   71CHL1   C22 6416   6.904   1.007   3.671  0.1840 -0.2157  0.6523
   71CHL1  H22A 6417   6.795   1.029   3.679  0.0819  0.6948 -2.0404
   71CHL1  H22B 6418   6.912   0.896   3.679  0.0746 -0.3525 -0.7298
   71CHL1   C23 6419   6.976   1.082   3.784 -0.2748 -0.3277  0.2675
   71CHL1  H23A 6420   7.078   1.042   3.806  1.0077  2.0415 -0.9497
   71CHL1  H23B 6421   6.982   1.189   3.753 -3.0658  0.7669  2.9523
   71CHL1   C24 6422   6.902   1.067   3.916  0.2022 -0.1376  0.0720
   71CHL1  H24A 6423   6.794   1.092   3.905  0.4782  0.2925 -1.9065
   71CHL1  H24B 6424   6.895   0.961   3.947  1.6143 -0.5982 -1.0743
   71CHL1   C25 6425   6.972   1.146   4.028  0.6114 -0.6019 -0.1705
   71CHL1   H25 6426   7.081   1.126   4.022  0.9527  0.7185  1.0862
   71CHL1   C26 6427   6.951   1.299   4.027  0.2886  0.1084 -0.4086
   71CHL1  H26A 6428   7.003   1.350   3.943 -0.1541 -0.8312 -1.2775
   71CHL1  H26B 6429   6.848   1.332   3.999  0.8025  0.1352 -2.4773
   71CHL1  H26C 6430   6.988   1.340   4.123  1.5522 -3.1603  0.6557
   71CHL1   C27 6431   6.928   1.093   4.160 -0.3045  0.5703 -0.5077
   71CHL1  H27A 6432   6.829   1.134   4.186 -0.5370  0.4705 -1.2045
   71CHL1  H27B 6433   6.929   0.982   4.152  0.2377  0.6673 -2.4559
   71CHL1  H27C 6434   6.997   1.111   4.245  0.5278 -1.9460 -0.5587
   72CHL1    C3 6435   6.594   5.118   2.789 -0.7885  0.2442  0.0487
   72CHL1    H3 6436   6.677   5.060   2.835  0.5853  0.0842 -2.4390
   72CHL1    O3 6437   6.599   5.096   2.651  0.2579 -0.3661 -0.4637
   72CHL1   H3' 6438   6.518   5.138   2.620  0.7828  0.0971 -1.2523
   72CHL1    C4 6439   6.455   5.058   2.831 -1.0770  0.4411 -0.9256
   72CHL1   H4A 6440   6.373   5.115   2.783 -1.9801  0.5088  0.6547
   72CHL1   H4B 6441   6.452   4.951   2.801 -0.1750  0.2173 -0.2578
   72CHL1    C5 6442   6.440   5.074   2.982 -0.4694 -0.4440  0.7277
   72CHL1    C6 6443   6.432   4.965   3.061  0.1731 -0.3014  0.1604
   72CHL1    H6 6444   6.416   4.868   3.013 -2.4634 -0.5032  1.3004
   72CHL1    C7 6445   6.417   4.966   3.211 -0.1942 -0.6087  0.3299
   72CHL1   H7A 6446   6.333   4.896   3.228 -0.7337  0.2982  1.5277
   72CHL1   H7B 6447   6.508   4.920   3.256 -0.4140 -0.7676  0.6174
   72CHL1    C8 6448   6.398   5.104   3.264 -0.4118 -0.0354 -0.3520
   72CHL1    H8 6449   6.292   5.125   3.240 -0.1154 -0.3777 -2.1140
   72CHL1   C14 6450   6.434   5.107   3.406  0.4445 -0.2730  0.5972
   72CHL1   H14 6451   6.542   5.081   3.408  0.2092 -1.3218  0.6750
   72CHL1   C15 6452   6.380   5.008   3.503  0.4598 -0.3504  0.0815
   72CHL1  H15A 6453   6.275   4.987   3.476  1.2612 -0.0128 -4.0726
   72CHL1  H15B 6454   6.445   4.917   3.506  0.4700 -0.3353  0.2895
   72CHL1   C16 6455   6.388   5.069   3.652  0.1294 -0.2692  0.1948
   72CHL1  H16A 6456   6.283   5.064   3.689 -0.1155  1.6084 -0.1343
   72CHL1  H16B 6457   6.461   5.015   3.716  0.8557  1.5672  0.9901
   72CHL1   C17 6458   6.439   5.214   3.628  0.5206  0.4682 -0.3032
   72CHL1   H17 6459   6.549   5.201   3.633  0.4907  0.5672  0.6993
   72CHL1   C13 6460   6.407   5.242   3.474  0.4235 -0.3581  0.7798
   72CHL1   C18 6461   6.254   5.277   3.464 -0.8493  0.9732  0.3499
   72CHL1  H18A 6462   6.225   5.364   3.527  0.1739  1.7283 -0.2045
   72CHL1  H18B 6463   6.213   5.307   3.365  0.2716  1.9080  0.1561
   72CHL1  H18C 6464   6.189   5.195   3.501 -2.2057  2.0643  0.4690
   72CHL1   C12 6465   6.496   5.342   3.403 -0.4944  0.8737 -0.4493
   72CHL1  H12A 6466   6.484   5.435   3.462 -1.5535 -0.6678  1.8845
   72CHL1  H12B 6467   6.602   5.309   3.416 -0.7431 -0.1768 -0.9371
   72CHL1   C11 6468   6.456   5.354   3.260 -0.1054 -0.6557  0.0294
   72CHL1  H11A 6469   6.356   5.400   3.246  0.3411  0.1644 -0.5685
   72CHL1  H11B 6470   6.527   5.422   3.210  0.6009  0.5055  2.4553
   72CHL1    C9 6471   6.472   5.218   3.190 -0.3582 -0.3343  0.5577
   72CHL1    H9 6472   6.579   5.201   3.216 -0.0934 -1.4981 -1.1750
   72CHL1   C10 6473   6.465   5.216   3.038  0.3516  0.1946 -0.2117
   72CHL1   C19 6474   6.333   5.290   3.001  0.3106  0.4241  0.4722
   72CHL1  H19A 6475   6.309   5.296   2.893  1.3193 -1.3084  0.1290
   72CHL1  H19B 6476   6.239   5.260   3.053 -0.3061  0.5973 -0.5195
   72CHL1  H19C 6477   6.349   5.398   3.024  1.7364  0.3440 -0.0590
   72CHL1    C1 6478   6.600   5.274   2.976  0.5985 -0.0254  0.1714
   72CHL1   H1A 6479   6.610   5.376   3.018 -2.6117 -0.6749  2.9420
   72CHL1   H1B 6480   6.681   5.213   3.019 -0.0923 -3.2394 -2.5976
   72CHL1    C2 6481   6.614   5.271   2.828  0.6674 -0.1880  0.3455
   72CHL1   H2A 6482   6.718   5.292   2.794 -0.0152 -0.5093 -2.1034
   72CHL1   H2B 6483   6.549   5.341   2.771 -0.5240 -0.7380  0.9805
   72CHL1   C20 6484   6.398   5.317   3.737 -0.5572  0.2765 -0.1384
   72CHL1   H20 6485   6.415   5.418   3.693 -0.0626  0.4255  0.3901
   72CHL1   C21 6486   6.502   5.302   3.848 -0.5943 -0.7008  0.4191
   72CHL1  H21A 6487   6.490   5.216   3.916 -0.3955 -0.2075  1.0855
   72CHL1  H21B 6488   6.495   5.385   3.922 -0.6207 -1.1684  0.9442
   72CHL1  H21C 6489   6.606   5.305   3.809 -0.1386 -1.8476  1.5050
   72CHL1   C22 6490   6.256   5.299   3.796  0.4220  0.3835 -0.4011
   72CHL1  H22A 6491   6.177   5.289   3.717 -1.6916  0.3509  1.6024
   72CHL1  H22B 6492   6.242   5.206   3.854  0.3338 -0.5250 -1.8401
   72CHL1   C23 6493   6.211   5.424   3.878  0.4593  0.3029  0.5481
   72CHL1  H23A 6494   6.263   5.406   3.975  2.7385 -1.8506 -0.9438
   72CHL1  H23B 6495   6.245   5.513   3.821 -0.8940  0.7976  0.4956
   72CHL1   C24 6496   6.059   5.435   3.905  0.5606 -0.1623 -0.4051
   72CHL1  H24A 6497   6.005   5.471   3.814 -1.0495  0.5714  0.7958
   72CHL1  H24B 6498   6.023   5.333   3.927 -0.4025  0.2562  0.0070
   72CHL1   C25 6499   6.018   5.526   4.023  0.2088  0.0824 -0.3842
   72CHL1   H25 6500   6.074   5.486   4.110  0.0471 -2.8730 -1.5255
   72CHL1   C26 6501   6.051   5.677   3.998  0.3300  0.0804  0.2779
   72CHL1  H26A 6502   6.028   5.733   4.092 -1.0271 -0.4770  0.3101
   72CHL1  H26B 6503   6.160   5.690   3.984  0.4187  2.6032  2.4333
   72CHL1  H26C 6504   5.990   5.726   3.919  0.6152  1.7655  1.0560
   72CHL1   C27 6505   5.863   5.511   4.029 -0.1599  0.1276 -0.2442
   72CHL1  H27A 6506   5.829   5.540   4.131 -0.6044  1.1194 -0.6617
   72CHL1  H27B 6507   5.815   5.566   3.945 -0.5161 -1.1718 -0.9255
   72CHL1  H27C 6508   5.829   5.405   4.021 -0.0347  0.0921 -0.3082
   73CHL1    C3 6509   1.188   0.683   2.596  0.2318  0.5953 -0.0669
   73CHL1    H3 6510   1.283   0.630   2.617 -0.0704  0.1587  0.2120
   73CHL1    O3 6511   1.160   0.672   2.460 -0.5430 -0.2967  0.2860
   73CHL1   H3' 6512   1.244   0.683   2.415 -0.3729  0.1196  0.6976
   73CHL1    C4 6513   1.073   0.617   2.676  0.4341 -0.5959  0.4820
   73CHL1   H4A 6514   0.982   0.677   2.658  0.6203 -0.4961 -0.1613
   73CHL1   H4B 6515   1.052   0.515   2.638  2.3357 -0.1425 -2.1159
   73CHL1    C5 6516   1.113   0.626   2.823  0.0265 -0.7476  0.4407
   73CHL1    C6 6517   1.133   0.517   2.904  0.2760  0.4463  0.0673
   73CHL1    H6 6518   1.127   0.420   2.852  0.6942 -0.2779  1.3094
   73CHL1    C7 6519   1.174   0.517   3.048 -0.2800  0.0346  0.4190
   73CHL1   H7A 6520   1.115   0.443   3.107  1.0388 -0.1334  1.5842
   73CHL1   H7B 6521   1.284   0.505   3.052 -0.0452  2.0105  1.1523
   73CHL1    C8 6522   1.157   0.657   3.119  0.0357  0.0801  0.7917
   73CHL1    H8 6523   1.047   0.668   3.128 -0.3937 -1.0143 -1.8534
   73CHL1   C14 6524   1.228   0.659   3.244 -0.3298  0.6381 -0.4143
   73CHL1   H14 6525   1.335   0.648   3.217  0.6319  3.4107  1.7517
   73CHL1   C15 6526   1.191   0.555   3.352  0.1336  0.5604  0.0599
   73CHL1  H15A 6527   1.081   0.548   3.365 -0.0580  1.1678 -1.1590
   73CHL1  H15B 6528   1.229   0.452   3.331 -2.1670 -0.1678 -0.8947
   73CHL1   C16 6529   1.246   0.603   3.481  0.0439 -0.3100 -0.2636
   73CHL1  H16A 6530   1.163   0.595   3.556 -1.8856 -0.1836 -2.2759
   73CHL1  H16B 6531   1.338   0.551   3.514  0.7946  0.3520 -1.2786
   73CHL1   C17 6532   1.286   0.751   3.452 -0.3964 -0.1314 -0.6152
   73CHL1   H17 6533   1.395   0.744   3.431 -0.6460 -0.7232 -1.8134
   73CHL1   C13 6534   1.222   0.793   3.317 -0.6452  0.2292  0.5750
   73CHL1   C18 6535   1.072   0.839   3.352 -0.7137  0.2385 -0.1001
   73CHL1  H18A 6536   1.006   0.850   3.264  0.0458  1.2913 -0.5490
   73CHL1  H18B 6537   1.017   0.764   3.414 -1.8868  0.1945 -1.1730
   73CHL1  H18C 6538   1.089   0.937   3.401  0.7128 -0.4613  0.8755
   73CHL1   C12 6539   1.288   0.899   3.224 -0.6402  0.5483 -0.1174
   73CHL1  H12A 6540   1.294   1.005   3.256  0.6754  0.6617 -0.6983
   73CHL1  H12B 6541   1.395   0.879   3.204 -0.2236  2.1099  0.3862
   73CHL1   C11 6542   1.222   0.910   3.083 -0.0085  0.0201  0.2973
   73CHL1  H11A 6543   1.121   0.954   3.099  0.2667  0.9962 -0.5141
   73CHL1  H11B 6544   1.277   0.980   3.016  0.0981  0.5781  0.9565
   73CHL1    C9 6545   1.211   0.765   3.018 -0.9394  0.5060  0.3568
   73CHL1    H9 6546   1.314   0.731   2.993 -0.5396  1.2162  1.0148
   73CHL1   C10 6547   1.141   0.780   2.872 -0.3790  0.7209  0.4181
   73CHL1   C19 6548   1.008   0.848   2.894 -0.2962  0.1308  0.2613
   73CHL1  H19A 6549   1.028   0.955   2.917  0.6160 -0.2908  1.5473
   73CHL1  H19B 6550   0.964   0.849   2.792  0.8785  1.1256 -0.2651
   73CHL1  H19C 6551   0.935   0.798   2.961 -2.2094  1.1835 -0.9490
   73CHL1    C1 6552   1.232   0.858   2.777 -0.2895  0.4194 -0.9036
   73CHL1   H1A 6553   1.234   0.968   2.793 -0.1088  0.1592  1.2968
   73CHL1   H1B 6554   1.329   0.806   2.787 -0.6534 -0.2946 -1.0043
   73CHL1    C2 6555   1.211   0.835   2.632 -0.4546 -0.0227  1.6731
   73CHL1   H2A 6556   1.297   0.878   2.576 -1.6263 -0.4057 -0.5476
   73CHL1   H2B 6557   1.116   0.882   2.599 -1.1535 -0.1652  3.3520
   73CHL1   C20 6558   1.277   0.851   3.570 -0.4537 -0.3605 -0.0763
   73CHL1   H20 6559   1.173   0.889   3.584 -0.2595 -0.2516  1.2676
   73CHL1   C21 6560   1.364   0.974   3.550  0.0394 -0.9985  0.5305
   73CHL1  H21A 6561   1.474   0.960   3.556  0.1671  0.4696  2.9589
   73CHL1  H21B 6562   1.352   1.051   3.629  2.2680  0.6203 -0.5851
   73CHL1  H21C 6563   1.343   1.025   3.453  0.0001 -0.3273  0.8839
   73CHL1   C22 6564   1.319   0.796   3.705 -0.3549 -0.7176 -0.4053
   73CHL1  H22A 6565   1.259   0.707   3.732 -1.5046  0.1282 -0.0809
   73CHL1  H22B 6566   1.425   0.767   3.685 -0.5944 -1.4615 -0.6275
   73CHL1   C23 6567   1.308   0.889   3.831 -0.5134  0.6022  0.2728
   73CHL1  H23A 6568   1.372   0.980   3.826  1.5299 -0.6469  1.9146
   73CHL1  H23B 6569   1.201   0.920   3.836 -0.9279 -0.5434 -0.9127
   73CHL1   C24 6570   1.359   0.818   3.963  0.2601  0.1184  1.0582
   73CHL1  H24A 6571   1.289   0.737   3.993 -1.5587  0.7468 -1.1397
   73CHL1  H24B 6572   1.462   0.788   3.932  0.5623 -0.1115  2.2587
   73CHL1   C25 6573   1.380   0.911   4.074  1.3423 -0.5645 -0.1194
   73CHL1   H25 6574   1.293   0.979   4.055  2.0706  0.3288 -0.3168
   73CHL1   C26 6575   1.371   0.846   4.210 -0.0301 -0.1440 -0.9422
   73CHL1  H26A 6576   1.466   0.791   4.225 -1.7377 -3.0055  0.1538
   73CHL1  H26B 6577   1.364   0.928   4.285  0.2786 -1.1505  0.2164
   73CHL1  H26C 6578   1.288   0.775   4.228 -1.7443  1.9433 -0.3011
   73CHL1   C27 6579   1.504   1.004   4.063 -0.3527  0.5023 -0.2061
   73CHL1  H27A 6580   1.503   1.067   3.971  0.1210  0.5372 -0.1890
   73CHL1  H27B 6581   1.520   1.076   4.146 -1.9494  0.3045  0.3164
   73CHL1  H27C 6582   1.594   0.941   4.046 -0.2158  0.9660 -1.3048
   74CHL1    C3 6583   0.939   6.303   2.546 -0.1005 -0.0154 -0.4871
   74CHL1    H3 6584   0.936   6.201   2.591 -1.3257  0.9765  1.8352
   74CHL1    O3 6585   0.941   6.301   2.409 -0.5149 -0.3317 -0.0610
   74CHL1   H3' 6586   1.028   6.326   2.378 -1.0735  0.4664 -1.0480
   74CHL1    C4 6587   0.816   6.388   2.589 -0.1891 -0.0894 -0.3310
   74CHL1   H4A 6588   0.829   6.490   2.549 -0.6721  0.1265  0.0463
   74CHL1   H4B 6589   0.724   6.349   2.541 -1.4705  1.8689  0.4280
   74CHL1    C5 6590   0.809   6.391   2.743 -0.2998  0.1549 -0.3306
   74CHL1    C6 6591   0.699   6.341   2.806  0.1814 -0.3555 -0.8381
   74CHL1    H6 6592   0.621   6.297   2.742 -0.9812 -0.7929  0.8160
   74CHL1    C7 6593   0.682   6.357   2.949  0.0504 -0.3743 -0.8281
   74CHL1   H7A 6594   0.576   6.380   2.976  0.3293 -0.2352  0.1985
   74CHL1   H7B 6595   0.703   6.255   2.988 -1.0217 -0.4870 -0.4987
   74CHL1    C8 6596   0.780   6.450   3.027 -0.0608  0.8118  0.2989
   74CHL1    H8 6597   0.745   6.551   2.997  0.1664  0.3595 -1.6149
   74CHL1   C14 6598   0.786   6.427   3.174 -0.3598 -0.2174 -0.6621
   74CHL1   H14 6599   0.808   6.320   3.194  1.8744  0.3921  0.4087
   74CHL1   C15 6600   0.651   6.433   3.252  0.0932  0.6551  0.2849
   74CHL1  H15A 6601   0.607   6.519   3.197  0.0457  0.3007 -0.2505
   74CHL1  H15B 6602   0.600   6.336   3.230  1.8621  0.3077 -3.1366
   74CHL1   C16 6603   0.694   6.442   3.399 -0.0840 -0.3593  0.0766
   74CHL1  H16A 6604   0.662   6.542   3.435  2.8804  0.0726  1.8227
   74CHL1  H16B 6605   0.648   6.357   3.453 -2.0152  1.3915  1.3676
   74CHL1   C17 6606   0.847   6.444   3.403 -0.3719 -0.7165  0.1371
   74CHL1   H17 6607   0.879   6.338   3.402  0.4566 -0.5147  2.0771
   74CHL1   C13 6608   0.891   6.491   3.262 -0.0101 -0.4324  0.0730
   74CHL1   C18 6609   0.878   6.649   3.261 -1.0354 -0.1956 -0.0561
   74CHL1  H18A 6610   0.963   6.701   3.310 -0.5532 -0.7246 -0.3077
   74CHL1  H18B 6611   0.880   6.666   3.151 -0.4607 -0.4363 -0.0879
   74CHL1  H18C 6612   0.777   6.684   3.290 -0.0319  0.6511  2.6571
   74CHL1   C12 6613   1.025   6.446   3.201  0.3215 -0.3046 -0.2510
   74CHL1  H12A 6614   1.106   6.494   3.260 -0.0100  1.8169 -1.4208
   74CHL1  H12B 6615   1.033   6.337   3.223 -1.6666 -0.3711  0.3394
   74CHL1   C11 6616   1.039   6.482   3.052 -0.6884 -0.8482 -0.5905
   74CHL1  H11A 6617   1.057   6.591   3.041 -1.5426 -0.6605 -0.2184
   74CHL1  H11B 6618   1.133   6.437   3.013 -2.5248 -2.0385 -4.0564
   74CHL1    C9 6619   0.922   6.422   2.968 -1.0086 -0.1508 -0.0080
   74CHL1    H9 6620   0.937   6.313   2.983  1.0579  0.0607 -0.2279
   74CHL1   C10 6621   0.933   6.444   2.820 -0.3092 -0.5341 -0.2872
   74CHL1   C19 6622   0.936   6.600   2.797 -0.1095 -0.8536 -0.5191
   74CHL1  H19A 6623   0.898   6.628   2.697  2.0444  1.0812 -0.8848
   74CHL1  H19B 6624   0.873   6.654   2.870  1.5282  1.9611 -1.0491
   74CHL1  H19C 6625   1.034   6.651   2.812 -1.8877  2.3888  1.2456
   74CHL1    C1 6626   1.062   6.374   2.760  0.3494 -0.7361  0.1014
   74CHL1   H1A 6627   1.148   6.443   2.774 -0.4719  0.7251 -1.7220
   74CHL1   H1B 6628   1.072   6.286   2.827  0.5382 -0.8399 -0.0609
   74CHL1    C2 6629   1.067   6.363   2.612 -0.1821 -0.4888  0.0100
   74CHL1   H2A 6630   1.154   6.296   2.595  3.0281  2.9068  1.6667
   74CHL1   H2B 6631   1.084   6.460   2.562  1.6015 -0.6422  0.2707
   74CHL1   C20 6632   0.915   6.503   3.530  0.6202 -0.1711 -0.6454
   74CHL1   H20 6633   0.876   6.606   3.541 -1.3570 -1.0787  1.6772
   74CHL1   C21 6634   1.066   6.503   3.520  0.0748  0.0015  0.1917
   74CHL1  H21A 6635   1.113   6.515   3.620  0.3308 -0.1894  0.0948
   74CHL1  H21B 6636   1.099   6.585   3.452 -0.1211 -1.3015 -1.5539
   74CHL1  H21C 6637   1.095   6.403   3.482 -0.1904  0.0167 -0.0588
   74CHL1   C22 6638   0.887   6.436   3.671  0.4114  0.0342 -0.3267
   74CHL1  H22A 6639   0.784   6.394   3.678  0.5920 -0.2614  0.8105
   74CHL1  H22B 6640   0.941   6.340   3.686  2.0732  0.6062 -2.2305
   74CHL1   C23 6641   0.908   6.534   3.786  0.5808  0.3994 -0.3135
   74CHL1  H23A 6642   0.993   6.602   3.764  1.2267 -0.5088 -0.6957
   74CHL1  H23B 6643   0.822   6.603   3.800  0.0250 -0.4551  0.5658
   74CHL1   C24 6644   0.937   6.464   3.920  0.0065  0.0187 -0.5409
   74CHL1  H24A 6645   1.040   6.422   3.913  0.5267  1.0911  0.3438
   74CHL1  H24B 6646   0.942   6.544   3.996 -0.6831  1.0199 -1.5059
   74CHL1   C25 6647   0.820   6.366   3.955 -0.0848 -0.6690 -0.1704
   74CHL1   H25 6648   0.805   6.290   3.876 -0.5783 -2.5328  1.6310
   74CHL1   C26 6649   0.853   6.292   4.087  0.0957  0.5354  0.5948
   74CHL1  H26A 6650   0.931   6.213   4.080  0.7868  1.2108  0.6155
   74CHL1  H26B 6651   0.880   6.359   4.171  2.2860  1.3984 -0.7333
   74CHL1  H26C 6652   0.760   6.231   4.100  0.0024  0.5226 -0.1173
   74CHL1   C27 6653   0.684   6.439   3.973 -0.4877  0.1516  0.2843
   74CHL1  H27A 6654   0.682   6.531   4.035 -1.2655  0.1183  0.3110
   74CHL1  H27B 6655   0.648   6.457   3.869  2.3518  1.9052 -0.5429
   74CHL1  H27C 6656   0.609   6.371   4.017 -1.4830  1.5256  0.8003
   75CHL1    C3 6657   2.034   6.096   2.710  0.1027  0.9594 -0.0216
   75CHL1    H3 6658   2.133   6.111   2.758  0.0183 -2.5342  1.5304
   75CHL1    O3 6659   2.034   6.075   2.571 -0.0975 -0.2857  0.2444
   75CHL1   H3' 6660   1.951   6.105   2.532 -0.9651 -0.1712  2.0473
   75CHL1    C4 6661   1.980   5.970   2.779  0.1185 -0.2715  0.9212
   75CHL1   H4A 6662   1.877   5.951   2.743 -0.3069 -1.4269  2.6600
   75CHL1   H4B 6663   2.032   5.878   2.743  1.7538  1.4300 -1.4028
   75CHL1    C5 6664   1.965   5.987   2.927  0.1786 -0.5964 -0.7448
   75CHL1    C6 6665   2.031   5.911   3.005 -0.4831  0.4479 -0.9181
   75CHL1    H6 6666   2.092   5.828   2.966 -0.2298  0.5527 -0.7442
   75CHL1    C7 6667   2.041   5.923   3.155  0.2682 -0.5302 -0.6760
   75CHL1   H7A 6668   2.028   5.821   3.199 -0.3318 -0.0707  0.2404
   75CHL1   H7B 6669   2.144   5.959   3.179 -0.1760  0.6663 -0.5463
   75CHL1    C8 6670   1.938   6.015   3.218 -0.2014 -0.6041  0.2155
   75CHL1    H8 6671   1.849   5.950   3.222  0.9183 -2.3095 -1.0567
   75CHL1   C14 6672   1.969   6.042   3.364 -0.8500  0.2652  0.1784
   75CHL1   H14 6673   2.068   6.092   3.358 -0.4458 -0.4627  0.5701
   75CHL1   C15 6674   2.007   5.926   3.461 -0.1038  0.1588  0.6290
   75CHL1  H15A 6675   1.921   5.856   3.460  1.5847 -2.2370  3.8905
   75CHL1  H15B 6676   2.103   5.876   3.436 -1.5696 -2.1341 -0.8027
   75CHL1   C16 6677   2.017   6.000   3.596  0.2399 -0.1127 -0.7318
   75CHL1  H16A 6678   1.962   5.941   3.672  0.4023 -0.8551 -1.1772
   75CHL1  H16B 6679   2.123   6.008   3.630  0.8155 -2.4463 -1.7743
   75CHL1   C17 6680   1.949   6.138   3.578 -0.1029 -0.6173 -0.2103
   75CHL1   H17 6681   2.037   6.207   3.574  1.0559 -2.0999 -1.7129
   75CHL1   C13 6682   1.876   6.137   3.441 -0.3375  0.2369  0.1643
   75CHL1   C18 6683   1.740   6.071   3.463  0.4095  0.0750 -0.4574
   75CHL1  H18A 6684   1.692   6.040   3.368 -3.4080  1.8368  0.6806
   75CHL1  H18B 6685   1.738   5.983   3.530  1.8803  0.2142 -0.2022
   75CHL1  H18C 6686   1.658   6.130   3.510  0.0698 -1.5557  1.0861
   75CHL1   C12 6687   1.870   6.264   3.358 -0.4604 -0.3467  0.7533
   75CHL1  H12A 6688   1.798   6.335   3.405 -1.6574 -0.8774 -0.2133
   75CHL1  H12B 6689   1.963   6.324   3.352 -1.0469  0.6322  1.0749
   75CHL1   C11 6690   1.823   6.240   3.212 -0.2530 -0.7818  0.1819
   75CHL1  H11A 6691   1.716   6.208   3.219 -1.3436  2.0921 -1.5104
   75CHL1  H11B 6692   1.823   6.341   3.165 -1.5904  0.5691  2.8288
   75CHL1    C9 6693   1.917   6.140   3.135  0.1314 -0.5222 -0.2729
   75CHL1    H9 6694   2.011   6.199   3.135 -1.0177  1.3770  0.6693
   75CHL1   C10 6695   1.887   6.113   2.983 -0.4578 -0.2167  0.1980
   75CHL1   C19 6696   1.733   6.086   2.977  0.1379 -0.2807 -0.1199
   75CHL1  H19A 6697   1.671   6.177   2.985 -0.5014 -0.5219 -1.7864
   75CHL1  H19B 6698   1.709   6.047   2.875 -0.2496 -1.7545  0.5023
   75CHL1  H19C 6699   1.711   6.005   3.050 -1.9721 -0.1642 -0.5645
   75CHL1    C1 6700   1.914   6.236   2.888  0.2985  0.8455 -0.6785
   75CHL1   H1A 6701   1.825   6.302   2.893 -0.1994  0.1827 -0.5700
   75CHL1   H1B 6702   1.999   6.293   2.932  0.5221  0.2515 -0.3257
   75CHL1    C2 6703   1.939   6.212   2.739 -0.2084 -0.1299 -0.6664
   75CHL1   H2A 6704   1.991   6.301   2.698  0.8798 -0.1048  0.7006
   75CHL1   H2B 6705   1.849   6.193   2.677  0.1950 -1.0229 -0.9936
   75CHL1   C20 6706   1.882   6.186   3.711 -0.8546  0.4205  0.0513
   75CHL1   H20 6707   1.792   6.123   3.730 -1.6673  0.1409 -3.7710
   75CHL1   C21 6708   1.829   6.329   3.684  0.1573  0.2016  0.4050
   75CHL1  H21A 6709   1.906   6.398   3.644  1.4800 -0.6353  1.4116
   75CHL1  H21B 6710   1.790   6.369   3.780 -1.2298 -0.2084  0.0392
   75CHL1  H21C 6711   1.750   6.335   3.606 -0.7148  0.6111  1.2945
   75CHL1   C22 6712   1.982   6.170   3.837  0.0235  0.1550  0.4449
   75CHL1  H22A 6713   2.043   6.077   3.827 -0.2180  0.0182  0.1949
   75CHL1  H22B 6714   2.057   6.251   3.841 -1.0788  1.1669  1.2054
   75CHL1   C23 6715   1.911   6.156   3.971 -0.0951  0.0949 -0.4085
   75CHL1  H23A 6716   1.831   6.233   3.972  0.0272  0.2259  0.9552
   75CHL1  H23B 6717   1.862   6.056   3.971 -1.2153  0.5131 -3.5009
   75CHL1   C24 6718   2.019   6.188   4.086  0.2517  0.0654  0.6377
   75CHL1  H24A 6719   2.098   6.110   4.079 -0.7600 -0.8802 -1.3004
   75CHL1  H24B 6720   2.060   6.291   4.078  0.9204 -0.2423 -0.0304
   75CHL1   C25 6721   1.969   6.168   4.231  0.3913 -0.1332  0.4508
   75CHL1   H25 6722   1.862   6.196   4.233  0.3386  0.0289 -1.8266
   75CHL1   C26 6723   1.975   6.018   4.263 -0.2223  0.1527 -0.4078
   75CHL1  H26A 6724   1.919   5.944   4.202 -1.1904  1.5089 -1.2261
   75CHL1  H26B 6725   2.082   5.988   4.269  0.3356  2.1219 -0.0259
   75CHL1  H26C 6726   1.931   6.006   4.364  0.3596  0.1669 -0.1525
   75CHL1   C27 6727   2.059   6.249   4.332  0.5284  0.1204  0.3162
   75CHL1  H27A 6728   2.154   6.193   4.348  0.1549 -0.5310  0.2819
   75CHL1  H27B 6729   2.088   6.349   4.292  1.5291  0.3793  1.6145
   75CHL1  H27C 6730   2.018   6.257   4.435  1.4707  0.9270  0.6474
   76CHL1    C3 6731   5.975   5.639   2.759  0.7169  0.4667  0.0328
   76CHL1    H3 6732   5.899   5.717   2.742 -0.8548 -0.6820  1.4821
   76CHL1    O3 6733   6.042   5.604   2.635  0.0457 -0.1244 -0.0086
   76CHL1   H3' 6734   6.092   5.528   2.666 -1.5359 -0.6599  1.3914
   76CHL1    C4 6735   6.077   5.689   2.866  0.2114  0.8700  0.0391
   76CHL1   H4A 6736   6.151   5.609   2.889  0.2914  1.3371  1.5526
   76CHL1   H4B 6737   6.140   5.770   2.823  0.0460  0.8961 -0.1580
   76CHL1    C5 6738   6.004   5.731   2.995  0.0521  0.1876  0.2480
   76CHL1    C6 6739   6.012   5.849   3.055 -0.5598 -0.0754  0.2394
   76CHL1    H6 6740   6.072   5.929   3.009 -0.8157 -0.2339 -0.3815
   76CHL1    C7 6741   5.965   5.878   3.191  0.0828  0.1065  0.1345
   76CHL1   H7A 6742   6.032   5.948   3.244  1.9802 -1.3406 -0.2552
   76CHL1   H7B 6743   5.870   5.935   3.176  0.7032  0.5433 -2.8447
   76CHL1    C8 6744   5.912   5.756   3.271 -0.4730  0.1675  0.2532
   76CHL1    H8 6745   5.999   5.716   3.327 -0.4294 -0.4482 -0.2487
   76CHL1   C14 6746   5.816   5.800   3.383  0.0272 -0.1201 -0.1367
   76CHL1   H14 6747   5.722   5.833   3.335  0.7649  0.8916 -0.9216
   76CHL1   C15 6748   5.842   5.932   3.458  0.5664  0.7299 -0.8187
   76CHL1  H15A 6749   5.948   5.959   3.478  0.3102  0.4048  1.0849
   76CHL1  H15B 6750   5.815   6.020   3.395  0.6053  1.9290  0.7955
   76CHL1   C16 6751   5.757   5.918   3.588 -0.4048  0.2686  0.3180
   76CHL1  H16A 6752   5.815   5.906   3.682  0.5092 -0.6006 -0.3323
   76CHL1  H16B 6753   5.683   6.001   3.577  1.6682  2.0402 -1.3464
   76CHL1   C17 6754   5.685   5.781   3.575  0.5209 -0.5558  0.0409
   76CHL1   H17 6755   5.599   5.804   3.507 -0.1968 -0.4479  0.9632
   76CHL1   C13 6756   5.779   5.691   3.486 -0.0537  0.3587  0.7121
   76CHL1   C18 6757   5.900   5.637   3.564  0.0596 -0.7506  0.0166
   76CHL1  H18A 6758   5.882   5.561   3.643 -1.4399  2.1898  2.7302
   76CHL1  H18B 6759   5.967   5.590   3.489 -1.0934 -1.0934 -0.8201
   76CHL1  H18C 6760   5.964   5.712   3.616  0.7421 -2.1758  1.3167
   76CHL1   C12 6761   5.712   5.575   3.403 -0.5754 -0.4899 -0.1275
   76CHL1  H12A 6762   5.697   5.485   3.467  0.2605 -0.0574  0.7126
   76CHL1  H12B 6763   5.615   5.619   3.372 -0.8783  0.4432  1.9828
   76CHL1   C11 6764   5.796   5.537   3.275  0.3500 -0.3063 -0.5275
   76CHL1  H11A 6765   5.887   5.487   3.317 -0.8492  0.3539  3.2682
   76CHL1  H11B 6766   5.738   5.470   3.208 -3.4532  1.6839  0.5007
   76CHL1    C9 6767   5.843   5.653   3.182 -0.6366 -0.1751  0.0921
   76CHL1    H9 6768   5.752   5.699   3.138 -0.0927 -0.2643 -1.1775
   76CHL1   C10 6769   5.935   5.609   3.060  0.3334 -1.1416 -0.5129
   76CHL1   C19 6770   6.040   5.506   3.098 -0.1089  0.3236 -0.1930
   76CHL1  H19A 6771   6.089   5.448   3.017  0.4770 -0.6872  0.8396
   76CHL1  H19B 6772   6.111   5.553   3.169  1.1729 -0.8952 -0.6220
   76CHL1  H19C 6773   5.990   5.424   3.154  1.2114  1.6006  3.1014
   76CHL1    C1 6774   5.838   5.555   2.948  1.0046 -0.2979 -0.0207
   76CHL1   H1A 6775   5.785   5.470   2.997  1.9844 -0.1358  1.3826
   76CHL1   H1B 6776   5.760   5.632   2.934 -0.9688 -2.0147  0.9281
   76CHL1    C2 6777   5.897   5.513   2.817 -0.1425  0.0218  0.2009
   76CHL1   H2A 6778   5.815   5.485   2.748  0.5460 -0.2892 -0.5129
   76CHL1   H2B 6779   5.975   5.435   2.825  0.0704 -0.1234 -2.3086
   76CHL1   C20 6780   5.646   5.731   3.716  0.0617 -0.9172  0.0674
   76CHL1   H20 6781   5.742   5.709   3.766  1.2156  2.6152 -0.2933
   76CHL1   C21 6782   5.558   5.606   3.695  0.1222 -0.1892 -0.4496
   76CHL1  H21A 6783   5.519   5.564   3.790 -1.7506 -1.6166 -1.7698
   76CHL1  H21B 6784   5.620   5.520   3.664  1.0769  0.1313  0.5017
   76CHL1  H21C 6785   5.470   5.617   3.628  0.2871 -0.0711 -0.6467
   76CHL1   C22 6786   5.568   5.830   3.810  0.2808  0.2211  0.4421
   76CHL1  H22A 6787   5.635   5.917   3.824  1.4768 -0.7934  1.2832
   76CHL1  H22B 6788   5.472   5.857   3.762 -1.2767 -2.1494  1.9985
   76CHL1   C23 6789   5.546   5.788   3.957 -0.3825  0.3166  0.0034
   76CHL1  H23A 6790   5.612   5.704   3.986 -2.3414 -0.7034  1.8715
   76CHL1  H23B 6791   5.562   5.872   4.029  0.8735 -1.3284  1.7292
   76CHL1   C24 6792   5.405   5.742   3.998 -0.2039  0.3772  0.3791
   76CHL1  H24A 6793   5.338   5.829   3.978  1.7574  1.4976 -1.8809
   76CHL1  H24B 6794   5.367   5.663   3.929  0.2089  0.4798  0.0310
   76CHL1   C25 6795   5.399   5.698   4.145  0.0457 -0.4010 -0.2295
   76CHL1   H25 6796   5.450   5.776   4.205  1.4926 -0.2018 -1.6583
   76CHL1   C26 6797   5.251   5.703   4.187 -0.4071  0.0061  0.1474
   76CHL1  H26A 6798   5.233   5.813   4.184  0.9298  0.2520  0.5851
   76CHL1  H26B 6799   5.184   5.651   4.114  1.1445 -1.4156 -0.3183
   76CHL1  H26C 6800   5.244   5.663   4.290  2.3842 -2.7388 -0.5898
   76CHL1   C27 6801   5.470   5.567   4.173  0.5659 -0.0795 -0.2132
   76CHL1  H27A 6802   5.573   5.567   4.130  0.5231 -2.6285 -0.4405
   76CHL1  H27B 6803   5.474   5.554   4.284  2.0591  0.0435 -0.2244
   76CHL1  H27C 6804   5.418   5.478   4.133  1.8145  0.1344 -2.4621
   77SOPE     N 6805   3.004   5.236   6.456  0.0178  0.1753 -0.2893
   77SOPE   HN1 6806   3.046   5.295   6.530  0.1770 -1.3717  0.9113
   77SOPE   HN2 6807   3.078   5.209   6.390  0.8773 -1.0980  1.1278
   77SOPE   HN3 6808   2.934   5.289   6.401  0.2492 -0.5148 -1.2669
   77SOPE   C12 6809   2.961   5.119   6.528  0.3806  0.4661 -0.3511
   77SOPE  H12A 6810   2.864   5.079   6.490  2.2878 -2.1436 -2.9016
   77SOPE  H12B 6811   2.941   5.142   6.634  0.9868 -1.6729  0.2815
   77SOPE   C11 6812   3.070   5.005   6.520  0.8255 -0.4705 -0.5565
   77SOPE  H11A 6813   3.065   4.953   6.422 -2.2131 -1.1223 -0.1598
   77SOPE  H11B 6814   3.033   4.930   6.594  0.8168  1.1351  1.1549
   77SOPE     P 6815   3.315   4.976   6.601 -0.0935  0.3652 -0.3067
   77SOPE   O13 6816   3.259   4.889   6.709  0.0655  0.0000  0.6874
   77SOPE   O14 6817   3.425   5.069   6.641  0.9852  0.5254  0.5617
   77SOPE   O12 6818   3.196   5.057   6.543  0.0395  0.9500  0.5760
   77SOPE   O11 6819   3.374   4.886   6.483 -0.1953 -0.3375 -0.1186
   77SOPE    C1 6820   3.390   4.938   6.352 -0.3083 -0.4367 -0.9344
   77SOPE    HA 6821   3.496   4.966   6.335 -0.6393  0.8043 -1.0125
   77SOPE    HB 6822   3.328   5.029   6.335 -0.2540 -0.3566 -0.7150
   77SOPE    C2 6823   3.357   4.829   6.238 -0.2218 -0.2803 -0.0581
   77SOPE    HS 6824   3.394   4.729   6.270  3.0871  0.0777 -2.3406
   77SOPE   O21 6825   3.423   4.863   6.114 -0.1769 -0.5747 -0.2218
   77SOPE   C21 6826   3.558   4.832   6.105 -1.1259 -0.0090 -0.2878
   77SOPE   O22 6827   3.618   4.755   6.184  0.4926 -0.1792  1.0081
   77SOPE   C22 6828   3.621   4.885   5.972  0.3545  0.1131  0.0375
   77SOPE   H2R 6829   3.624   4.995   5.990 -2.1257 -0.0998  2.4604
   77SOPE   H2S 6830   3.554   4.853   5.890 -0.3579 -1.5381  1.2109
   77SOPE    C3 6831   3.200   4.824   6.221 -0.0587 -0.3180  0.0511
   77SOPE    HX 6832   3.148   4.922   6.206  0.2982  0.3229  2.5092
   77SOPE    HY 6833   3.170   4.794   6.324  1.1312  0.7318  0.7371
   77SOPE   O31 6834   3.158   4.726   6.131  0.3226  0.2968 -0.0850
   77SOPE   C31 6835   3.034   4.733   6.096  0.0355 -0.6533  0.5970
   77SOPE   O32 6836   2.951   4.818   6.131 -0.6624  0.4412 -0.3330
   77SOPE   C32 6837   3.006   4.621   5.995 -0.4552  0.5615 -0.4690
   77SOPE   H2X 6838   2.896   4.612   5.993 -0.4043 -0.0418 -1.1496
   77SOPE   H2Y 6839   3.060   4.526   6.018 -1.0847  0.6506  1.5950
   77SOPE   C23 6840   3.760   4.828   5.929  1.0791  0.4721  0.3470
   77SOPE   H3R 6841   3.765   4.717   5.925 -3.0125  0.1638 -0.4050
   77SOPE   H3S 6842   3.830   4.858   6.010  1.0740  2.2778 -0.2753
   77SOPE   C24 6843   3.802   4.877   5.788  0.1342 -0.7206 -1.3908
   77SOPE   H4R 6844   3.805   4.986   5.767  1.5354 -0.6499 -0.9234
   77SOPE   H4S 6845   3.907   4.844   5.776  0.5880 -0.6296  1.5819
   77SOPE   C25 6846   3.718   4.825   5.671  0.2015 -0.5621  0.2529
   77SOPE   H5R 6847   3.721   4.717   5.696 -2.5881 -0.3895  1.7775
   77SOPE   H5S 6848   3.609   4.848   5.666  0.3065 -0.1236 -0.0084
   77SOPE   C26 6849   3.769   4.859   5.527 -0.6682  0.3823  0.1119
   77SOPE   H6R 6850   3.871   4.819   5.511 -1.1552 -0.4739 -0.9520
   77SOPE   H6S 6851   3.705   4.807   5.453  2.3081 -0.2908 -2.1750
   77SOPE   C27 6852   3.760   5.004   5.475 -0.8312  0.0618  0.2980
   77SOPE   H7R 6853   3.654   5.037   5.481 -0.0873  2.4625  1.6960
   77SOPE   H7S 6854   3.822   5.052   5.555 -0.8508  0.9720 -0.2183
   77SOPE   C28 6855   3.822   5.019   5.335  0.0233 -0.3100  0.6018
   77SOPE   H8R 6856   3.917   4.964   5.320 -1.2222 -2.9179  1.5369
   77SOPE   H8S 6857   3.753   4.969   5.263  2.1066 -1.3269 -0.7793
   77SOPE   C29 6858   3.828   5.171   5.313 -0.0141 -0.6955  0.4762
   77SOPE   H91 6859   3.728   5.218   5.321  0.4466  0.2720  0.7463
   77SOPE  C210 6860   3.938   5.249   5.295  0.7986  1.0126 -0.6344
   77SOPE  H101 6861   3.929   5.356   5.274 -1.1811  1.0220  0.0567
   77SOPE  C211 6862   4.071   5.184   5.293 -0.4840  0.0884  0.1440
   77SOPE  H11R 6863   4.079   5.110   5.375  1.6099  1.8739  1.6531
   77SOPE  H11S 6864   4.142   5.264   5.322 -0.2183  0.2001 -0.7895
   77SOPE  C212 6865   4.129   5.136   5.161 -0.5381  0.0608  0.1539
   77SOPE  H12R 6866   4.057   5.073   5.104 -1.1769  1.5212 -0.7192
   77SOPE  H12S 6867   4.213   5.067   5.187  0.8854  2.0747  1.1546
   77SOPE  C213 6868   4.190   5.249   5.073  0.2056  0.4339 -0.6194
   77SOPE  H13R 6869   4.250   5.201   4.992  0.1809  0.6309 -0.7542
   77SOPE  H13S 6870   4.264   5.302   5.137  1.4655  0.8346 -2.3203
   77SOPE  C214 6871   4.088   5.348   5.014  0.6944 -0.5017  0.2027
   77SOPE  H14R 6872   4.141   5.420   4.949 -0.7477 -0.1567 -0.6317
   77SOPE  H14S 6873   4.037   5.400   5.097 -0.1401 -1.3863  0.2626
   77SOPE  C215 6874   3.973   5.288   4.929  0.1625 -0.3489 -0.6567
   77SOPE  H15R 6875   3.902   5.230   4.991 -0.4304  0.6944 -0.3325
   77SOPE  H15S 6876   4.027   5.214   4.867  0.8573  0.3748 -0.9369
   77SOPE  C216 6877   3.892   5.386   4.847 -0.3428  0.7254  0.8130
   77SOPE  H16R 6878   3.826   5.322   4.785 -1.2062  2.3789 -0.0348
   77SOPE  H16S 6879   3.962   5.439   4.780 -0.0967  0.7958  1.1228
   77SOPE  C217 6880   3.799   5.493   4.917 -0.4573  0.1711  0.5658
   77SOPE  H17R 6881   3.786   5.573   4.840 -2.1283  0.3563  1.0011
   77SOPE  H17S 6882   3.863   5.541   4.994  1.5352 -0.9273 -0.3201
   77SOPE  C218 6883   3.657   5.455   4.965 -0.0838 -0.6041 -0.2340
   77SOPE  H18R 6884   3.664   5.353   5.007  1.6607 -0.5845 -0.4018
   77SOPE  H18S 6885   3.578   5.455   4.887  2.3219 -0.3728 -2.8517
   77SOPE  H18T 6886   3.628   5.527   5.045  1.7343 -1.2525  1.0786
   77SOPE   C33 6887   3.042   4.672   5.855 -0.4045 -0.8984  0.2339
   77SOPE   H3X 6888   3.150   4.696   5.841 -0.5140 -0.3976  0.2318
   77SOPE   H3Y 6889   2.976   4.761   5.855  0.5934 -0.1345 -0.4164
   77SOPE   C34 6890   2.984   4.578   5.750 -0.9013  0.0217  0.0248
   77SOPE   H4X 6891   2.875   4.580   5.771 -0.9140 -0.5192  0.0141
   77SOPE   H4Y 6892   3.017   4.473   5.769  0.0220  0.3087  0.0904
   77SOPE   C35 6893   3.025   4.610   5.602  0.4276  0.2226  0.6528
   77SOPE   H5X 6894   3.133   4.588   5.588  0.5541  1.4510 -0.4901
   77SOPE   H5Y 6895   2.998   4.717   5.594 -0.7140 -0.1701 -3.9018
   77SOPE   C36 6896   2.946   4.529   5.497  0.4334  0.0391 -0.6804
   77SOPE   H6X 6897   2.845   4.571   5.479  0.6221  0.1163 -1.5746
   77SOPE   H6Y 6898   2.941   4.422   5.526  0.1320  0.1841 -0.1769
   77SOPE   C37 6899   3.011   4.520   5.350 -0.5751  0.9153 -0.5176
   77SOPE   H7X 6900   2.963   4.439   5.291 -2.0431  1.2839  0.1230
   77SOPE   H7Y 6901   3.110   4.470   5.363 -2.0300 -2.1406 -0.2293
   77SOPE   C38 6902   3.024   4.647   5.269  0.5144  0.5584  0.1748
   77SOPE   H8X 6903   3.120   4.696   5.296  1.5202 -0.1209 -1.9083
   77SOPE   H8Y 6904   2.946   4.725   5.283  0.8680  1.2165 -1.2284
   77SOPE   C39 6905   3.022   4.618   5.126  0.2659  0.3114 -0.0464
   77SOPE   H9X 6906   2.934   4.552   5.112  0.8754 -1.3555  2.9838
   77SOPE   H9Y 6907   3.113   4.563   5.092 -0.7600 -0.3681 -1.8576
   77SOPE  C310 6908   3.024   4.751   5.036 -0.1939  0.4441 -0.6797
   77SOPE  H10X 6909   3.113   4.807   5.072  0.4449  0.3386 -2.0342
   77SOPE  H10Y 6910   2.934   4.813   5.055 -0.5141 -0.3531  0.5570
   77SOPE  C311 6911   3.040   4.733   4.888 -0.9029  0.4473  0.3102
   77SOPE  H11X 6912   2.959   4.679   4.834  1.0981 -1.3983 -1.0172
   77SOPE  H11Y 6913   3.130   4.673   4.864  1.5790  3.3749  1.6613
   77SOPE  C312 6914   3.041   4.859   4.808 -0.3758  0.1572 -0.3230
   77SOPE  H12X 6915   3.128   4.925   4.828 -1.7172  2.1546 -0.7626
   77SOPE  H12Y 6916   2.950   4.919   4.829  0.2628  1.0086  0.0904
   77SOPE  C313 6917   3.040   4.831   4.660  0.5393  0.0684 -0.4955
   77SOPE  H13X 6918   2.948   4.771   4.640  0.3524  0.0416  0.3895
   77SOPE  H13Y 6919   3.129   4.768   4.639  1.2794  0.2722  1.7657
   77SOPE  C314 6920   3.052   4.956   4.574  0.9257  0.5010 -0.1215
   77SOPE  H14X 6921   3.102   4.928   4.479  1.9449 -1.6971  1.0005
   77SOPE  H14Y 6922   3.119   5.026   4.626 -1.2343  1.8060  1.0592
   77SOPE  C315 6923   2.916   5.012   4.563 -0.3366 -0.7483 -0.1434
   77SOPE  H15X 6924   2.875   5.055   4.657  1.4988 -0.9344  0.7667
   77SOPE  H15Y 6925   2.849   4.932   4.524 -0.8288  0.1082 -1.1195
   77SOPE  C316 6926   2.904   5.123   4.451 -0.3625 -0.2376  0.4083
   77SOPE  H16X 6927   3.006   5.136   4.410 -0.4876  1.4965  0.5836
   77SOPE  H16Y 6928   2.880   5.211   4.513  2.2577  1.1986 -0.4801
   77SOPE  C317 6929   2.793   5.094   4.348  0.3897  0.2347 -0.0756
   77SOPE  H17X 6930   2.695   5.089   4.402  0.0762 -0.2826 -0.6818
   77SOPE  H17Y 6931   2.814   4.993   4.307  0.8156  0.5910 -0.7558
   77SOPE  C318 6932   2.793   5.204   4.246 -0.8966 -0.7543 -0.1840
   77SOPE  H18X 6933   2.893   5.204   4.196  0.6898  2.0529  2.5915
   77SOPE  H18Y 6934   2.786   5.310   4.281  0.5274 -1.0543  1.1128
   77SOPE  H18Z 6935   2.704   5.185   4.182 -2.5850  0.0346  1.8309
   78SOPE     N 6936   2.816   3.779   6.479 -0.2498  0.1507  0.2716
   78SOPE   HN1 6937   2.863   3.699   6.526  0.8084 -1.1297 -2.6896
   78SOPE   HN2 6938   2.906   3.819   6.444 -0.6113 -0.7457 -1.8674
   78SOPE   HN3 6939   2.761   3.833   6.549 -1.2411  1.8855 -1.7319
   78SOPE   C12 6940   2.736   3.728   6.368  0.1285  0.0793  0.2638
   78SOPE  H12A 6941   2.814   3.686   6.301  1.0881 -0.4152  1.6611
   78SOPE  H12B 6942   2.692   3.817   6.319  2.3671  1.8818  1.3594
   78SOPE   C11 6943   2.660   3.604   6.420 -0.3102 -0.6922  0.1057
   78SOPE  H11A 6944   2.740   3.528   6.433  0.1615  0.0986  2.2172
   78SOPE  H11B 6945   2.588   3.573   6.341  1.0552 -4.1211  0.0157
   78SOPE     P 6946   2.482   3.534   6.597  0.2573  0.3674  0.1333
   78SOPE   O13 6947   2.438   3.572   6.734 -0.4693  0.4304  0.3405
   78SOPE   O14 6948   2.520   3.394   6.584 -0.2035 -0.3462 -0.2580
   78SOPE   O12 6949   2.598   3.630   6.543  1.0676 -0.0399  0.0946
   78SOPE   O11 6950   2.350   3.550   6.508 -0.4951 -0.7311  0.6023
   78SOPE    C1 6951   2.315   3.678   6.459 -0.0923  0.5828  0.4785
   78SOPE    HA 6952   2.396   3.718   6.395 -1.5896  2.0333 -0.5736
   78SOPE    HB 6953   2.294   3.750   6.541 -1.2490  2.5066 -1.4439
   78SOPE    C2 6954   2.196   3.681   6.368  0.7859  0.1342 -0.4023
   78SOPE    HS 6955   2.102   3.646   6.416  1.7409 -0.7345  0.8881
   78SOPE   O21 6956   2.232   3.591   6.257  0.1573 -0.0657  0.0205
   78SOPE   C21 6957   2.184   3.464   6.271 -0.1293 -0.5183 -0.2366
   78SOPE   O22 6958   2.130   3.419   6.371  0.5473  0.1059 -0.0696
   78SOPE   C22 6959   2.223   3.367   6.165 -0.6224 -0.7704 -0.8908
   78SOPE   H2R 6960   2.144   3.362   6.088  0.1127 -0.9739 -1.6465
   78SOPE   H2S 6961   2.235   3.270   6.219 -1.9394 -0.6413 -0.3262
   78SOPE    C3 6962   2.177   3.827   6.320 -0.1734 -0.1965  0.3399
   78SOPE    HX 6963   2.273   3.847   6.267 -0.9329  0.5536 -0.8240
   78SOPE    HY 6964   2.169   3.897   6.406 -0.7076  1.1780 -0.7876
   78SOPE   O31 6965   2.067   3.842   6.222 -0.0245 -0.1594 -0.5608
   78SOPE   C31 6966   2.075   3.962   6.167  0.3425 -0.6837 -0.0526
   78SOPE   O32 6967   2.134   4.059   6.208 -0.2454  0.3795  0.4540
   78SOPE   C32 6968   1.994   3.968   6.035  0.3540 -0.2868 -0.2076
   78SOPE   H2X 6969   1.944   4.067   6.033  0.6817 -0.0738  1.2422
   78SOPE   H2Y 6970   1.911   3.893   6.037 -0.4557  0.5903 -0.2801
   78SOPE   C23 6971   2.363   3.385   6.094 -1.3174 -0.2399 -0.4672
   78SOPE   H3R 6972   2.408   3.286   6.073 -0.7017  0.7240 -4.3802
   78SOPE   H3S 6973   2.431   3.444   6.160 -0.5317 -2.7559  1.0887
   78SOPE   C24 6974   2.362   3.468   5.961  0.3348  0.3586  0.7076
   78SOPE   H4R 6975   2.291   3.551   5.981  0.4732  1.1508 -1.7905
   78SOPE   H4S 6976   2.459   3.508   5.925 -0.0748  0.0547 -0.7681
   78SOPE   C25 6977   2.290   3.390   5.854 -0.2085  0.3885  0.0611
   78SOPE   H5R 6978   2.218   3.318   5.900 -2.1431  0.5977 -2.4159
   78SOPE   H5S 6979   2.228   3.449   5.784 -1.0306 -0.1019  0.3631
   78SOPE   C26 6980   2.392   3.297   5.778 -0.0139 -0.0261 -1.4895
   78SOPE   H6R 6981   2.465   3.351   5.715  0.8331  0.6357  0.0183
   78SOPE   H6S 6982   2.447   3.242   5.857 -0.0694  2.0143  0.0748
   78SOPE   C27 6983   2.327   3.192   5.696 -0.2876 -0.2372 -0.6096
   78SOPE   H7R 6984   2.265   3.123   5.757 -0.3166 -0.3005 -0.7104
   78SOPE   H7S 6985   2.248   3.246   5.639 -0.4515  3.0213  2.3550
   78SOPE   C28 6986   2.431   3.111   5.622  0.2921 -0.1173  0.3548
   78SOPE   H8R 6987   2.519   3.170   5.587 -0.0434  0.6841  0.8417
   78SOPE   H8S 6988   2.487   3.051   5.697  2.8134  2.8616  1.0484
   78SOPE   C29 6989   2.355   3.028   5.514 -0.2148  0.1046  0.2648
   78SOPE   H91 6990   2.297   2.947   5.560  0.8431 -0.8838 -0.1106
   78SOPE  C210 6991   2.365   3.040   5.373 -0.0865 -0.6685 -0.8033
   78SOPE  H101 6992   2.281   3.000   5.314 -1.4659  0.8303  0.0542
   78SOPE  C211 6993   2.447   3.154   5.307  0.1591 -0.0826  0.7511
   78SOPE  H11R 6994   2.531   3.199   5.365  0.6045  0.7160 -0.4754
   78SOPE  H11S 6995   2.381   3.238   5.275  2.5748  1.6263 -0.0251
   78SOPE  C212 6996   2.494   3.103   5.167 -0.0493 -0.0186 -0.6137
   78SOPE  H12R 6997   2.405   3.083   5.103 -0.2238 -1.4750  0.0390
   78SOPE  H12S 6998   2.556   3.012   5.181 -1.2078 -0.6136  0.8926
   78SOPE  C213 6999   2.580   3.202   5.083  0.9379 -0.6808  0.3558
   78SOPE  H13R 7000   2.654   3.252   5.148 -0.9179  3.3836 -0.3580
   78SOPE  H13S 7001   2.512   3.286   5.060 -0.9688 -2.5937 -1.3820
   78SOPE  C214 7002   2.643   3.162   4.949  0.6011  0.0164 -0.6245
   78SOPE  H14R 7003   2.737   3.111   4.976  0.6588  1.3828  2.0819
   78SOPE  H14S 7004   2.671   3.260   4.903  0.8462 -0.2263 -0.9956
   78SOPE  C215 7005   2.534   3.077   4.874 -0.5836  0.4749 -0.6010
   78SOPE  H15R 7006   2.490   3.000   4.941 -1.1443  0.1896 -1.2876
   78SOPE  H15S 7007   2.594   3.021   4.799 -0.6193 -1.4606  0.7598
   78SOPE  C216 7008   2.414   3.150   4.811 -0.0040 -0.3454 -0.1721
   78SOPE  H16R 7009   2.455   3.225   4.740  1.5937  1.9757  2.9734
   78SOPE  H16S 7010   2.350   3.208   4.881  0.3378 -0.2214  0.0362
   78SOPE  C217 7011   2.314   3.053   4.743 -0.8129 -0.2911 -0.9056
   78SOPE  H17R 7012   2.271   2.989   4.822 -1.4188  1.3250  0.1345
   78SOPE  H17S 7013   2.381   2.994   4.677  1.3250 -1.3111  1.9440
   78SOPE  C218 7014   2.209   3.120   4.659 -0.4076 -0.6947 -0.3030
   78SOPE  H18R 7015   2.144   3.051   4.600 -0.1998  1.1827 -2.8907
   78SOPE  H18S 7016   2.256   3.184   4.582 -1.1538  1.5017  0.9888
   78SOPE  H18T 7017   2.143   3.177   4.728 -1.0950 -0.4013 -1.1810
   78SOPE   C33 7018   2.082   3.969   5.905  0.1415 -0.0196  0.7714
   78SOPE   H3X 7019   2.176   4.021   5.934  0.0710  0.0302  0.9059
   78SOPE   H3Y 7020   2.028   4.016   5.820  1.7675 -0.5237 -0.6150
   78SOPE   C34 7021   2.115   3.827   5.857  0.1889 -0.0660  0.3286
   78SOPE   H4X 7022   2.026   3.768   5.826 -0.3917  1.0656 -0.2084
   78SOPE   H4Y 7023   2.163   3.770   5.940  2.0188 -0.0917 -0.6994
   78SOPE   C35 7024   2.216   3.826   5.744 -0.0576  0.6266 -0.0529
   78SOPE   H5X 7025   2.255   3.722   5.751 -0.7947  0.3453 -0.0015
   78SOPE   H5Y 7026   2.305   3.888   5.764  0.0019  1.0458 -1.4848
   78SOPE   C36 7027   2.152   3.856   5.613  0.2288  0.0443  0.3708
   78SOPE   H6X 7028   2.102   3.954   5.600 -1.2985 -0.5888  1.2324
   78SOPE   H6Y 7029   2.073   3.778   5.606 -0.3167  0.4701  1.6153
   78SOPE   C37 7030   2.255   3.831   5.498  0.5451  0.0461 -0.1292
   78SOPE   H7X 7031   2.288   3.725   5.491  0.4489 -0.0275  0.4889
   78SOPE   H7Y 7032   2.344   3.893   5.522  1.4629 -1.7044  1.2407
   78SOPE   C38 7033   2.196   3.872   5.355 -0.1828  0.2517 -0.9571
   78SOPE   H8X 7034   2.202   3.982   5.345 -2.4103  0.5630  0.4043
   78SOPE   H8Y 7035   2.094   3.832   5.335 -1.4314  1.0196  3.0316
   78SOPE   C39 7036   2.293   3.827   5.246  0.0040  0.3264 -1.0084
   78SOPE   H9X 7037   2.300   3.717   5.237 -0.5233  0.1337  0.5087
   78SOPE   H9Y 7038   2.398   3.860   5.267 -0.5523  0.7582  1.5258
   78SOPE  C310 7039   2.271   3.898   5.116  0.0588 -0.1913 -0.6279
   78SOPE  H10X 7040   2.255   4.006   5.134 -1.3701 -0.3468 -0.7923
   78SOPE  H10Y 7041   2.171   3.862   5.083 -1.2699 -0.1487  2.8922
   78SOPE  C311 7042   2.368   3.867   5.006 -0.5370  0.0399  0.0351
   78SOPE  H11X 7043   2.375   3.759   4.981  1.0811 -0.0652  0.8475
   78SOPE  H11Y 7044   2.472   3.893   5.032 -0.4831  1.2841 -1.3175
   78SOPE  C312 7045   2.319   3.924   4.873 -0.4782 -0.0839  0.8946
   78SOPE  H12X 7046   2.279   4.027   4.886 -1.0176  0.0221 -1.2793
   78SOPE  H12Y 7047   2.229   3.865   4.843  1.3135 -1.3614 -2.4683
   78SOPE  C313 7048   2.411   3.897   4.748  0.7989 -0.5140 -0.4469
   78SOPE  H13X 7049   2.423   3.789   4.724 -0.8679 -0.4203 -1.8664
   78SOPE  H13Y 7050   2.509   3.946   4.765  0.1525  1.5022 -2.1026
   78SOPE  C314 7051   2.356   3.964   4.618  0.7896 -0.0945 -0.1644
   78SOPE  H14X 7052   2.258   3.916   4.595 -0.0766  0.6674  1.6958
   78SOPE  H14Y 7053   2.416   3.947   4.526  2.2063  2.3052  0.2452
   78SOPE  C315 7054   2.339   4.116   4.643  0.2358  0.0897 -0.4301
   78SOPE  H15X 7055   2.404   4.147   4.727 -0.0785  0.2701 -0.2484
   78SOPE  H15Y 7056   2.231   4.134   4.665  0.5319  0.1275  1.0729
   78SOPE  C316 7057   2.374   4.204   4.522  0.0976  0.0199  0.1953
   78SOPE  H16X 7058   2.306   4.183   4.436 -0.4197  1.7789  0.1376
   78SOPE  H16Y 7059   2.474   4.168   4.490  0.3884  0.7831  0.2170
   78SOPE  C317 7060   2.368   4.358   4.543  1.0514 -0.8163  0.0797
   78SOPE  H17X 7061   2.438   4.399   4.620  0.3102 -0.0515  0.3609
   78SOPE  H17Y 7062   2.265   4.374   4.581  1.2458  1.6871 -0.2310
   78SOPE  C318 7063   2.374   4.435   4.408 -0.0522 -0.1731 -0.3095
   78SOPE  H18X 7064   2.376   4.541   4.442 -1.2674 -0.3381  0.3201
   78SOPE  H18Y 7065   2.284   4.416   4.345 -0.2895 -0.6977  0.1805
   78SOPE  H18Z 7066   2.463   4.398   4.352  2.1775  1.6142  1.8215
   79SOPE     N 7067   4.501   1.643   6.389  0.2930  0.2951  0.1686
   79SOPE   HN1 7068   4.417   1.645   6.451  0.3571 -3.7313  0.5993
   79SOPE   HN2 7069   4.552   1.555   6.406 -1.1725 -0.9107 -1.3005
   79SOPE   HN3 7070   4.568   1.719   6.410  0.6887 -0.4078  1.5428
   79SOPE   C12 7071   4.458   1.645   6.244  0.9371 -0.6796 -0.2165
   79SOPE  H12A 7072   4.414   1.545   6.222 -0.4057 -0.6906  2.2003
   79SOPE  H12B 7073   4.550   1.650   6.183  0.9802 -0.3342 -0.1217
   79SOPE   C11 7074   4.362   1.761   6.214  0.6192 -0.6628 -0.0755
   79SOPE  H11A 7075   4.271   1.751   6.277 -0.5990 -1.0536 -1.8050
   79SOPE  H11B 7076   4.330   1.757   6.107  1.3853 -0.9609 -0.2950
   79SOPE     P 7077   4.377   1.996   6.329 -0.2680  0.2669 -0.0397
   79SOPE   O13 7078   4.430   2.117   6.273  0.7562  0.5258 -0.2174
   79SOPE   O14 7079   4.403   1.964   6.468 -0.6563 -0.1686  0.2566
   79SOPE   O12 7080   4.439   1.877   6.248  0.0539 -0.2643  0.7457
   79SOPE   O11 7081   4.224   1.990   6.308 -0.3573 -0.2522 -0.2643
   79SOPE    C1 7082   4.161   2.025   6.178  0.3388 -0.4737 -0.7038
   79SOPE    HA 7083   4.139   1.936   6.115  0.3445 -0.2916 -0.9661
   79SOPE    HB 7084   4.229   2.092   6.121  2.1917 -1.0840  0.6936
   79SOPE    C2 7085   4.027   2.109   6.196 -0.0305 -0.1113  0.6442
   79SOPE    HS 7086   4.055   2.187   6.269 -0.7428  0.6355  0.1357
   79SOPE   O21 7087   3.929   2.023   6.262 -0.2747 -0.0086  0.3660
   79SOPE   C21 7088   3.821   2.083   6.300 -0.0707 -0.5126 -0.4774
   79SOPE   O22 7089   3.788   2.197   6.278 -0.1485 -0.3132 -0.4829
   79SOPE   C22 7090   3.724   1.965   6.348 -0.5646  0.7609  0.2407
   79SOPE   H2R 7091   3.622   2.008   6.340 -1.0816 -0.2572  1.0948
   79SOPE   H2S 7092   3.753   1.941   6.452 -0.8975 -0.6589  0.0357
   79SOPE    C3 7093   3.974   2.162   6.060  1.0757 -0.2147 -0.4920
   79SOPE    HX 7094   3.877   2.213   6.075  1.0510 -0.4595  0.2339
   79SOPE    HY 7095   3.952   2.076   5.994 -0.9843 -0.0442 -0.0926
   79SOPE   O31 7096   4.072   2.245   5.997  0.5460 -0.3623  0.7837
   79SOPE   C31 7097   4.057   2.376   6.002  0.5929 -0.4316 -0.1041
   79SOPE   O32 7098   3.973   2.441   6.061 -0.2660 -0.5070  0.1201
   79SOPE   C32 7099   4.156   2.438   5.901 -0.7465  0.4743  0.1897
   79SOPE   H2X 7100   4.186   2.360   5.827 -1.2601  2.0258 -1.7411
   79SOPE   H2Y 7101   4.248   2.458   5.959 -0.8564 -2.0487  1.3866
   79SOPE   C23 7102   3.723   1.831   6.264  0.1329  0.3901 -0.1821
   79SOPE   H3R 7103   3.652   1.752   6.296 -0.3135  0.3790 -1.1536
   79SOPE   H3S 7104   3.823   1.784   6.278  0.6222  0.8980 -1.7447
   79SOPE   C24 7105   3.695   1.859   6.116 -0.2912  0.8447 -0.0239
   79SOPE   H4R 7106   3.765   1.925   6.061 -0.8867  1.2451 -0.3159
   79SOPE   H4S 7107   3.702   1.764   6.059 -2.5491  0.6291 -0.0640
   79SOPE   C25 7108   3.549   1.908   6.078 -0.1353 -0.2297 -0.1526
   79SOPE   H5R 7109   3.488   1.819   6.103 -1.9884  1.3368  1.1471
   79SOPE   H5S 7110   3.511   1.985   6.148  0.7123  1.2458 -1.2515
   79SOPE   C26 7111   3.515   1.954   5.941  0.0291 -0.1755  0.9328
   79SOPE   H6R 7112   3.519   1.869   5.869  1.5415  1.2914 -0.8103
   79SOPE   H6S 7113   3.410   1.992   5.941 -0.3274 -1.1294  0.4242
   79SOPE   C27 7114   3.604   2.069   5.886 -0.3212 -0.2033 -0.5397
   79SOPE   H7R 7115   3.534   2.133   5.828 -1.1029  0.4698  1.0772
   79SOPE   H7S 7116   3.656   2.119   5.971  0.3557 -3.1015  0.8570
   79SOPE   C28 7117   3.714   2.032   5.782  0.0048  0.0098  0.5289
   79SOPE   H8R 7118   3.782   1.954   5.823 -0.2065  0.2510  1.3443
   79SOPE   H8S 7119   3.655   1.984   5.701 -1.2995  1.1516  0.7745
   79SOPE   C29 7120   3.791   2.158   5.747  0.0431  0.4943 -0.1733
   79SOPE   H91 7121   3.797   2.237   5.824  0.3210  0.7030 -0.4071
   79SOPE  C210 7122   3.851   2.188   5.639 -0.9588  0.8016  0.2043
   79SOPE  H101 7123   3.901   2.285   5.624 -0.0300  0.5159  1.2863
   79SOPE  C211 7124   3.863   2.103   5.515 -0.3002 -0.4257 -0.1854
   79SOPE  H11R 7125   3.798   2.015   5.535  1.0155 -1.2844  0.4724
   79SOPE  H11S 7126   3.968   2.066   5.508  0.0830  0.6694 -0.3004
   79SOPE  C212 7127   3.838   2.178   5.379  0.2538  0.7597  0.2087
   79SOPE  H12R 7128   3.917   2.255   5.380 -0.1604  1.1979 -0.2700
   79SOPE  H12S 7129   3.737   2.223   5.364 -0.9905 -1.1498  2.1910
   79SOPE  C213 7130   3.862   2.081   5.266 -0.4509 -0.4092  0.3989
   79SOPE  H13R 7131   3.782   2.004   5.278 -0.2806 -0.3618  2.0079
   79SOPE  H13S 7132   3.958   2.028   5.283  0.0657  0.6052  0.7162
   79SOPE  C214 7133   3.854   2.136   5.122 -0.4694  0.4581 -0.6369
   79SOPE  H14R 7134   3.918   2.225   5.105  0.3164  0.2181  0.8486
   79SOPE  H14S 7135   3.749   2.161   5.096 -1.2070 -1.2887  0.4641
   79SOPE  C215 7136   3.898   2.021   5.027  0.2366 -0.4060  0.1502
   79SOPE  H15R 7137   3.871   2.055   4.925  0.3299 -2.2326 -0.5215
   79SOPE  H15S 7138   3.845   1.927   5.054 -0.2837 -0.3268 -0.5765
   79SOPE  C216 7139   4.054   2.001   5.016  0.7626  0.7884 -0.1123
   79SOPE  H16R 7140   4.086   1.943   5.105  0.9968 -0.9152 -1.2644
   79SOPE  H16S 7141   4.107   2.099   5.010  0.2089  1.2438  1.8266
   79SOPE  C217 7142   4.094   1.908   4.899 -0.3510 -0.0921 -1.0423
   79SOPE  H17R 7143   4.027   1.819   4.900  0.5371 -0.8139  1.4489
   79SOPE  H17S 7144   4.197   1.873   4.920 -1.1370 -1.0413  1.6552
   79SOPE  C218 7145   4.095   1.983   4.764 -0.1640 -0.0947 -0.0830
   79SOPE  H18R 7146   4.123   1.921   4.677 -1.0902  2.7549 -2.5617
   79SOPE  H18S 7147   4.168   2.067   4.768 -0.1998 -0.1082  1.4378
   79SOPE  H18T 7148   3.994   2.023   4.739 -0.0718  0.1451 -0.0786
   79SOPE   C33 7149   4.109   2.569   5.833 -0.0631 -0.5248  0.4079
   79SOPE   H3X 7150   4.104   2.652   5.906 -1.9277 -0.4799  0.2834
   79SOPE   H3Y 7151   4.002   2.548   5.811 -0.2478  0.4636  0.3435
   79SOPE   C34 7152   4.203   2.602   5.714 -0.2253 -0.2108 -0.2077
   79SOPE   H4X 7153   4.209   2.511   5.652  2.6554  0.2947 -0.7863
   79SOPE   H4Y 7154   4.307   2.610   5.751 -0.9085 -0.7510  1.9951
   79SOPE   C35 7155   4.158   2.720   5.632  0.3222 -0.2953  0.4744
   79SOPE   H5X 7156   4.179   2.807   5.698  1.2387 -1.5382  1.8682
   79SOPE   H5Y 7157   4.050   2.716   5.607  0.2962  0.9820  0.3254
   79SOPE   C36 7158   4.257   2.736   5.525  0.1610  0.1543  0.5360
   79SOPE   H6X 7159   4.364   2.722   5.552  0.4918 -1.3248 -1.3263
   79SOPE   H6Y 7160   4.243   2.843   5.498 -2.8709 -0.9773 -3.2762
   79SOPE   C37 7161   4.240   2.649   5.399 -0.6538 -0.4369  0.0296
   79SOPE   H7X 7162   4.135   2.625   5.370 -0.7111  1.7040 -1.7532
   79SOPE   H7Y 7163   4.277   2.544   5.409 -0.7931 -0.7519 -2.2416
   79SOPE   C38 7164   4.312   2.702   5.270  0.5021  0.2577  0.0637
   79SOPE   H8X 7165   4.338   2.612   5.211  2.9025  1.6565 -1.1540
   79SOPE   H8Y 7166   4.412   2.748   5.288  1.3041 -1.6660  0.9020
   79SOPE   C39 7167   4.226   2.789   5.184  0.3967 -0.3209  0.8153
   79SOPE   H9X 7168   4.177   2.877   5.232  2.3262  2.4948 -1.8955
   79SOPE   H9Y 7169   4.152   2.725   5.131  0.1531  1.0576 -0.6144
   79SOPE  C310 7170   4.312   2.862   5.072 -0.4959  0.2697 -0.2384
   79SOPE  H10X 7171   4.398   2.910   5.123 -0.7758 -2.8306  3.5731
   79SOPE  H10Y 7172   4.245   2.939   5.026 -0.3488 -0.2826 -1.4160
   79SOPE  C311 7173   4.366   2.773   4.960  0.1946  0.2692  0.8327
   79SOPE  H11X 7174   4.292   2.699   4.923  0.3522 -0.4812  1.9430
   79SOPE  H11Y 7175   4.439   2.717   5.023  0.9559  1.0548  0.6633
   79SOPE  C312 7176   4.438   2.849   4.849 -0.2796  0.1112  0.3453
   79SOPE  H12X 7177   4.529   2.893   4.895  0.5889  0.7296 -1.8329
   79SOPE  H12Y 7178   4.377   2.937   4.820  0.7046  0.8038  0.3331
   79SOPE  C313 7179   4.487   2.760   4.735 -0.2455 -0.1695 -0.5130
   79SOPE  H13X 7180   4.401   2.714   4.682 -3.0246  4.3321 -0.4595
   79SOPE  H13Y 7181   4.544   2.680   4.785  4.7165  3.0899 -0.2564
   79SOPE  C314 7182   4.573   2.827   4.628 -0.0680  0.1059  0.0390
   79SOPE  H14X 7183   4.635   2.755   4.571  0.6738  0.4071  0.4519
   79SOPE  H14Y 7184   4.647   2.897   4.672  1.3276 -1.3387  0.1254
   79SOPE  C315 7185   4.491   2.879   4.514  0.0872  0.3328 -0.1200
   79SOPE  H15X 7186   4.427   2.959   4.558 -0.7526 -1.1225  1.4284
   79SOPE  H15Y 7187   4.429   2.795   4.476 -0.0642  0.0505  0.7249
   79SOPE  C316 7188   4.558   2.949   4.392  0.3731  0.2801  0.5020
   79SOPE  H16X 7189   4.634   3.011   4.444  1.0671  0.6448 -0.9073
   79SOPE  H16Y 7190   4.493   3.020   4.336 -0.7852  0.1053  1.5675
   79SOPE  C317 7191   4.641   2.860   4.300  0.2886 -0.0301  0.2833
   79SOPE  H17X 7192   4.701   2.788   4.360 -0.0018 -0.6328 -0.1416
   79SOPE  H17Y 7193   4.722   2.919   4.251  0.4330 -0.8217 -0.4533
   79SOPE  C318 7194   4.556   2.790   4.194  0.0809 -0.1845  0.0729
   79SOPE  H18X 7195   4.478   2.726   4.240  1.6776 -1.8733  0.5332
   79SOPE  H18Y 7196   4.618   2.727   4.126 -0.4682 -0.5973 -0.0585
   79SOPE  H18Z 7197   4.502   2.866   4.133  1.7770  1.3433  0.3986
   80SOPE     N 7198   1.159   3.560   6.630  0.2650  0.0926 -0.3445
   80SOPE   HN1 7199   1.142   3.654   6.672  1.5701  1.4327 -2.6664
   80SOPE   HN2 7200   1.122   3.550   6.534  1.8854  1.2334 -1.1430
   80SOPE   HN3 7201   1.119   3.486   6.692 -0.2627 -2.9596 -4.0010
   80SOPE   C12 7202   1.312   3.547   6.627 -0.5462  0.0745  0.2714
   80SOPE  H12A 7203   1.332   3.452   6.573 -2.2993 -0.2334  0.0783
   80SOPE  H12B 7204   1.334   3.533   6.735 -0.9600  2.4418  0.7075
   80SOPE   C11 7205   1.402   3.660   6.566  0.8620  0.6941 -0.4142
   80SOPE  H11A 7206   1.404   3.644   6.456  0.0119  2.0607 -0.6460
   80SOPE  H11B 7207   1.508   3.646   6.599  1.2921  1.0763 -1.6010
   80SOPE     P 7208   1.452   3.899   6.655  0.2475  0.1055  0.3017
   80SOPE   O13 7209   1.501   3.829   6.778 -0.2356 -0.2583  0.1258
   80SOPE   O14 7210   1.392   4.032   6.677 -0.0793 -0.0999 -0.4546
   80SOPE   O12 7211   1.351   3.796   6.588  0.4350  0.2643 -0.2754
   80SOPE   O11 7212   1.555   3.923   6.538  0.4684  0.7604  0.3382
   80SOPE    C1 7213   1.517   3.958   6.405  0.5110 -0.4047 -0.2752
   80SOPE    HA 7214   1.455   4.050   6.406 -3.3297 -2.7226 -0.8599
   80SOPE    HB 7215   1.442   3.884   6.369 -0.3243 -0.3541  1.2284
   80SOPE    C2 7216   1.634   3.964   6.309 -0.5832 -0.4994  0.1131
   80SOPE    HS 7217   1.592   3.966   6.206  2.2342  1.2592 -1.1379
   80SOPE   O21 7218   1.731   3.858   6.326  0.2787  0.4142 -0.3531
   80SOPE   C21 7219   1.672   3.733   6.312  0.3856 -0.2150 -0.1139
   80SOPE   O22 7220   1.559   3.710   6.270 -0.3851 -0.7908 -0.4971
   80SOPE   C22 7221   1.779   3.623   6.342 -0.7366 -0.2764 -0.1430
   80SOPE   H2R 7222   1.767   3.593   6.448 -2.8319 -0.0078 -0.2546
   80SOPE   H2S 7223   1.884   3.657   6.327 -0.2296 -1.7302 -0.0289
   80SOPE    C3 7224   1.719   4.096   6.328  0.3596  0.5782 -0.7282
   80SOPE    HX 7225   1.813   4.087   6.269  0.9199  1.3808  0.0220
   80SOPE    HY 7226   1.751   4.114   6.433  2.1588 -0.4235 -1.0628
   80SOPE   O31 7227   1.637   4.207   6.294 -0.2697  0.5568 -0.4436
   80SOPE   C31 7228   1.685   4.279   6.197 -0.2581 -0.2734  0.1676
   80SOPE   O32 7229   1.790   4.270   6.136 -0.2146 -0.5579  0.2534
   80SOPE   C32 7230   1.584   4.386   6.169  0.2987  0.2627  0.2459
   80SOPE   H2X 7231   1.596   4.472   6.100  0.4751  0.2855  0.3055
   80SOPE   H2Y 7232   1.560   4.436   6.266 -0.8666 -0.3303  0.2827
   80SOPE   C23 7233   1.753   3.503   6.247 -0.1574 -0.6260  0.0129
   80SOPE   H3R 7234   1.648   3.472   6.232 -0.4577  0.0591  0.6322
   80SOPE   H3S 7235   1.816   3.416   6.278  0.0494 -0.8765 -1.0658
   80SOPE   C24 7236   1.804   3.559   6.107  0.1109  0.2768  0.0946
   80SOPE   H4R 7237   1.730   3.632   6.070  1.3044  0.3264 -2.4402
   80SOPE   H4S 7238   1.902   3.608   6.127 -0.7900  2.3019 -0.2125
   80SOPE   C25 7239   1.806   3.456   5.989 -0.2539 -0.1053  0.3021
   80SOPE   H5R 7240   1.887   3.381   6.004 -0.5615 -0.5155 -0.0481
   80SOPE   H5S 7241   1.712   3.397   5.990 -3.1254  4.0943  0.2323
   80SOPE   C26 7242   1.834   3.528   5.855  0.2777  0.5572 -0.8651
   80SOPE   H6R 7243   1.740   3.579   5.825 -0.1429 -0.3696 -1.1680
   80SOPE   H6S 7244   1.912   3.604   5.878 -1.5400  2.4469 -0.6722
   80SOPE   C27 7245   1.870   3.428   5.738  0.6312  0.7203 -0.2548
   80SOPE   H7R 7246   1.962   3.379   5.775  0.8119  0.4479 -1.0592
   80SOPE   H7S 7247   1.783   3.359   5.738  0.4235  0.9688  0.5462
   80SOPE   C28 7248   1.878   3.493   5.600 -0.3204  0.7452 -0.4202
   80SOPE   H8R 7249   1.797   3.569   5.602 -1.6756 -0.6949  1.3460
   80SOPE   H8S 7250   1.960   3.567   5.584  0.1143  0.7670  1.5871
   80SOPE   C29 7251   1.872   3.386   5.491 -0.4639  0.1490  0.5123
   80SOPE   H91 7252   1.814   3.297   5.520 -1.0304 -0.2052 -1.5671
   80SOPE  C210 7253   1.930   3.389   5.370  0.2558 -0.3500  0.6824
   80SOPE  H101 7254   1.917   3.306   5.298 -1.2911 -0.0405  0.5642
   80SOPE  C211 7255   2.023   3.494   5.320 -0.4317 -0.2723  0.5828
   80SOPE  H11R 7256   2.053   3.563   5.401 -0.4639 -0.2756  0.5978
   80SOPE  H11S 7257   1.982   3.561   5.240  0.3462  1.5934  1.6908
   80SOPE  C212 7258   2.143   3.409   5.259  0.0005 -0.8241 -0.0090
   80SOPE  H12R 7259   2.158   3.313   5.312  0.4383 -1.1954 -0.7941
   80SOPE  H12S 7260   2.232   3.474   5.248 -0.7485  0.4830  1.2204
   80SOPE  C213 7261   2.118   3.368   5.112  0.2894 -0.0681 -0.2016
   80SOPE  H13R 7262   2.022   3.312   5.110  1.1220 -1.5213 -0.5953
   80SOPE  H13S 7263   2.201   3.300   5.084  0.2347 -0.1846 -0.0832
   80SOPE  C214 7264   2.117   3.492   5.018 -0.0707  0.4410  0.0344
   80SOPE  H14R 7265   2.202   3.558   5.045  0.4807 -0.1712 -0.1784
   80SOPE  H14S 7266   2.025   3.551   5.033 -0.4372 -0.3805  1.1391
   80SOPE  C215 7267   2.139   3.441   4.876  0.4636  0.3532  0.8739
   80SOPE  H15R 7268   2.058   3.369   4.854 -1.2118  2.2308  0.6165
   80SOPE  H15S 7269   2.242   3.400   4.865  0.5204  0.5960  0.4566
   80SOPE  C216 7270   2.136   3.560   4.769  0.2005  0.7299  0.1839
   80SOPE  H16R 7271   2.154   3.496   4.680  1.0622  0.6480  0.4047
   80SOPE  H16S 7272   2.219   3.633   4.781  0.1424  1.3548 -2.5627
   80SOPE  C217 7273   2.006   3.637   4.756 -0.3570 -0.1573 -0.2521
   80SOPE  H17R 7274   1.993   3.711   4.838  0.0495 -0.2097 -0.1386
   80SOPE  H17S 7275   1.923   3.564   4.772  0.0053 -0.6273 -0.4955
   80SOPE  C218 7276   1.982   3.704   4.617  0.9012 -0.4272  0.0925
   80SOPE  H18R 7277   1.972   3.631   4.535 -2.3696  0.3992 -0.3767
   80SOPE  H18S 7278   2.051   3.789   4.599 -0.1631  0.1808 -1.2512
   80SOPE  H18T 7279   1.881   3.749   4.625  0.7661 -0.0917 -2.7074
   80SOPE   C33 7280   1.451   4.320   6.115 -0.2641  0.3879  0.3105
   80SOPE   H3X 7281   1.375   4.401   6.108 -2.2517 -1.1959  2.0453
   80SOPE   H3Y 7282   1.421   4.251   6.197  0.3341 -2.2115 -1.5412
   80SOPE   C34 7283   1.462   4.252   5.971 -0.3857  0.2568 -0.2742
   80SOPE   H4X 7284   1.369   4.190   5.970  1.5733 -2.9209  0.1791
   80SOPE   H4Y 7285   1.540   4.175   5.952 -0.2429  0.5438 -0.8791
   80SOPE   C35 7286   1.454   4.352   5.856 -0.5981  0.4298 -0.0297
   80SOPE   H5X 7287   1.533   4.428   5.873  0.7874 -0.8031 -0.7171
   80SOPE   H5Y 7288   1.353   4.397   5.869  0.1461  2.1353  0.0079
   80SOPE   C36 7289   1.470   4.276   5.722  0.0496 -0.4510  0.1059
   80SOPE   H6X 7290   1.374   4.227   5.694 -0.7698  0.8398  0.5687
   80SOPE   H6Y 7291   1.561   4.214   5.721  0.7835  0.5826  0.6695
   80SOPE   C37 7292   1.485   4.382   5.617 -0.0833 -0.0594 -0.4727
   80SOPE   H7X 7293   1.551   4.465   5.651 -2.7255  1.8977  0.2468
   80SOPE   H7Y 7294   1.383   4.427   5.608  0.0553  1.1120  2.5269
   80SOPE   C38 7295   1.527   4.326   5.479 -0.0947 -0.2400  0.1806
   80SOPE   H8X 7296   1.466   4.236   5.460  0.6475 -0.3506 -1.9822
   80SOPE   H8Y 7297   1.634   4.300   5.492 -0.1871 -0.2464  0.9446
   80SOPE   C39 7298   1.516   4.430   5.367 -0.1166  0.3308  0.1317
   80SOPE   H9X 7299   1.591   4.511   5.382  1.8419 -1.2792 -0.3596
   80SOPE   H9Y 7300   1.411   4.464   5.380 -0.1827  0.4681 -0.6976
   80SOPE  C310 7301   1.526   4.358   5.232 -0.3845  0.5215 -0.3355
   80SOPE  H10X 7302   1.446   4.281   5.236  0.7772 -0.7000  0.2653
   80SOPE  H10Y 7303   1.620   4.307   5.202  0.0503  0.3936  1.1525
   80SOPE  C311 7304   1.503   4.446   5.112 -0.3188  0.5611 -0.7982
   80SOPE  H11X 7305   1.572   4.531   5.096 -0.7159  1.3981  1.5230
   80SOPE  H11Y 7306   1.403   4.490   5.133 -0.2227 -0.3147  1.8945
   80SOPE  C312 7307   1.486   4.361   4.982 -0.9320  0.0237  0.1251
   80SOPE  H12X 7308   1.416   4.280   5.010  0.2586 -1.5072 -1.1265
   80SOPE  H12Y 7309   1.588   4.318   4.968 -1.4885 -1.2841  0.0298
   80SOPE  C313 7310   1.446   4.439   4.858  0.0004  0.3357 -0.5808
   80SOPE  H13X 7311   1.534   4.501   4.828 -1.2282  1.8054 -1.2656
   80SOPE  H13Y 7312   1.364   4.510   4.879  0.2547  0.3818  0.2928
   80SOPE  C314 7313   1.404   4.348   4.738  0.1391  0.4042  0.7133
   80SOPE  H14X 7314   1.487   4.277   4.716  0.7344  0.9060  1.2895
   80SOPE  H14Y 7315   1.399   4.419   4.652 -1.6088 -0.1065  0.3502
   80SOPE  C315 7316   1.269   4.275   4.758 -0.2353  0.3067 -0.4630
   80SOPE  H15X 7317   1.191   4.342   4.800  0.8840  1.2464  0.1800
   80SOPE  H15Y 7318   1.290   4.198   4.835 -1.4652 -0.7076 -1.1111
   80SOPE  C316 7319   1.205   4.195   4.639 -0.6305 -0.6028  0.5232
   80SOPE  H16X 7320   1.292   4.138   4.600  0.6646  0.6163  1.5180
   80SOPE  H16Y 7321   1.192   4.277   4.564  0.3583 -0.6633  0.2652
   80SOPE  C317 7322   1.076   4.120   4.682 -0.6529 -0.3498 -0.2936
   80SOPE  H17X 7323   1.009   4.198   4.726 -1.2435 -1.2592  0.4771
   80SOPE  H17Y 7324   1.102   4.042   4.757 -0.1348 -0.2131 -0.3315
   80SOPE  C318 7325   1.004   4.053   4.568  0.3654 -0.0335 -0.0832
   80SOPE  H18X 7326   0.916   4.000   4.609 -0.5950  0.5988 -1.2979
   80SOPE  H18Y 7327   1.074   3.979   4.525  1.6518  1.1229 -0.0807
   80SOPE  H18Z 7328   0.965   4.122   4.490  2.5525  1.0605 -0.3184
   81SOPE     N 7329   4.554   0.604   6.669 -0.3469  0.5726 -0.1127
   81SOPE   HN1 7330   4.632   0.666   6.698  0.3024 -0.3412  0.1565
   81SOPE   HN2 7331   4.531   0.630   6.571  2.1268  1.5083 -0.5302
   81SOPE   HN3 7332   4.467   0.612   6.724 -0.7805 -0.5975 -0.5856
   81SOPE   C12 7333   4.594   0.464   6.643  0.3696  0.1363  0.4641
   81SOPE  H12A 7334   4.507   0.408   6.602  0.4429  1.7416 -2.1026
   81SOPE  H12B 7335   4.631   0.427   6.741 -1.4484  1.1924  1.6156
   81SOPE   C11 7336   4.699   0.458   6.528 -0.1520 -0.5992 -0.3935
   81SOPE  H11A 7337   4.657   0.502   6.435  1.7596  0.3788 -0.8527
   81SOPE  H11B 7338   4.737   0.355   6.514 -0.4211 -0.3835 -3.2356
   81SOPE     P 7339   4.955   0.525   6.531 -0.2511  0.3113 -0.4801
   81SOPE   O13 7340   4.986   0.385   6.559  0.1183  0.4123 -0.0327
   81SOPE   O14 7341   5.033   0.627   6.595 -0.5777 -0.0519 -0.1717
   81SOPE   O12 7342   4.799   0.552   6.569  0.2651 -0.5129 -0.1703
   81SOPE   O11 7343   4.966   0.544   6.374  0.3446  0.3671  0.4716
   81SOPE    C1 7344   4.887   0.464   6.282 -0.4472 -0.2864 -0.7388
   81SOPE    HA 7345   4.783   0.502   6.276 -0.5142 -0.5945 -1.5321
   81SOPE    HB 7346   4.872   0.360   6.319 -2.4617 -0.1504 -1.0541
   81SOPE    C2 7347   4.957   0.461   6.142 -0.3465  0.7271 -0.3838
   81SOPE    HS 7348   5.053   0.412   6.168 -1.1526 -0.4953  0.3872
   81SOPE   O21 7349   4.968   0.591   6.090 -0.7759  0.1621 -0.0591
   81SOPE   C21 7350   5.077   0.617   6.017  0.2705 -0.1651  0.7424
   81SOPE   O22 7351   5.146   0.527   5.975 -0.7778 -0.2754  0.5303
   81SOPE   C22 7352   5.098   0.769   5.988  0.5246 -0.2102 -0.2522
   81SOPE   H2R 7353   5.107   0.810   6.091 -0.7510 -1.5322  0.4239
   81SOPE   H2S 7354   5.001   0.804   5.947  0.6533 -0.6505 -0.9541
   81SOPE    C3 7355   4.872   0.367   6.050  0.2717  0.3232 -0.2990
   81SOPE    HX 7356   4.864   0.261   6.081  1.5862 -0.8517 -3.5630
   81SOPE    HY 7357   4.908   0.351   5.946 -1.8077  1.5133 -1.2566
   81SOPE   O31 7358   4.735   0.407   6.041 -0.3037 -0.5525 -0.0527
   81SOPE   C31 7359   4.702   0.492   5.938  0.5719  0.3106 -0.1524
   81SOPE   O32 7360   4.775   0.541   5.857  0.0380  0.2504 -0.4545
   81SOPE   C32 7361   4.548   0.495   5.930 -0.5082 -0.4774 -0.2465
   81SOPE   H2X 7362   4.513   0.433   6.015  0.6160 -0.7234  0.0635
   81SOPE   H2Y 7363   4.517   0.450   5.833  0.1947  1.1636 -1.2830
   81SOPE   C23 7364   5.215   0.797   5.895  0.0773  0.3980  0.2566
   81SOPE   H3R 7365   5.211   0.908   5.887 -2.7373  0.3323 -0.3030
   81SOPE   H3S 7366   5.197   0.761   5.791  0.8015 -2.2453  0.9716
   81SOPE   C24 7367   5.352   0.760   5.954  0.1782  0.4252 -0.3044
   81SOPE   H4R 7368   5.350   0.794   6.059 -1.1181 -0.8872  0.1322
   81SOPE   H4S 7369   5.359   0.649   5.960  1.8468  0.5794  1.2549
   81SOPE   C25 7370   5.471   0.810   5.880 -0.0167  0.2430  0.3855
   81SOPE   H5R 7371   5.468   0.921   5.873  1.0174  0.3158  0.9582
   81SOPE   H5S 7372   5.558   0.790   5.945  0.6957  1.7014 -0.0959
   81SOPE   C26 7373   5.479   0.759   5.734  0.1757 -0.1543  0.4104
   81SOPE   H6R 7374   5.491   0.649   5.741  1.4430 -0.0867 -0.3919
   81SOPE   H6S 7375   5.385   0.783   5.681  0.7666  0.3891 -0.4311
   81SOPE   C27 7376   5.591   0.810   5.639  0.1164  0.1452 -0.4814
   81SOPE   H7R 7377   5.593   0.921   5.632  1.5527  0.4647  2.9258
   81SOPE   H7S 7378   5.682   0.777   5.693 -1.1019 -0.0264  1.5721
   81SOPE   C28 7379   5.577   0.747   5.501  0.6301  0.0553  0.4240
   81SOPE   H8R 7380   5.663   0.783   5.440  0.0561 -1.7887 -1.5922
   81SOPE   H8S 7381   5.593   0.638   5.510 -0.0267 -0.0417  0.5036
   81SOPE   C29 7382   5.454   0.774   5.419  0.4731 -0.6457 -0.6766
   81SOPE   H91 7383   5.365   0.720   5.454  0.3327  0.3818  0.6217
   81SOPE  C210 7384   5.437   0.852   5.311  0.1025  1.1308  0.6904
   81SOPE  H101 7385   5.350   0.846   5.245  0.6509  0.2070  0.0319
   81SOPE  C211 7386   5.546   0.935   5.247  0.0948  0.0280 -0.9038
   81SOPE  H11R 7387   5.631   0.965   5.312  0.0072 -1.4565 -0.0730
   81SOPE  H11S 7388   5.500   1.032   5.218  0.1332  0.1809 -0.4657
   81SOPE  C212 7389   5.612   0.877   5.124 -0.5747  0.2748  0.3256
   81SOPE  H12R 7390   5.669   0.790   5.162  2.3399  1.1136 -1.7942
   81SOPE  H12S 7391   5.677   0.953   5.078 -1.9340  0.0404 -2.1363
   81SOPE  C213 7392   5.509   0.824   5.017  0.2108  0.1769 -0.8559
   81SOPE  H13R 7393   5.424   0.895   5.010 -1.3483 -1.5953 -0.7430
   81SOPE  H13S 7394   5.475   0.729   5.064 -2.1502  0.7188 -1.3690
   81SOPE  C214 7395   5.573   0.784   4.881  0.2918  0.5085  0.3623
   81SOPE  H14R 7396   5.663   0.729   4.917  0.8897  1.6795  0.7106
   81SOPE  H14S 7397   5.615   0.873   4.830  1.9207  0.8180  2.1250
   81SOPE  C215 7398   5.472   0.718   4.789  0.4756 -0.1809 -0.4539
   81SOPE  H15R 7399   5.379   0.778   4.784  0.7503  0.2458 -0.4309
   81SOPE  H15S 7400   5.455   0.615   4.829 -0.2699 -0.1022 -0.5441
   81SOPE  C216 7401   5.523   0.716   4.643  0.5877 -0.3253 -0.1233
   81SOPE  H16R 7402   5.612   0.650   4.632 -0.0633 -1.1639 -0.4463
   81SOPE  H16S 7403   5.556   0.819   4.615  0.0227 -0.1114 -0.0208
   81SOPE  C217 7404   5.405   0.672   4.556 -0.2381  0.5432  0.2803
   81SOPE  H17R 7405   5.308   0.700   4.601 -0.0565 -0.4703  1.3257
   81SOPE  H17S 7406   5.412   0.562   4.565 -0.8741  0.3750 -1.0038
   81SOPE  C218 7407   5.423   0.716   4.413 -0.6434  0.5670  0.6731
   81SOPE  H18R 7408   5.340   0.680   4.348 -0.3043  1.8236 -0.5096
   81SOPE  H18S 7409   5.517   0.671   4.374  0.4951  2.3074  1.2580
   81SOPE  H18T 7410   5.434   0.826   4.412  1.8882  0.3719 -0.1569
   81SOPE   C33 7411   4.488   0.639   5.945  0.0812  0.0882  0.3892
   81SOPE   H3X 7412   4.512   0.686   6.043 -2.5699 -0.9784  1.6727
   81SOPE   H3Y 7413   4.378   0.623   5.948  0.4620 -3.3728 -0.0413
   81SOPE   C34 7414   4.500   0.733   5.824  0.6045  0.3919 -0.3267
   81SOPE   H4X 7415   4.611   0.745   5.820  0.9076 -0.9843  1.9581
   81SOPE   H4Y 7416   4.449   0.830   5.839 -2.4778 -1.0479 -0.6641
   81SOPE   C35 7417   4.440   0.679   5.691  0.3356  0.1253 -0.5515
   81SOPE   H5X 7418   4.331   0.673   5.711  0.4491  1.8608  0.8245
   81SOPE   H5Y 7419   4.494   0.584   5.669  0.4691 -0.3799  1.6529
   81SOPE   C36 7420   4.459   0.784   5.580  0.2295  0.2102  0.6052
   81SOPE   H6X 7421   4.445   0.886   5.621 -1.2934  0.1643  0.2741
   81SOPE   H6Y 7422   4.373   0.771   5.512  0.2483  0.5409  0.5168
   81SOPE   C37 7423   4.591   0.779   5.495 -0.3463 -0.2493  0.2168
   81SOPE   H7X 7424   4.610   0.672   5.472  1.1968 -0.6459  2.8652
   81SOPE   H7Y 7425   4.673   0.798   5.568  0.9542 -2.6843 -0.5073
   81SOPE   C38 7426   4.599   0.878   5.378  0.1880 -0.8896 -0.1019
   81SOPE   H8X 7427   4.706   0.905   5.359  0.0028  2.0716  2.2866
   81SOPE   H8Y 7428   4.537   0.968   5.396  0.5743 -0.2514 -1.7507
   81SOPE   C39 7429   4.561   0.813   5.242  0.3185 -0.7729 -0.7027
   81SOPE   H9X 7430   4.451   0.797   5.247  0.4496 -1.3017  2.1820
   81SOPE   H9Y 7431   4.612   0.717   5.218  0.5157 -0.4904 -1.4583
   81SOPE  C310 7432   4.568   0.912   5.122 -0.1550 -0.3458  0.8020
   81SOPE  H10X 7433   4.661   0.972   5.130 -0.2350  0.1995 -1.4754
   81SOPE  H10Y 7434   4.483   0.982   5.136  0.3544  0.6884 -0.9151
   81SOPE  C311 7435   4.558   0.833   4.989  0.2985  0.3109 -0.6141
   81SOPE  H11X 7436   4.458   0.783   4.987 -0.1138  1.1429 -2.6966
   81SOPE  H11Y 7437   4.629   0.749   4.982  0.8740  0.5689  1.3230
   81SOPE  C312 7438   4.582   0.924   4.859 -0.5073  0.3750 -0.7753
   81SOPE  H12X 7439   4.667   0.992   4.881  0.0080 -0.0799 -1.3413
   81SOPE  H12Y 7440   4.495   0.994   4.857 -0.2983  0.7236  0.9334
   81SOPE  C313 7441   4.615   0.862   4.734 -0.6904  0.0080  0.9636
   81SOPE  H13X 7442   4.544   0.781   4.709 -1.4042  0.2061  2.2808
   81SOPE  H13Y 7443   4.720   0.826   4.733 -0.7341 -0.1349  0.1771
   81SOPE  C314 7444   4.608   0.953   4.616 -0.2519  0.7731 -0.3842
   81SOPE  H14X 7445   4.684   1.031   4.633  0.9366 -0.7283  1.6698
   81SOPE  H14Y 7446   4.509   1.003   4.611 -0.1319  0.9041 -1.8923
   81SOPE  C315 7447   4.629   0.875   4.489  0.2020  0.5661  0.2242
   81SOPE  H15X 7448   4.570   0.781   4.490  1.2033 -0.0833  1.0053
   81SOPE  H15Y 7449   4.730   0.827   4.495 -0.7042 -1.8167 -1.8406
   81SOPE  C316 7450   4.606   0.954   4.357 -0.2325  0.0144  0.4142
   81SOPE  H16X 7451   4.688   1.029   4.357  1.4376 -1.7110 -0.2318
   81SOPE  H16Y 7452   4.503   0.992   4.372  0.8744  2.8931  1.3062
   81SOPE  C317 7453   4.597   0.885   4.223  0.0462 -0.0166 -0.0537
   81SOPE  H17X 7454   4.697   0.847   4.194  0.2324  0.6116 -0.2363
   81SOPE  H17Y 7455   4.549   0.936   4.137  2.6008  0.9821 -0.9598
   81SOPE  C318 7456   4.510   0.757   4.234  0.7938  0.0315  0.3426
   81SOPE  H18X 7457   4.555   0.677   4.296  1.0390  1.1943  1.7306
   81SOPE  H18Y 7458   4.488   0.719   4.132 -1.4600  1.8266  0.0690
   81SOPE  H18Z 7459   4.414   0.783   4.283  0.6746  0.4905 -0.1292
   82SOPE     N 7460   1.729   6.677   6.396 -0.1245 -0.1676 -0.0815
   82SOPE   HN1 7461   1.745   6.777   6.419  0.3864 -0.2079 -0.2383
   82SOPE   HN2 7462   1.808   6.625   6.350 -0.8593 -1.4033 -0.0046
   82SOPE   HN3 7463   1.653   6.694   6.327  0.6553 -0.9697 -1.1921
   82SOPE   C12 7464   1.677   6.594   6.514  0.0145 -0.0680 -0.7194
   82SOPE  H12A 7465   1.744   6.600   6.602  1.5241 -2.5012 -1.5871
   82SOPE  H12B 7466   1.675   6.486   6.486 -0.4974 -0.2552  0.0284
   82SOPE   C11 7467   1.542   6.642   6.567  0.1323  0.3899  0.1861
   82SOPE  H11A 7468   1.520   6.564   6.643 -1.3305 -1.0846 -1.6305
   82SOPE  H11B 7469   1.467   6.623   6.487  0.1059 -2.3166  0.7352
   82SOPE     P 7470   1.412   6.847   6.651  0.0165  0.1331  0.4531
   82SOPE   O13 7471   1.443   6.990   6.670 -0.0653  0.7219 -0.3305
   82SOPE   O14 7472   1.346   6.766   6.755 -0.7480  0.4757  0.2913
   82SOPE   O12 7473   1.552   6.777   6.612  1.0904 -0.5172 -0.1443
   82SOPE   O11 7474   1.340   6.838   6.514  0.0440 -0.1357 -0.6078
   82SOPE    C1 7475   1.394   6.905   6.397 -0.2729 -0.2938 -0.0762
   82SOPE    HA 7476   1.501   6.884   6.376 -0.0903  0.4172  0.1085
   82SOPE    HB 7477   1.378   7.014   6.406 -0.7394 -0.5230  2.7157
   82SOPE    C2 7478   1.326   6.858   6.269 -0.9074 -0.2194  0.1029
   82SOPE    HS 7479   1.304   6.750   6.278 -0.0280 -0.2860  1.6693
   82SOPE   O21 7480   1.408   6.874   6.148 -0.5655  0.6401  0.0021
   82SOPE   C21 7481   1.519   6.815   6.123 -0.0452  0.1555  1.2201
   82SOPE   O22 7482   1.570   6.729   6.190  0.1719  0.0377  0.2170
   82SOPE   C22 7483   1.572   6.892   5.995 -0.2383  0.2073  0.4429
   82SOPE   H2R 7484   1.666   6.942   6.026 -0.0962 -1.5711  3.3498
   82SOPE   H2S 7485   1.498   6.972   5.977  0.5567  1.4714  2.4601
   82SOPE    C3 7486   1.186   6.925   6.252 -0.0044  0.1306 -1.0585
   82SOPE    HX 7487   1.172   7.031   6.283 -0.0130 -0.7862  2.5759
   82SOPE    HY 7488   1.124   6.875   6.329  0.7066 -0.6294 -0.9576
   82SOPE   O31 7489   1.120   6.887   6.131 -0.0502  0.2573  0.3112
   82SOPE   C31 7490   1.165   6.972   6.030  0.1127 -0.3624 -0.5448
   82SOPE   O32 7491   1.238   7.064   6.045  0.0351  0.1378  0.7440
   82SOPE   C32 7492   1.115   6.919   5.896  0.4239 -0.1934  0.7994
   82SOPE   H2X 7493   1.012   6.960   5.887  0.5815 -0.1706 -1.3367
   82SOPE   H2Y 7494   1.098   6.810   5.900 -1.3607  0.0454  0.4844
   82SOPE   C23 7495   1.598   6.788   5.890  0.6170  0.0183  0.2056
   82SOPE   H3R 7496   1.509   6.777   5.824 -0.7342  1.4682  1.7113
   82SOPE   H3S 7497   1.629   6.686   5.923  1.3785  0.7654  1.9118
   82SOPE   C24 7498   1.710   6.821   5.791 -0.1609  0.0623 -0.1865
   82SOPE   H4R 7499   1.688   6.912   5.732  3.0895 -0.1470 -1.9515
   82SOPE   H4S 7500   1.808   6.827   5.844 -0.0771  1.3021 -0.4462
   82SOPE   C25 7501   1.726   6.717   5.686  0.1138  0.4558 -0.7722
   82SOPE   H5R 7502   1.819   6.753   5.635  1.5000  1.1203  2.0248
   82SOPE   H5S 7503   1.754   6.617   5.725  0.7002  0.2828 -1.5886
   82SOPE   C26 7504   1.597   6.685   5.608 -0.3675 -0.1945 -0.2409
   82SOPE   H6R 7505   1.528   6.634   5.678 -0.9103  2.7194  1.4976
   82SOPE   H6S 7506   1.541   6.780   5.592 -2.1314 -1.4747 -2.0418
   82SOPE   C27 7507   1.613   6.601   5.484 -0.4912 -0.1424  0.2477
   82SOPE   H7R 7508   1.673   6.655   5.407 -2.0392  1.3440  0.0335
   82SOPE   H7S 7509   1.688   6.525   5.517 -1.0461 -1.3891 -1.2856
   82SOPE   C28 7510   1.500   6.512   5.438 -0.1343 -0.1545 -0.1364
   82SOPE   H8R 7511   1.546   6.433   5.375 -0.4813  1.1362 -2.0791
   82SOPE   H8S 7512   1.470   6.451   5.526 -0.6181 -0.1438 -0.2967
   82SOPE   C29 7513   1.392   6.591   5.374  0.3019  0.6127 -0.1886
   82SOPE   H91 7514   1.370   6.691   5.414  0.7718  1.5015 -2.0733
   82SOPE  C210 7515   1.323   6.543   5.267 -0.3420  0.6840 -0.0175
   82SOPE  H101 7516   1.240   6.602   5.224  1.1543  1.4692 -1.9676
   82SOPE  C211 7517   1.334   6.414   5.189 -0.4026 -0.1148  0.5686
   82SOPE  H11R 7518   1.243   6.352   5.200  0.9695 -1.8453  3.6931
   82SOPE  H11S 7519   1.422   6.351   5.214  0.9432  1.6506  0.4885
   82SOPE  C212 7520   1.348   6.453   5.036  0.1599 -0.6064 -0.4457
   82SOPE  H12R 7521   1.446   6.489   4.997 -0.0658  1.2026  0.5689
   82SOPE  H12S 7522   1.282   6.539   5.013 -0.7282 -1.4255 -1.0401
   82SOPE  C213 7523   1.305   6.330   4.955  0.1297  0.5869 -0.1669
   82SOPE  H13R 7524   1.207   6.282   4.973  1.5577 -1.9948  1.5877
   82SOPE  H13S 7525   1.378   6.255   4.993  0.2980  1.2416  0.8427
   82SOPE  C214 7526   1.322   6.348   4.803 -0.1737  0.7774 -0.1025
   82SOPE  H14R 7527   1.272   6.440   4.767  0.6758  1.6796  0.9508
   82SOPE  H14S 7528   1.273   6.263   4.752  0.3022 -0.3790  1.2884
   82SOPE  C215 7529   1.468   6.347   4.764  0.2954 -0.2906  0.0221
   82SOPE  H15R 7530   1.529   6.274   4.821 -0.2650 -0.9563 -0.2271
   82SOPE  H15S 7531   1.504   6.448   4.794 -1.5545  1.6830 -3.7632
   82SOPE  C216 7532   1.478   6.324   4.608  0.2973 -1.4277 -0.1504
   82SOPE  H16R 7533   1.420   6.405   4.558  1.1560  0.0526  1.1559
   82SOPE  H16S 7534   1.443   6.221   4.587 -2.6584 -0.4461 -0.5805
   82SOPE  C217 7535   1.623   6.343   4.554 -0.0265 -0.5099 -0.3476
   82SOPE  H17R 7536   1.613   6.306   4.450 -2.8457 -0.0851 -0.2995
   82SOPE  H17S 7537   1.683   6.265   4.607 -0.3260 -1.5181 -1.4550
   82SOPE  C218 7538   1.673   6.487   4.566  0.9261 -0.2582  0.4155
   82SOPE  H18R 7539   1.696   6.510   4.673 -2.2626  2.4068  0.6609
   82SOPE  H18S 7540   1.595   6.561   4.540  1.3536 -0.6217 -2.0913
   82SOPE  H18T 7541   1.763   6.491   4.500  1.4804 -0.9266  1.0972
   82SOPE   C33 7542   1.213   6.953   5.777  0.3687 -0.4651  0.1118
   82SOPE   H3X 7543   1.308   6.897   5.772 -0.1793 -1.3732 -0.3927
   82SOPE   H3Y 7544   1.257   7.055   5.786 -2.5836  0.8049  1.3491
   82SOPE   C34 7545   1.142   6.933   5.640 -0.0980  0.1291 -0.1383
   82SOPE   H4X 7546   1.044   6.984   5.636 -0.2565 -0.2252 -2.0675
   82SOPE   H4Y 7547   1.125   6.824   5.628  0.4703  0.0251 -0.0421
   82SOPE   C35 7548   1.227   6.966   5.516 -0.0256  0.1568  0.6501
   82SOPE   H5X 7549   1.331   6.934   5.540  1.3202  2.7365 -1.2227
   82SOPE   H5Y 7550   1.229   7.077   5.508 -1.1015  0.1097 -0.6534
   82SOPE   C36 7551   1.176   6.909   5.381 -0.1440 -0.1680  0.1386
   82SOPE   H6X 7552   1.172   6.798   5.375  0.3211 -0.1452 -0.6932
   82SOPE   H6Y 7553   1.254   6.942   5.309  0.8901 -2.3724  0.1479
   82SOPE   C37 7554   1.048   6.965   5.336 -0.1285  0.0798  0.2749
   82SOPE   H7X 7555   1.042   7.066   5.383  0.5318  0.9087 -1.3454
   82SOPE   H7Y 7556   0.952   6.925   5.377 -0.9772  2.4098  0.7558
   82SOPE   C38 7557   1.027   6.975   5.181 -0.5948  0.1888 -0.7257
   82SOPE   H8X 7558   1.123   6.990   5.128  1.2257  2.0906  2.7426
   82SOPE   H8Y 7559   0.971   7.067   5.153 -1.3716 -0.5812 -1.8053
   82SOPE   C39 7560   0.977   6.836   5.134  0.3554  0.0142 -0.4637
   82SOPE   H9X 7561   0.867   6.832   5.149  0.6647  0.2235  2.4127
   82SOPE   H9Y 7562   1.022   6.750   5.188 -0.8985 -1.4978 -1.7120
   82SOPE  C310 7563   1.008   6.815   4.984 -0.0577  0.1919 -0.7665
   82SOPE  H10X 7564   1.118   6.805   4.975 -0.1045 -0.6416 -0.4827
   82SOPE  H10Y 7565   0.964   6.905   4.937 -2.2415  0.4522  1.5260
   82SOPE  C311 7566   0.945   6.694   4.919 -0.0852 -0.5178 -0.2074
   82SOPE  H11X 7567   0.837   6.699   4.942 -0.5123 -1.6989 -1.8249
   82SOPE  H11Y 7568   0.986   6.594   4.944 -0.1944 -0.6415 -0.5187
   82SOPE  C312 7569   0.963   6.699   4.765 -0.6901 -0.4700  0.0034
   82SOPE  H12X 7570   1.072   6.690   4.749 -0.7504 -2.1603  0.2872
   82SOPE  H12Y 7571   0.920   6.796   4.733  2.6799  2.0957  2.5825
   82SOPE  C313 7572   0.909   6.581   4.683 -0.5168  0.4616 -0.4957
   82SOPE  H13X 7573   0.802   6.599   4.707 -0.1406  3.7237 -0.8360
   82SOPE  H13Y 7574   0.926   6.482   4.732  1.0776  1.2461  0.6354
   82SOPE  C314 7575   0.943   6.574   4.536 -0.5292  0.8004  0.1095
   82SOPE  H14X 7576   0.945   6.675   4.489  3.3218  0.4409 -0.8604
   82SOPE  H14Y 7577   0.859   6.518   4.489 -0.5135  0.7530  0.1374
   82SOPE  C315 7578   1.080   6.514   4.513 -0.1986  0.3198  0.2811
   82SOPE  H15X 7579   1.083   6.417   4.567 -1.1730  0.7526  1.1413
   82SOPE  H15Y 7580   1.163   6.570   4.560  0.6266 -0.6561  0.0165
   82SOPE  C316 7581   1.102   6.488   4.355  0.1974  0.0202  0.9511
   82SOPE  H16X 7582   1.110   6.592   4.317  0.6516 -0.1660  0.5332
   82SOPE  H16Y 7583   1.004   6.461   4.309 -0.0485  0.6982  1.0602
   82SOPE  C317 7584   1.209   6.390   4.313 -0.3003 -0.2939  0.7096
   82SOPE  H17X 7585   1.182   6.286   4.338  1.1876 -0.5200  1.4886
   82SOPE  H17Y 7586   1.292   6.420   4.381 -0.6596  0.3353  0.8800
   82SOPE  C318 7587   1.260   6.408   4.169 -0.7895 -0.6930  0.2894
   82SOPE  H18X 7588   1.290   6.515   4.165  0.5290 -1.0465  0.3602
   82SOPE  H18Y 7589   1.189   6.386   4.086 -0.2913  0.1847 -0.3866
   82SOPE  H18Z 7590   1.347   6.341   4.155 -0.6924 -0.6773  0.8044
   83SOPE     N 7591   1.388   5.605   1.916 -0.9754 -0.5311 -0.0082
   83SOPE   HN1 7592   1.468   5.642   1.860 -0.8208  0.2764  0.7304
   83SOPE   HN2 7593   1.306   5.577   1.859 -0.6213  0.5276 -1.0913
   83SOPE   HN3 7594   1.355   5.684   1.975  0.4759  0.5485 -0.5691
   83SOPE   C12 7595   1.433   5.487   1.992  0.1573  0.3247 -0.0685
   83SOPE  H12A 7596   1.517   5.514   2.060 -1.5943  0.8336  2.0083
   83SOPE  H12B 7597   1.463   5.406   1.923  0.8546  1.2274 -0.8440
   83SOPE   C11 7598   1.321   5.409   2.073 -0.1745  0.1758 -0.0643
   83SOPE  H11A 7599   1.362   5.316   2.117  0.8232 -0.5159 -2.2771
   83SOPE  H11B 7600   1.246   5.374   1.999 -1.0294 -1.0416  1.3220
   83SOPE     P 7601   1.287   5.504   2.316  0.1417  0.1157  0.1521
   83SOPE   O13 7602   1.175   5.583   2.377 -0.1959  0.1863  0.0715
   83SOPE   O14 7603   1.420   5.558   2.334  0.5156 -0.8051 -0.3864
   83SOPE   O12 7604   1.259   5.505   2.160 -0.0286 -0.2134 -0.3859
   83SOPE   O11 7605   1.279   5.349   2.353  0.4948  0.1506 -0.3998
   83SOPE    C1 7606   1.400   5.282   2.390 -0.0613 -0.0879 -0.1352
   83SOPE    HA 7607   1.488   5.322   2.335  0.8193 -2.3188 -0.4458
   83SOPE    HB 7608   1.386   5.177   2.358 -3.2417 -0.4709  2.0365
   83SOPE    C2 7609   1.412   5.289   2.541 -0.1380  0.2229  0.2058
   83SOPE    HS 7610   1.317   5.243   2.576 -0.4738 -1.0384 -2.1422
   83SOPE   O21 7611   1.448   5.422   2.592  0.6777  0.1696  0.5865
   83SOPE   C21 7612   1.356   5.463   2.683 -0.5854 -0.4964 -0.8433
   83SOPE   O22 7613   1.259   5.405   2.722  0.3225 -0.1295  0.0854
   83SOPE   C22 7614   1.401   5.605   2.735 -0.3501  0.2986 -0.1273
   83SOPE   H2R 7615   1.348   5.683   2.677  0.3171  2.3242  1.8553
   83SOPE   H2S 7616   1.508   5.620   2.708 -0.0939 -0.0715  0.6472
   83SOPE    C3 7617   1.530   5.196   2.579  0.0748  0.0630  0.9403
   83SOPE    HX 7618   1.628   5.237   2.549 -0.6162 -0.7047 -2.9005
   83SOPE    HY 7619   1.535   5.102   2.520  0.0777  0.2333  0.6676
   83SOPE   O31 7620   1.525   5.163   2.724  0.0929 -0.1522  0.6762
   83SOPE   C31 7621   1.477   5.036   2.744  0.0326 -0.2708 -0.9977
   83SOPE   O32 7622   1.413   4.972   2.664 -0.0197  0.5112  0.2838
   83SOPE   C32 7623   1.505   4.985   2.891 -0.5783 -0.7063 -0.3594
   83SOPE   H2X 7624   1.612   5.005   2.914 -0.4989 -0.3753 -0.9919
   83SOPE   H2Y 7625   1.474   4.879   2.898 -0.8909 -0.5608  0.6400
   83SOPE   C23 7626   1.375   5.624   2.886 -0.7595  0.4693  0.3051
   83SOPE   H3R 7627   1.428   5.715   2.919 -1.9104  0.9597  0.8700
   83SOPE   H3S 7628   1.414   5.541   2.949 -1.5807  0.3101  0.6177
   83SOPE   C24 7629   1.220   5.643   2.917 -0.2346  0.2621  0.3632
   83SOPE   H4R 7630   1.193   5.732   2.856  0.4196  0.4180  0.2889
   83SOPE   H4S 7631   1.168   5.552   2.882 -1.4317  0.6361  1.1172
   83SOPE   C25 7632   1.178   5.671   3.062 -0.1119  0.1411 -0.1396
   83SOPE   H5R 7633   1.233   5.755   3.109 -0.6563 -0.3611  1.4570
   83SOPE   H5S 7634   1.071   5.699   3.056 -0.2139 -0.5148 -2.1852
   83SOPE   C26 7635   1.204   5.545   3.152  0.5743 -0.5248 -0.4197
   83SOPE   H6R 7636   1.151   5.454   3.114 -0.2039 -0.7283  1.0808
   83SOPE   H6S 7637   1.311   5.519   3.145  0.6876  0.1920 -1.5532
   83SOPE   C27 7638   1.152   5.581   3.291  0.5802  0.4804 -0.2831
   83SOPE   H7R 7639   1.235   5.625   3.350  2.7042 -2.1625 -1.0903
   83SOPE   H7S 7640   1.080   5.665   3.277  1.7999  1.7210  0.6100
   83SOPE   C28 7641   1.088   5.466   3.368  0.9798 -0.4877 -0.0776
   83SOPE   H8R 7642   1.001   5.414   3.323  1.2822 -2.5099  1.5643
   83SOPE   H8S 7643   1.169   5.390   3.368  2.0581  0.5063 -2.8787
   83SOPE   C29 7644   1.051   5.514   3.503 -0.1601 -0.7844 -0.6969
   83SOPE   H91 7645   1.074   5.620   3.526 -0.1986 -0.7748 -0.7023
   83SOPE  C210 7646   1.008   5.433   3.601 -0.5711 -0.0318 -0.1120
   83SOPE  H101 7647   1.005   5.474   3.703  1.5420 -0.0292 -0.0003
   83SOPE  C211 7648   0.975   5.290   3.594 -0.5468 -0.2737  0.2027
   83SOPE  H11R 7649   1.048   5.237   3.659 -1.5687 -1.1262  0.6775
   83SOPE  H11S 7650   0.981   5.239   3.495  0.0897 -2.9647  1.5201
   83SOPE  C212 7651   0.838   5.251   3.657  0.2728  0.7884 -0.2415
   83SOPE  H12R 7652   0.813   5.148   3.621 -1.5774 -0.5407  4.1141
   83SOPE  H12S 7653   0.754   5.309   3.613 -1.3831 -1.3735 -0.1463
   83SOPE  C213 7654   0.826   5.254   3.809  0.2123 -0.0010 -0.4942
   83SOPE  H13R 7655   0.728   5.212   3.840  0.1846 -1.0975 -1.9585
   83SOPE  H13S 7656   0.804   5.359   3.838  1.0463 -0.3086  1.3822
   83SOPE  C214 7657   0.939   5.210   3.895 -0.1334  0.8052 -0.1075
   83SOPE  H14R 7658   1.032   5.270   3.893  1.2499 -1.1173  2.1955
   83SOPE  H14S 7659   0.976   5.113   3.855  0.1351 -0.1660  2.3397
   83SOPE  C215 7660   0.896   5.180   4.040 -0.3373 -0.0556 -0.4629
   83SOPE  H15R 7661   0.806   5.114   4.047  0.6256 -1.7284 -2.6337
   83SOPE  H15S 7662   0.871   5.277   4.088  2.2400 -0.2065  1.3991
   83SOPE  C216 7663   1.011   5.117   4.120  0.4154 -0.0913 -0.1819
   83SOPE  H16R 7664   1.102   5.180   4.128 -0.4410  1.1515  0.2038
   83SOPE  H16S 7665   1.038   5.025   4.065 -0.3379  0.5045 -1.6107
   83SOPE  C217 7666   0.971   5.079   4.262  0.2557 -0.1653 -0.3326
   83SOPE  H17R 7667   0.872   5.029   4.255 -0.4176  0.4882  2.8636
   83SOPE  H17S 7668   0.976   5.170   4.325  0.5066 -1.9261  2.3586
   83SOPE  C218 7669   1.066   4.985   4.340 -0.2646  0.4474 -0.5490
   83SOPE  H18R 7670   1.108   4.904   4.276 -1.0126  0.0566 -0.5707
   83SOPE  H18S 7671   1.019   4.945   4.433  1.6534 -0.6081  0.0191
   83SOPE  H18T 7672   1.154   5.047   4.364 -1.5127  4.0171 -4.0887
   83SOPE   C33 7673   1.416   5.061   2.989  0.8772 -0.6101 -0.2753
   83SOPE   H3X 7674   1.310   5.030   2.981  0.6777 -0.1785  0.5856
   83SOPE   H3Y 7675   1.427   5.171   2.980  0.7662 -0.2986  2.6174
   83SOPE   C34 7676   1.456   5.031   3.129 -0.3263  0.7164 -0.7857
   83SOPE   H4X 7677   1.561   5.062   3.150  0.6068 -1.8991 -1.1716
   83SOPE   H4Y 7678   1.444   4.922   3.148  1.4513  0.4095 -1.2393
   83SOPE   C35 7679   1.373   5.114   3.232  0.4883  0.1620 -0.2213
   83SOPE   H5X 7680   1.267   5.107   3.201  1.1758  2.2787 -3.5774
   83SOPE   H5Y 7681   1.397   5.222   3.236  1.0481  0.0150  1.0121
   83SOPE   C36 7682   1.407   5.074   3.375  0.4238  0.9693  0.3338
   83SOPE   H6X 7683   1.511   5.107   3.397  0.8043  0.4711 -0.6696
   83SOPE   H6Y 7684   1.400   4.964   3.376  0.6579  0.9548  0.6135
   83SOPE   C37 7685   1.306   5.142   3.471 -0.3626  0.5363 -0.6894
   83SOPE   H7X 7686   1.202   5.105   3.465 -0.5135  0.5582  1.1915
   83SOPE   H7Y 7687   1.307   5.253   3.461 -0.7262  0.6806  0.7849
   83SOPE   C38 7688   1.362   5.100   3.611 -0.3946 -0.8699 -0.1854
   83SOPE   H8X 7689   1.454   5.156   3.639 -0.7682 -1.6945  3.1597
   83SOPE   H8Y 7690   1.392   4.993   3.601  5.2415 -0.0354  3.3297
   83SOPE   C39 7691   1.256   5.106   3.729  0.5919  0.0057  0.6356
   83SOPE   H9X 7692   1.165   5.051   3.698 -0.0618  2.5543 -2.5522
   83SOPE   H9Y 7693   1.230   5.214   3.738  1.0398  0.0441  1.6650
   83SOPE  C310 7694   1.314   5.055   3.862 -0.3138 -0.6696 -0.4433
   83SOPE  H10X 7695   1.375   4.963   3.860 -0.0220 -0.5421  1.3310
   83SOPE  H10Y 7696   1.225   5.017   3.916  0.7742 -2.6073  0.0799
   83SOPE  C311 7697   1.402   5.150   3.942  0.8597 -0.2817 -0.0030
   83SOPE  H11X 7698   1.340   5.228   3.992 -1.3731 -1.7601 -0.3044
   83SOPE  H11Y 7699   1.477   5.207   3.883  0.8287  0.8439  0.9994
   83SOPE  C312 7700   1.485   5.077   4.047 -0.2618  0.1644 -0.1053
   83SOPE  H12X 7701   1.562   5.146   4.085 -2.5393  2.2694  0.9890
   83SOPE  H12Y 7702   1.531   4.993   3.991 -2.7876 -1.2126 -0.2931
   83SOPE  C313 7703   1.405   5.033   4.163 -0.9170  0.0604  0.8058
   83SOPE  H13X 7704   1.333   4.950   4.146 -1.6674  1.0159 -0.8864
   83SOPE  H13Y 7705   1.349   5.119   4.205  1.1820 -0.1798  4.4843
   83SOPE  C314 7706   1.501   4.970   4.263  0.2343  0.5252  0.1330
   83SOPE  H14X 7707   1.605   4.987   4.228 -0.5255 -0.1916 -2.6970
   83SOPE  H14Y 7708   1.485   4.861   4.262  0.4329  0.4828 -1.4154
   83SOPE  C315 7709   1.505   5.030   4.407  0.9172 -0.3774  0.0145
   83SOPE  H15X 7710   1.403   5.023   4.452  1.3973 -0.7439  1.0671
   83SOPE  H15Y 7711   1.525   5.139   4.394 -0.4976 -0.3060 -2.0621
   83SOPE  C316 7712   1.621   4.975   4.498  0.6943 -0.0640  0.8631
   83SOPE  H16X 7713   1.716   4.980   4.440 -0.6534  0.9038 -1.3567
   83SOPE  H16Y 7714   1.598   4.868   4.521  0.2782  0.0871  1.1423
   83SOPE  C317 7715   1.640   5.049   4.635 -0.3211 -0.4081 -0.1355
   83SOPE  H17X 7716   1.634   4.979   4.721  0.4521  0.9504  1.0656
   83SOPE  H17Y 7717   1.558   5.123   4.648  1.1313  1.1537  0.6189
   83SOPE  C318 7718   1.775   5.125   4.640  1.3459 -0.1677  0.0669
   83SOPE  H18X 7719   1.774   5.199   4.723  1.7616 -1.7834  1.5614
   83SOPE  H18Y 7720   1.789   5.182   4.545 -0.0684  2.3530  1.2607
   83SOPE  H18Z 7721   1.851   5.048   4.665  0.0517 -1.4299  0.2475
   84SOPE     N 7722   0.965   2.886   1.964  0.4253 -0.1461  0.1329
   84SOPE   HN1 7723   1.023   2.846   1.887 -0.0454 -1.0709  0.2516
   84SOPE   HN2 7724   1.001   2.867   2.059  0.0177 -0.5859  0.2005
   84SOPE   HN3 7725   0.876   2.834   1.973  1.0004 -1.2007 -0.1211
   84SOPE   C12 7726   0.946   3.033   1.922 -0.7839 -0.4188  0.3765
   84SOPE  H12A 7727   1.047   3.080   1.919 -1.6860  1.7879  2.1014
   84SOPE  H12B 7728   0.891   3.102   1.990  4.1287  2.6681  1.7501
   84SOPE   C11 7729   0.893   3.033   1.773 -0.0405 -0.2882 -0.3330
   84SOPE  H11A 7730   0.960   2.978   1.703  1.1888  0.0789  0.5270
   84SOPE  H11B 7731   0.889   3.139   1.741 -1.9177 -0.7279 -1.7368
   84SOPE     P 7732   0.640   3.048   1.760 -0.0305 -0.3205  0.2378
   84SOPE   O13 7733   0.531   2.963   1.717 -0.1079  0.4358  0.1047
   84SOPE   O14 7734   0.663   3.172   1.683 -0.3668 -0.3829 -0.5591
   84SOPE   O12 7735   0.767   2.964   1.759  0.0866 -0.2401  0.4790
   84SOPE   O11 7736   0.625   3.098   1.911 -0.4132  0.1047  0.4434
   84SOPE    C1 7737   0.612   3.011   2.024  0.4626  0.4500  0.7235
   84SOPE    HA 7738   0.704   2.951   2.039 -0.1718 -0.2590  1.9493
   84SOPE    HB 7739   0.529   2.937   2.013  0.4606  0.2162  2.0934
   84SOPE    C2 7740   0.585   3.087   2.158 -0.3867  0.2473  0.2415
   84SOPE    HS 7741   0.484   3.132   2.148 -1.6794 -2.6766 -1.0980
   84SOPE   O21 7742   0.690   3.191   2.164 -0.0388 -0.3492  0.3816
   84SOPE   C21 7743   0.652   3.296   2.231  0.1297  0.1450  0.1986
   84SOPE   O22 7744   0.540   3.323   2.270 -0.3720  0.3657 -0.0682
   84SOPE   C22 7745   0.767   3.402   2.240 -0.0618 -0.1251  0.2906
   84SOPE   H2R 7746   0.787   3.438   2.137  2.3240 -2.2822 -0.0998
   84SOPE   H2S 7747   0.859   3.365   2.290 -0.7994 -0.3421  1.5348
   84SOPE    C3 7748   0.590   2.988   2.276 -0.1404  0.4167  0.4239
   84SOPE    HX 7749   0.689   2.938   2.267 -0.7516 -1.2510  2.2056
   84SOPE    HY 7750   0.515   2.905   2.269  1.3872 -0.9154 -1.2183
   84SOPE   O31 7751   0.589   3.048   2.405  0.0228 -0.0353 -0.0428
   84SOPE   C31 7752   0.472   3.083   2.454  1.0290  0.0092  0.0147
   84SOPE   O32 7753   0.365   3.065   2.399 -0.0555 -0.1774  0.6918
   84SOPE   C32 7754   0.497   3.153   2.598  0.4296  0.2410 -0.1680
   84SOPE   H2X 7755   0.399   3.198   2.622 -0.8035 -1.8962 -0.9674
   84SOPE   H2Y 7756   0.571   3.234   2.579  0.3410  0.4552  0.3789
   84SOPE   C23 7757   0.744   3.526   2.327 -0.0468 -0.0016  0.1269
   84SOPE   H3R 7758   0.651   3.579   2.299 -0.0135  0.6859  1.2492
   84SOPE   H3S 7759   0.827   3.598   2.309 -1.5547  1.6462 -0.5542
   84SOPE   C24 7760   0.730   3.493   2.476 -0.4318  0.3248  0.6866
   84SOPE   H4R 7761   0.671   3.576   2.521 -0.3692  1.3924 -1.1024
   84SOPE   H4S 7762   0.668   3.402   2.486 -0.5703  0.3902  0.4313
   84SOPE   C25 7763   0.861   3.478   2.539  0.0482  0.0429 -0.1682
   84SOPE   H5R 7764   0.919   3.408   2.476 -0.4079  1.4574 -2.2358
   84SOPE   H5S 7765   0.911   3.576   2.554  0.4198  0.2357 -2.3891
   84SOPE   C26 7766   0.859   3.423   2.692 -0.3295  0.2772  0.5980
   84SOPE   H6R 7767   0.810   3.324   2.699 -2.2491  1.1316  0.1270
   84SOPE   H6S 7768   0.965   3.401   2.715 -0.3804 -1.0844 -0.3778
   84SOPE   C27 7769   0.793   3.518   2.794  0.3491 -0.3761 -0.2699
   84SOPE   H7R 7770   0.854   3.610   2.803  1.0720 -0.9955  1.6381
   84SOPE   H7S 7771   0.686   3.528   2.768 -0.0922  0.2746  1.6233
   84SOPE   C28 7772   0.798   3.456   2.937 -0.4729 -0.1632  0.3147
   84SOPE   H8R 7773   0.756   3.353   2.934  1.7765 -1.3037  3.0968
   84SOPE   H8S 7774   0.906   3.438   2.954  0.2376  2.6583 -0.6532
   84SOPE   C29 7775   0.727   3.529   3.044 -0.1157  1.2488 -0.5375
   84SOPE   H91 7776   0.619   3.516   3.056  0.1234 -1.5364 -0.6463
   84SOPE  C210 7777   0.791   3.610   3.133 -0.0727 -0.2903 -0.1867
   84SOPE  H101 7778   0.741   3.656   3.219 -1.1551 -1.3882 -0.1962
   84SOPE  C211 7779   0.940   3.628   3.138 -0.6387  0.3116 -0.2146
   84SOPE  H11R 7780   0.973   3.734   3.147 -1.0205  1.0596 -4.7776
   84SOPE  H11S 7781   0.989   3.583   3.048  1.1908 -0.3177  1.0447
   84SOPE  C212 7782   0.994   3.552   3.258 -0.4827  0.3468  0.4757
   84SOPE  H12R 7783   1.102   3.532   3.238 -0.8632 -2.0317  0.5414
   84SOPE  H12S 7784   0.952   3.450   3.258  2.5037 -0.9968 -0.3403
   84SOPE  C213 7785   0.979   3.608   3.398 -0.4796  0.6143  0.0093
   84SOPE  H13R 7786   0.871   3.626   3.412 -0.5395 -0.3599  0.9645
   84SOPE  H13S 7787   1.030   3.706   3.406  0.4706  0.1661 -0.4234
   84SOPE  C214 7788   1.029   3.512   3.500  0.4318  0.3026  0.3178
   84SOPE  H14R 7789   1.001   3.412   3.459 -0.1369 -0.2027  1.8894
   84SOPE  H14S 7790   0.987   3.522   3.602  1.3615 -2.3984  1.0486
   84SOPE  C215 7791   1.181   3.519   3.506 -0.4457 -0.0664  0.3087
   84SOPE  H15R 7792   1.204   3.625   3.528 -1.5878  1.0186 -2.9853
   84SOPE  H15S 7793   1.224   3.498   3.406 -0.6915 -3.0680  0.7525
   84SOPE  C216 7794   1.242   3.417   3.603 -0.2791  0.0713  1.2323
   84SOPE  H16R 7795   1.217   3.314   3.569 -1.4298  0.3585  1.1648
   84SOPE  H16S 7796   1.186   3.436   3.697  2.7043 -0.4677  3.2178
   84SOPE  C217 7797   1.391   3.447   3.644 -0.0925 -0.6564  0.9399
   84SOPE  H17R 7798   1.455   3.416   3.558 -0.6527  2.7604 -0.8898
   84SOPE  H17S 7799   1.412   3.389   3.736 -0.8570 -1.3509  0.6818
   84SOPE  C218 7800   1.431   3.595   3.666 -0.8341  0.2678 -0.1828
   84SOPE  H18R 7801   1.351   3.646   3.725 -1.3492 -1.5921  0.7875
   84SOPE  H18S 7802   1.450   3.652   3.573 -0.9740 -0.3084 -0.5638
   84SOPE  H18T 7803   1.516   3.605   3.737  0.4780  0.7998 -1.7891
   84SOPE   C33 7804   0.544   3.062   2.700 -0.8561  0.0357  0.1481
   84SOPE   H3X 7805   0.651   3.035   2.693 -0.5475  0.8091  1.4765
   84SOPE   H3Y 7806   0.477   2.973   2.703  0.4334 -0.9951 -0.2607
   84SOPE   C34 7807   0.529   3.130   2.834  0.1299 -0.0588  0.5008
   84SOPE   H4X 7808   0.423   3.164   2.844 -0.0470 -0.8760  1.5364
   84SOPE   H4Y 7809   0.596   3.218   2.826  2.0737 -1.6216 -2.0011
   84SOPE   C35 7810   0.546   3.030   2.950 -0.1560  0.5233 -0.0005
   84SOPE   H5X 7811   0.650   2.991   2.949 -0.4018 -0.2527 -2.1510
   84SOPE   H5Y 7812   0.479   2.946   2.923  0.2481  0.4495 -0.8231
   84SOPE   C36 7813   0.500   3.095   3.079 -0.1390  0.4124  1.2771
   84SOPE   H6X 7814   0.391   3.111   3.068 -0.3733 -1.4409  0.6923
   84SOPE   H6Y 7815   0.543   3.198   3.080 -0.4422  0.5837 -0.2983
   84SOPE   C37 7816   0.533   3.001   3.198  0.1956 -0.6079  0.7906
   84SOPE   H7X 7817   0.641   2.997   3.224  0.8070  1.9183 -0.9343
   84SOPE   H7Y 7818   0.494   2.897   3.187 -0.8055 -0.5853  3.5615
   84SOPE   C38 7819   0.458   3.042   3.323 -0.3936 -0.0650  0.3055
   84SOPE   H8X 7820   0.494   3.143   3.353 -0.1442  0.3664 -1.3680
   84SOPE   H8Y 7821   0.492   2.975   3.405  1.3771  1.4345  0.8465
   84SOPE   C39 7822   0.301   3.046   3.317  0.2161 -0.8078 -0.5264
   84SOPE   H9X 7823   0.262   2.950   3.278 -4.7063  1.0951 -0.9000
   84SOPE   H9Y 7824   0.265   3.118   3.241 -0.5201 -0.4520  0.1499
   84SOPE  C310 7825   0.249   3.071   3.457  0.2033  0.4689  0.0750
   84SOPE  H10X 7826   0.275   3.167   3.507  2.2858 -0.3463  0.6293
   84SOPE  H10Y 7827   0.296   2.991   3.518 -0.1889  0.6707  0.6572
   84SOPE  C311 7828   0.096   3.046   3.472 -0.0735 -0.7117 -0.5330
   84SOPE  H11X 7829   0.068   2.949   3.427 -0.0370 -0.4535 -1.1277
   84SOPE  H11Y 7830   0.039   3.123   3.415  2.6143  2.1550  0.3509
   84SOPE  C312 7831   0.043   3.052   3.616  0.5991 -0.1153  0.6412
   84SOPE  H12X 7832   0.118   2.996   3.676  0.0516 -0.2244  1.2412
   84SOPE  H12Y 7833  -0.052   2.995   3.624  1.7027 -1.8252  3.0111
   84SOPE  C313 7834   0.040   3.200   3.664  0.1921  1.5435  0.0934
   84SOPE  H13X 7835  -0.031   3.252   3.597 -1.1471  0.7429  0.8497
   84SOPE  H13Y 7836   0.138   3.252   3.653  0.3455  1.4278  0.8773
   84SOPE  C314 7837  -0.004   3.213   3.811  0.0529  0.0005  0.1567
   84SOPE  H14X 7838  -0.108   3.177   3.824  0.3935 -0.9883  0.2297
   84SOPE  H14Y 7839  -0.006   3.323   3.826  1.0361 -0.0899  1.0689
   84SOPE  C315 7840   0.100   3.151   3.909  0.4333 -0.2478  0.1448
   84SOPE  H15X 7841   0.206   3.178   3.887  0.4695 -1.9933 -2.1522
   84SOPE  H15Y 7842   0.098   3.040   3.907  2.5501 -0.3496 -2.8297
   84SOPE  C316 7843   0.058   3.188   4.057  0.0997  0.1741  0.1573
   84SOPE  H16X 7844  -0.035   3.133   4.083  1.1704 -2.1445 -0.5907
   84SOPE  H16Y 7845   0.030   3.295   4.068  0.3998  0.0897  2.0363
   84SOPE  C317 7846   0.159   3.155   4.169  0.2135 -0.7353  0.2905
   84SOPE  H17X 7847   0.119   3.171   4.272  0.4314  1.9405  0.0288
   84SOPE  H17Y 7848   0.240   3.229   4.155 -0.8375 -0.1699 -4.3196
   84SOPE  C318 7849   0.206   3.006   4.156 -0.4025 -0.1546 -0.3346
   84SOPE  H18X 7850   0.116   2.943   4.169 -0.6436 -0.1799 -1.9398
   84SOPE  H18Y 7851   0.268   2.976   4.243 -1.6830 -0.7573  0.3991
   84SOPE  H18Z 7852   0.255   2.980   4.059  1.9445  1.0454  0.4444
   85SOPE     N 7853   4.751   5.458   2.081  0.3573 -0.1059  0.0347
   85SOPE   HN1 7854   4.827   5.522   2.052 -0.3149 -0.6004 -3.2324
   85SOPE   HN2 7855   4.769   5.439   2.182  2.4389 -0.8505 -0.4314
   85SOPE   HN3 7856   4.756   5.378   2.014  0.4670 -0.0093 -0.0706
   85SOPE   C12 7857   4.620   5.541   2.051 -0.4226 -0.2336  0.3332
   85SOPE  H12A 7858   4.626   5.587   1.950  1.5848 -0.5364  0.2740
   85SOPE  H12B 7859   4.614   5.625   2.124  0.0120  0.0956  0.0022
   85SOPE   C11 7860   4.506   5.448   2.074 -0.1874  0.0769 -0.4850
   85SOPE  H11A 7861   4.417   5.506   2.045  1.1763  3.1274  0.9912
   85SOPE  H11B 7862   4.494   5.425   2.182 -1.0265  1.0953 -0.3514
   85SOPE     P 7863   4.406   5.215   1.999 -0.0356  0.0754  0.0735
   85SOPE   O13 7864   4.463   5.102   1.927 -0.1033 -0.1766 -0.6398
   85SOPE   O14 7865   4.272   5.267   1.958  0.5280  0.2568  0.0321
   85SOPE   O12 7866   4.519   5.328   1.997 -0.1454  0.1290  0.2205
   85SOPE   O11 7867   4.409   5.188   2.157 -0.1366 -0.1983  0.1376
   85SOPE    C1 7868   4.465   5.067   2.199 -0.2125 -0.5647  1.0242
   85SOPE    HA 7869   4.572   5.053   2.172 -0.7046 -1.8648 -0.3429
   85SOPE    HB 7870   4.413   4.985   2.146 -0.5378  0.1850  0.1633
   85SOPE    C2 7871   4.451   5.053   2.349  0.2222  0.7489 -0.1797
   85SOPE    HS 7872   4.496   4.953   2.369 -1.8222 -0.3830 -1.0215
   85SOPE   O21 7873   4.305   5.056   2.383 -0.1868  0.9211 -0.1569
   85SOPE   C21 7874   4.237   4.953   2.346  0.3907 -0.7723  0.6477
   85SOPE   O22 7875   4.276   4.855   2.289  0.0121  0.4222  0.0011
   85SOPE   C22 7876   4.087   4.975   2.396 -0.7399 -0.2786  0.4445
   85SOPE   H2R 7877   4.038   5.008   2.302  0.1060 -1.1218 -0.3047
   85SOPE   H2S 7878   4.091   5.057   2.471 -3.4423  0.7802 -0.4519
   85SOPE    C3 7879   4.538   5.163   2.419  0.8914  0.1117  0.9752
   85SOPE    HX 7880   4.517   5.268   2.391  2.1591  0.7753  2.4100
   85SOPE    HY 7881   4.643   5.138   2.392 -0.0464 -1.4265 -1.6901
   85SOPE   O31 7882   4.527   5.151   2.558  0.0079  0.1958  0.1144
   85SOPE   C31 7883   4.417   5.205   2.619 -0.0151  0.1209 -0.1124
   85SOPE   O32 7884   4.330   5.272   2.571  0.1018 -0.6412  0.1352
   85SOPE   C32 7885   4.433   5.188   2.770  0.2282  0.0363 -0.6175
   85SOPE   H2X 7886   4.527   5.245   2.781  1.0943 -1.2073 -1.3339
   85SOPE   H2Y 7887   4.457   5.082   2.793 -0.1626  0.2952  1.1058
   85SOPE   C23 7888   4.034   4.847   2.456  0.0351 -0.4571 -0.1486
   85SOPE   H3R 7889   4.029   4.770   2.376 -2.3334 -0.7932  0.2437
   85SOPE   H3S 7890   3.926   4.863   2.474 -0.3999  0.5455 -3.1330
   85SOPE   C24 7891   4.105   4.793   2.586  0.2738 -0.1792  0.2631
   85SOPE   H4R 7892   4.067   4.690   2.604  0.4122 -0.7247 -2.1989
   85SOPE   H4S 7893   4.210   4.769   2.559 -0.5026 -1.2968 -2.0242
   85SOPE   C25 7894   4.079   4.876   2.711  0.4587 -0.3209  0.2066
   85SOPE   H5R 7895   4.140   4.969   2.713 -0.6579  0.4537 -0.8070
   85SOPE   H5S 7896   3.977   4.918   2.703 -0.5534 -2.7275 -0.5413
   85SOPE   C26 7897   4.098   4.796   2.843 -0.5574  0.1766  0.9432
   85SOPE   H6R 7898   4.017   4.720   2.840 -0.0668 -0.3594  0.8465
   85SOPE   H6S 7899   4.202   4.757   2.842 -1.1015 -1.4166  2.1255
   85SOPE   C27 7900   4.088   4.878   2.966  0.0362  0.4039 -0.3898
   85SOPE   H7R 7901   4.191   4.911   2.994  0.0476  0.9680 -1.0636
   85SOPE   H7S 7902   4.033   4.970   2.938  0.0719 -0.0137 -1.9687
   85SOPE   C28 7903   4.028   4.822   3.092  0.6482 -0.1457  0.2835
   85SOPE   H8R 7904   3.988   4.905   3.153  1.9998  0.5158  0.3053
   85SOPE   H8S 7905   3.937   4.763   3.067  0.3296  0.4706 -0.0329
   85SOPE   C29 7906   4.132   4.738   3.163 -0.1064  0.2579 -0.5467
   85SOPE   H91 7907   4.234   4.751   3.124 -0.9768  1.2265 -2.6833
   85SOPE  C210 7908   4.122   4.711   3.297  0.2727 -0.0345  0.3044
   85SOPE  H101 7909   4.202   4.671   3.360  1.1139 -1.1092 -1.3925
   85SOPE  C211 7910   4.004   4.756   3.378  0.5056  0.2980  0.3298
   85SOPE  H11R 7911   3.984   4.673   3.449  0.5402 -1.2646 -1.4407
   85SOPE  H11S 7912   3.909   4.755   3.321 -0.6069 -0.8895  2.0891
   85SOPE  C212 7913   4.014   4.893   3.444  0.1352 -0.1863 -0.1554
   85SOPE  H12R 7914   4.029   4.963   3.359  2.2852 -2.6935 -1.9952
   85SOPE  H12S 7915   4.108   4.892   3.503 -0.2832  1.8375  0.6416
   85SOPE  C213 7916   3.894   4.932   3.535 -0.4000  0.3561 -0.5047
   85SOPE  H13R 7917   3.798   4.913   3.482 -0.7945 -0.5105  0.4915
   85SOPE  H13S 7918   3.889   5.041   3.557  0.1980  0.2522  0.1974
   85SOPE  C214 7919   3.898   4.858   3.675  0.0400  0.7720 -1.0643
   85SOPE  H14R 7920   4.000   4.858   3.718  0.7040 -2.1006 -2.4323
   85SOPE  H14S 7921   3.882   4.750   3.655  2.3858  0.2269 -0.2490
   85SOPE  C215 7922   3.803   4.910   3.785 -0.4345 -0.4208  0.0983
   85SOPE  H15R 7923   3.705   4.916   3.733 -0.0355  1.3421 -0.5400
   85SOPE  H15S 7924   3.831   5.018   3.788  1.1258 -0.7888 -0.0570
   85SOPE  C216 7925   3.791   4.840   3.921  0.6940 -0.5674 -0.0147
   85SOPE  H16R 7926   3.892   4.836   3.967 -0.0849 -1.4612  1.6919
   85SOPE  H16S 7927   3.750   4.738   3.909 -1.4769  0.4697 -2.4603
   85SOPE  C217 7928   3.703   4.932   4.016 -0.2010  0.1977 -0.9449
   85SOPE  H17R 7929   3.663   4.865   4.094  0.5193  1.8660  0.9528
   85SOPE  H17S 7930   3.612   4.979   3.972 -0.6636  0.3560  0.1586
   85SOPE  C218 7931   3.780   5.035   4.095  0.9511  0.8577 -1.2130
   85SOPE  H18R 7932   3.722   5.079   4.179 -0.7992 -2.5918 -0.4194
   85SOPE  H18S 7933   3.819   5.116   4.030  2.0818  0.5093 -1.0030
   85SOPE  H18T 7934   3.875   4.991   4.133 -0.5393 -0.0825  1.7099
   85SOPE   C33 7935   4.321   5.249   2.850 -0.1235  0.6921 -0.3325
   85SOPE   H3X 7936   4.221   5.205   2.828 -0.5767  1.2987  0.4305
   85SOPE   H3Y 7937   4.331   5.360   2.843  1.1520  0.8593  2.6943
   85SOPE   C34 7938   4.361   5.207   2.987 -0.2103  0.9792  0.2811
   85SOPE   H4X 7939   4.470   5.223   2.996  0.0647 -0.7558  0.2175
   85SOPE   H4Y 7940   4.342   5.098   2.999  1.7802  0.6448  0.6578
   85SOPE   C35 7941   4.285   5.280   3.102 -0.0850  0.3525 -0.4278
   85SOPE   H5X 7942   4.188   5.326   3.072  0.9674  1.3266 -2.5248
   85SOPE   H5Y 7943   4.344   5.373   3.119 -1.3817  0.9516  1.0905
   85SOPE   C36 7944   4.255   5.200   3.230  0.7785  0.0404 -0.2248
   85SOPE   H6X 7945   4.355   5.158   3.251  0.3150 -0.5473  0.8670
   85SOPE   H6Y 7946   4.189   5.111   3.222  2.3889 -1.0965 -1.5708
   85SOPE   C37 7947   4.216   5.282   3.352  0.3392  0.1964  0.6453
   85SOPE   H7X 7948   4.108   5.308   3.345  0.3218  0.5052  1.8955
   85SOPE   H7Y 7949   4.281   5.372   3.358  2.0386 -1.0624  1.7613
   85SOPE   C38 7950   4.222   5.194   3.476 -0.3692 -0.1296 -1.0063
   85SOPE   H8X 7951   4.322   5.150   3.494  0.4311  1.4188 -1.4348
   85SOPE   H8Y 7952   4.145   5.114   3.483 -0.5406 -0.0522 -1.8941
   85SOPE   C39 7953   4.200   5.283   3.597  0.0240  0.1880  0.3753
   85SOPE   H9X 7954   4.102   5.334   3.589 -0.9214 -0.8749  3.5848
   85SOPE   H9Y 7955   4.273   5.367   3.595 -1.0220  1.1060  0.3811
   85SOPE  C310 7956   4.200   5.219   3.736 -0.0200  0.5734 -0.5199
   85SOPE  H10X 7957   4.296   5.165   3.756  0.3830  1.4874  0.0504
   85SOPE  H10Y 7958   4.125   5.137   3.726 -0.8167  1.1595  0.5501
   85SOPE  C311 7959   4.181   5.318   3.853  0.3205  0.1216 -0.3302
   85SOPE  H11X 7960   4.083   5.370   3.845  1.1195  2.3072  2.3787
   85SOPE  H11Y 7961   4.268   5.388   3.856  2.6829 -2.6450  0.2719
   85SOPE  C312 7962   4.183   5.238   3.976  0.2021  0.3686 -0.7716
   85SOPE  H12X 7963   4.285   5.196   3.963  0.2763  0.8583 -1.8453
   85SOPE  H12Y 7964   4.102   5.161   3.979 -0.2478  0.8196 -1.2707
   85SOPE  C313 7965   4.165   5.333   4.099 -0.3673 -0.1387 -0.1023
   85SOPE  H13X 7966   4.061   5.372   4.100  0.1003  1.4808 -2.8394
   85SOPE  H13Y 7967   4.234   5.418   4.078  0.1876 -0.1121  1.7335
   85SOPE  C314 7968   4.211   5.261   4.228 -0.0106  0.0609 -0.1492
   85SOPE  H14X 7969   4.310   5.211   4.221  0.6539  1.0864  1.4081
   85SOPE  H14Y 7970   4.142   5.175   4.239  0.6248 -0.2747  1.4513
   85SOPE  C315 7971   4.218   5.333   4.364  1.0132 -1.3792  0.1287
   85SOPE  H15X 7972   4.119   5.377   4.386  1.5756  0.6680 -1.2178
   85SOPE  H15Y 7973   4.273   5.427   4.343 -2.8185  0.6195 -2.0368
   85SOPE  C316 7974   4.253   5.242   4.479 -0.2392  0.4956 -0.5442
   85SOPE  H16X 7975   4.357   5.208   4.459 -0.5780 -0.8633 -0.0920
   85SOPE  H16Y 7976   4.187   5.153   4.468  0.2945  0.0421 -0.1806
   85SOPE  C317 7977   4.244   5.297   4.623 -0.3533 -0.3939 -0.0276
   85SOPE  H17X 7978   4.280   5.216   4.689 -0.3668  0.0357  0.5193
   85SOPE  H17Y 7979   4.139   5.323   4.649  0.2225  1.4208  0.6425
   85SOPE  C318 7980   4.323   5.423   4.651 -0.8324  0.1579  0.5362
   85SOPE  H18X 7981   4.276   5.513   4.605 -2.4850 -1.0146 -0.1591
   85SOPE  H18Y 7982   4.421   5.417   4.599 -0.2939 -0.2986  1.5777
   85SOPE  H18Z 7983   4.332   5.444   4.760  1.4489 -2.1436  0.8773
   86SOPE     N 7984   5.054   1.036   1.995  0.3939 -0.1215 -0.0762
   86SOPE   HN1 7985   4.995   1.108   1.950  2.7931  1.3962 -1.0243
   86SOPE   HN2 7986   5.143   1.051   1.942 -0.8961  3.1280 -1.6069
   86SOPE   HN3 7987   5.027   0.937   1.983  1.1507 -0.3482  0.0459
   86SOPE   C12 7988   5.056   1.062   2.142 -0.2893  0.2399 -0.5696
   86SOPE  H12A 7989   5.133   0.994   2.184  0.7376  1.5601 -0.2174
   86SOPE  H12B 7990   4.966   1.024   2.193 -0.0761  0.3549 -0.0996
   86SOPE   C11 7991   5.077   1.212   2.177  0.9910  0.2599 -0.0278
   86SOPE  H11A 7992   5.115   1.210   2.281 -1.8359  0.9359  1.1267
   86SOPE  H11B 7993   4.973   1.252   2.173  0.3056 -1.5290 -1.0696
   86SOPE     P 7994   5.195   1.435   2.101  0.1083 -0.2758  0.0880
   86SOPE   O13 7995   5.072   1.518   2.100  0.0381  0.2941  0.2625
   86SOPE   O14 7996   5.300   1.464   1.996  0.1806  0.2833  0.2070
   86SOPE   O12 7997   5.168   1.283   2.091 -0.4010 -0.0334 -0.3726
   86SOPE   O11 7998   5.254   1.444   2.242 -0.2877  0.2304  0.1066
   86SOPE    C1 7999   5.380   1.363   2.262  0.3264 -0.2898 -0.1630
   86SOPE    HA 8000   5.476   1.418   2.252  0.4571 -0.4777  0.0441
   86SOPE    HB 8001   5.386   1.271   2.200 -1.8250  0.8414 -2.2140
   86SOPE    C2 8002   5.382   1.316   2.413 -0.2045 -0.2021  0.7406
   86SOPE    HS 8003   5.308   1.234   2.428 -1.2802  0.9833  2.2298
   86SOPE   O21 8004   5.336   1.422   2.500 -0.1006 -0.5082  0.5545
   86SOPE   C21 8005   5.209   1.417   2.545 -0.3052  0.2670 -0.1471
   86SOPE   O22 8006   5.127   1.338   2.506 -0.2271  0.6920  0.3927
   86SOPE   C22 8007   5.187   1.512   2.663  0.2688 -0.3635 -0.0226
   86SOPE   H2R 8008   5.096   1.568   2.635 -0.2334 -0.3098  1.6042
   86SOPE   H2S 8009   5.271   1.585   2.665 -0.6486  0.8857 -2.6429
   86SOPE    C3 8010   5.524   1.286   2.457 -0.0575  1.0037  0.2798
   86SOPE    HX 8011   5.601   1.363   2.434  0.8385  0.4812  1.4468
   86SOPE    HY 8012   5.550   1.191   2.406 -0.6141  0.6161  0.7052
   86SOPE   O31 8013   5.525   1.237   2.592 -0.2752 -0.9948 -0.1779
   86SOPE   C31 8014   5.594   1.315   2.674 -0.5262 -0.1970  0.0606
   86SOPE   O32 8015   5.631   1.427   2.642  0.0410 -0.3969 -0.3145
   86SOPE   C32 8016   5.629   1.243   2.814 -0.4958  0.0958  0.7987
   86SOPE   H2X 8017   5.705   1.171   2.777 -1.8983 -0.5576 -0.9883
   86SOPE   H2Y 8018   5.541   1.187   2.853  0.5838 -1.1853  1.4791
   86SOPE   C23 8019   5.162   1.434   2.798  0.3352 -0.1293  0.4483
   86SOPE   H3R 8020   5.084   1.355   2.792 -0.3298  0.4517  1.2168
   86SOPE   H3S 8021   5.135   1.511   2.874  1.3715  1.3018 -0.5641
   86SOPE   C24 8022   5.297   1.374   2.847  0.3663 -0.0785  0.6261
   86SOPE   H4R 8023   5.309   1.299   2.766 -2.6922 -0.8999  0.8158
   86SOPE   H4S 8024   5.373   1.453   2.833  0.4771 -0.0844  1.1518
   86SOPE   C25 8025   5.309   1.312   2.985  0.0260 -0.2809  0.3215
   86SOPE   H5R 8026   5.221   1.244   2.991  0.0666 -0.3679 -0.0218
   86SOPE   H5S 8027   5.406   1.258   2.978  0.0744 -0.0026 -3.2904
   86SOPE   C26 8028   5.286   1.414   3.099  0.1236  0.6155  0.4813
   86SOPE   H6R 8029   5.371   1.485   3.103  1.3542 -0.6647 -1.1785
   86SOPE   H6S 8030   5.192   1.471   3.086  0.6869  1.2246 -1.3748
   86SOPE   C27 8031   5.286   1.339   3.226  0.3328 -0.1172 -0.5293
   86SOPE   H7R 8032   5.197   1.273   3.232  1.2862 -1.3621  0.8418
   86SOPE   H7S 8033   5.373   1.269   3.225  1.1940  0.9198  0.1228
   86SOPE   C28 8034   5.281   1.419   3.355  0.6138  0.2262 -0.6313
   86SOPE   H8R 8035   5.370   1.486   3.353 -0.2488  1.3878 -1.9020
   86SOPE   H8S 8036   5.190   1.483   3.357 -0.2685 -1.0074  1.1029
   86SOPE   C29 8037   5.304   1.342   3.485 -0.4884 -0.7522  0.5812
   86SOPE   H91 8038   5.352   1.245   3.464 -2.4366 -1.2394 -2.2252
   86SOPE  C210 8039   5.295   1.401   3.604  0.2248  0.0568 -0.7960
   86SOPE  H101 8040   5.327   1.339   3.690  1.0467 -0.3279 -1.3675
   86SOPE  C211 8041   5.223   1.523   3.646  0.3758  0.1072  0.1298
   86SOPE  H11R 8042   5.137   1.487   3.706  0.6368 -2.2575 -0.8190
   86SOPE  H11S 8043   5.193   1.583   3.557  0.1878 -1.3037 -0.7959
   86SOPE  C212 8044   5.314   1.599   3.746 -0.3267  0.5838  0.2408
   86SOPE  H12R 8045   5.412   1.614   3.695  0.3851 -2.5050  0.4638
   86SOPE  H12S 8046   5.324   1.542   3.841 -0.6181 -0.4789 -0.3378
   86SOPE  C213 8047   5.263   1.730   3.799  0.6507 -0.6026 -0.1772
   86SOPE  H13R 8048   5.160   1.716   3.840  0.6771  2.7211  1.3601
   86SOPE  H13S 8049   5.269   1.814   3.726 -2.4129  0.9105  1.1243
   86SOPE  C214 8050   5.346   1.784   3.919 -0.0207  0.4374 -0.2015
   86SOPE  H14R 8051   5.451   1.781   3.883  1.0956 -1.7205  2.8020
   86SOPE  H14S 8052   5.336   1.714   4.006  0.8039  1.7027  0.9537
   86SOPE  C215 8053   5.313   1.928   3.954  0.8174  0.6311  0.2530
   86SOPE  H15R 8054   5.319   1.994   3.865  1.8556 -1.0230 -0.9859
   86SOPE  H15S 8055   5.394   1.969   4.018 -0.0238  2.2978  0.2703
   86SOPE  C216 8056   5.172   1.954   4.021 -0.4439  0.3091 -0.8622
   86SOPE  H16R 8057   5.176   1.892   4.113  0.4405 -2.4300 -2.5999
   86SOPE  H16S 8058   5.087   1.913   3.962 -0.9808  0.5477 -0.2716
   86SOPE  C217 8059   5.138   2.094   4.062  0.0201  0.1722  0.0257
   86SOPE  H17R 8060   5.042   2.086   4.118 -0.6245 -0.8286 -1.1798
   86SOPE  H17S 8061   5.120   2.169   3.981  0.4461  0.7717  0.4729
   86SOPE  C218 8062   5.248   2.160   4.150 -0.1716  0.2896 -0.5787
   86SOPE  H18R 8063   5.271   2.100   4.240  2.0375  4.9285  2.3800
   86SOPE  H18S 8064   5.210   2.255   4.194 -3.3275 -1.8723  1.8262
   86SOPE  H18T 8065   5.342   2.185   4.097  0.4759  0.1285  0.4837
   86SOPE   C33 8066   5.667   1.335   2.934  0.2746  0.6384  0.0946
   86SOPE   H3X 8067   5.578   1.402   2.944  0.0607  0.4285 -0.3650
   86SOPE   H3Y 8068   5.748   1.404   2.901 -2.9794  3.7713 -2.1594
   86SOPE   C34 8069   5.690   1.255   3.068 -0.0669  0.0178  0.5154
   86SOPE   H4X 8070   5.788   1.203   3.069  0.0282  0.1964  0.7707
   86SOPE   H4Y 8071   5.606   1.183   3.067 -0.3895  0.3403 -1.9272
   86SOPE   C35 8072   5.675   1.343   3.187  0.0136 -0.1802 -0.1006
   86SOPE   H5X 8073   5.582   1.402   3.172  0.1313  0.1045  0.2704
   86SOPE   H5Y 8074   5.758   1.417   3.184  1.5346 -1.5143  3.6681
   86SOPE   C36 8075   5.665   1.269   3.320  0.5821 -0.3853  0.3332
   86SOPE   H6X 8076   5.754   1.203   3.333  1.8895  1.0027 -1.0918
   86SOPE   H6Y 8077   5.578   1.201   3.320 -0.1345  0.5085  1.0669
   86SOPE   C37 8078   5.646   1.370   3.431 -0.0453  0.1285  1.2103
   86SOPE   H7X 8079   5.610   1.314   3.520 -0.0085 -1.6630  0.1438
   86SOPE   H7Y 8080   5.576   1.447   3.393  1.3676  2.0104  2.2298
   86SOPE   C38 8081   5.779   1.436   3.469 -0.4839  0.0110 -0.9942
   86SOPE   H8X 8082   5.756   1.509   3.549 -0.9211 -0.2771 -0.8501
   86SOPE   H8Y 8083   5.819   1.488   3.380  1.8275 -3.1556 -1.9819
   86SOPE   C39 8084   5.888   1.339   3.533 -0.5379  0.4874 -0.5805
   86SOPE   H9X 8085   5.937   1.274   3.458 -2.0703 -1.1951 -0.1759
   86SOPE   H9Y 8086   5.840   1.271   3.606  1.0394  1.5544  1.5626
   86SOPE  C310 8087   5.990   1.418   3.610 -0.6889 -0.3723 -0.0350
   86SOPE  H10X 8088   5.942   1.494   3.675 -0.6720 -0.3921  0.0006
   86SOPE  H10Y 8089   6.062   1.475   3.547  2.1975 -1.7639  1.7831
   86SOPE  C311 8090   6.083   1.328   3.700 -0.2050  0.0535  0.8505
   86SOPE  H11X 8091   6.163   1.398   3.732 -3.2531  2.2490  4.6788
   86SOPE  H11Y 8092   6.114   1.238   3.643  0.1332 -1.0060  2.6165
   86SOPE  C312 8093   6.018   1.277   3.825  0.1097  0.1537 -0.3384
   86SOPE  H12X 8094   5.938   1.208   3.793  0.4329  0.3096 -1.5183
   86SOPE  H12Y 8095   5.968   1.353   3.889  1.8314  1.8391 -0.8845
   86SOPE  C313 8096   6.109   1.203   3.919  0.1259 -0.5014 -0.2480
   86SOPE  H13X 8097   6.192   1.261   3.966  0.4891 -1.9751  0.9974
   86SOPE  H13Y 8098   6.153   1.114   3.868  0.1523 -0.7023  0.1249
   86SOPE  C314 8099   6.030   1.151   4.041  0.2747  0.4913 -0.0078
   86SOPE  H14X 8100   5.950   1.084   4.003  0.5746 -0.1171  0.4087
   86SOPE  H14Y 8101   5.987   1.232   4.104  2.3458  0.5632  1.4298
   86SOPE  C315 8102   6.121   1.074   4.140  0.5670  0.4947  0.2208
   86SOPE  H15X 8103   6.173   0.996   4.081  2.2051 -1.2541  3.6375
   86SOPE  H15Y 8104   6.061   1.031   4.223  0.1107  0.3066 -0.2009
   86SOPE  C316 8105   6.206   1.166   4.216  0.1710  0.2527  0.5488
   86SOPE  H16X 8106   6.143   1.235   4.276 -0.8870  0.7368 -1.0537
   86SOPE  H16Y 8107   6.269   1.227   4.148 -0.7770 -0.1823 -0.7649
   86SOPE  C317 8108   6.301   1.093   4.313  0.3127  0.9769  0.4901
   86SOPE  H17X 8109   6.247   1.015   4.371  1.7763  0.3298  1.0497
   86SOPE  H17Y 8110   6.336   1.161   4.393  0.5545  0.7013  0.6181
   86SOPE  C318 8111   6.424   1.013   4.251  0.2825  0.2712  0.2747
   86SOPE  H18X 8112   6.507   1.077   4.216 -0.1690  0.8766  0.2911
   86SOPE  H18Y 8113   6.398   0.950   4.164 -1.5708  1.1805  0.1121
   86SOPE  H18Z 8114   6.449   0.943   4.334 -0.4664  1.0296  1.1574
   87SOPE     N 8115   5.596   0.727   2.314 -0.6624 -0.0269 -0.5735
   87SOPE   HN1 8116   5.559   0.654   2.378 -0.2092  0.5749  0.3886
   87SOPE   HN2 8117   5.661   0.786   2.370 -2.3852  1.5513 -0.1547
   87SOPE   HN3 8118   5.515   0.785   2.284 -0.2045  0.4031 -1.0062
   87SOPE   C12 8119   5.656   0.655   2.196 -0.2376  0.8016  0.1934
   87SOPE  H12A 8120   5.717   0.739   2.155 -1.8564  1.3093 -1.2662
   87SOPE  H12B 8121   5.569   0.627   2.134 -0.1532 -0.4218  0.5911
   87SOPE   C11 8122   5.749   0.539   2.247  0.3119 -0.4293 -0.5865
   87SOPE  H11A 8123   5.765   0.477   2.156 -2.2254 -1.0804 -0.6645
   87SOPE  H11B 8124   5.699   0.475   2.323  0.1603 -1.6384 -1.6489
   87SOPE     P 8125   6.013   0.580   2.231  0.2150  0.4439  0.3163
   87SOPE   O13 8126   6.103   0.686   2.278 -0.2969 -0.3344 -0.3489
   87SOPE   O14 8127   5.987   0.565   2.084 -0.4948 -0.0166 -0.5863
   87SOPE   O12 8128   5.875   0.593   2.299  0.2488  0.3841  0.2174
   87SOPE   O11 8129   6.072   0.437   2.274  0.1002 -0.1935 -0.1554
   87SOPE    C1 8130   6.032   0.377   2.393 -0.4835  0.3916  0.0280
   87SOPE    HA 8131   6.059   0.270   2.376 -0.8759  0.6793 -2.8526
   87SOPE    HB 8132   5.921   0.384   2.401 -0.5803  0.0866 -0.9426
   87SOPE    C2 8133   6.105   0.422   2.517  0.1479 -0.0371  0.1279
   87SOPE    HS 8134   6.098   0.531   2.533  3.9459  0.2357  0.8759
   87SOPE   O21 8135   6.244   0.384   2.493  0.4329 -0.5807  0.1375
   87SOPE   C21 8136   6.346   0.460   2.542  0.3579  0.2135  0.3390
   87SOPE   O22 8137   6.330   0.568   2.590 -0.2330 -0.0709 -0.1015
   87SOPE   C22 8138   6.473   0.363   2.547 -0.8493  0.0908 -0.7769
   87SOPE   H2R 8139   6.507   0.369   2.441 -2.1692  2.4514 -1.1480
   87SOPE   H2S 8140   6.437   0.262   2.575 -0.8322  0.3783  0.3204
   87SOPE    C3 8141   6.044   0.354   2.643  0.2387 -0.4669  0.1188
   87SOPE    HX 8142   6.055   0.248   2.613  1.3191  0.2839 -2.4220
   87SOPE    HY 8143   5.933   0.363   2.650  0.2889 -0.5418  1.1993
   87SOPE   O31 8144   6.114   0.383   2.770 -0.9220  0.1867  0.1475
   87SOPE   C31 8145   6.075   0.491   2.830  0.0789  0.2236 -0.5077
   87SOPE   O32 8146   5.979   0.557   2.798 -0.0232  0.3914  0.2290
   87SOPE   C32 8147   6.170   0.540   2.946  0.4817 -0.2223 -0.5687
   87SOPE   H2X 8148   6.277   0.521   2.923  0.6117  0.0530 -0.1963
   87SOPE   H2Y 8149   6.150   0.484   3.040 -0.4355  1.7065  0.4398
   87SOPE   C23 8150   6.580   0.401   2.648  0.4536 -0.4166  0.5621
   87SOPE   H3R 8151   6.616   0.503   2.623 -2.4069  0.2497 -1.3461
   87SOPE   H3S 8152   6.667   0.336   2.628 -0.4075 -1.0946 -1.2583
   87SOPE   C24 8153   6.533   0.409   2.796 -0.0196  0.4732 -0.6334
   87SOPE   H4R 8154   6.447   0.479   2.807 -0.3844 -0.1702  0.8198
   87SOPE   H4S 8155   6.491   0.313   2.832 -0.3643  0.6799 -0.4828
   87SOPE   C25 8156   6.639   0.453   2.892 -0.1231 -0.6087 -0.8468
   87SOPE   H5R 8157   6.723   0.381   2.892  0.7007  0.1803  2.4876
   87SOPE   H5S 8158   6.676   0.549   2.851 -0.7537 -0.2093 -0.5067
   87SOPE   C26 8159   6.575   0.465   3.032 -1.0051  0.7682  0.2750
   87SOPE   H6R 8160   6.484   0.526   3.015 -1.5355 -0.2072 -0.5636
   87SOPE   H6S 8161   6.543   0.365   3.069  3.2882 -0.7962  0.4124
   87SOPE   C27 8162   6.655   0.530   3.146  0.8236  0.0199  0.0713
   87SOPE   H7R 8163   6.745   0.468   3.160  0.7118  0.1543  1.4946
   87SOPE   H7S 8164   6.697   0.630   3.122 -0.6939  0.1941 -2.1985
   87SOPE   C28 8165   6.580   0.541   3.275 -0.4372  0.1256  0.3494
   87SOPE   H8R 8166   6.474   0.570   3.258 -0.2461  0.5129 -0.1785
   87SOPE   H8S 8167   6.562   0.434   3.301  4.6018 -1.6659 -2.1589
   87SOPE   C29 8168   6.640   0.619   3.384  0.3442 -0.0064 -0.1667
   87SOPE   H91 8169   6.726   0.683   3.356 -0.0691  0.3206 -0.7139
   87SOPE  C210 8170   6.622   0.589   3.515 -0.0936 -0.2844 -0.4565
   87SOPE  H101 8171   6.671   0.657   3.587  1.5249 -1.0038 -0.8411
   87SOPE  C211 8172   6.528   0.488   3.580 -0.0552 -0.4131 -0.0615
   87SOPE  H11R 8173   6.472   0.449   3.493  2.1209 -2.1333 -0.7885
   87SOPE  H11S 8174   6.466   0.544   3.653  2.8567  0.6723  1.7651
   87SOPE  C212 8175   6.588   0.370   3.650  0.3303  0.0093  0.3064
   87SOPE  H12R 8176   6.669   0.325   3.588 -0.1747  1.0622 -1.1805
   87SOPE  H12S 8177   6.504   0.298   3.652  1.6255 -1.5367  0.1947
   87SOPE  C213 8178   6.638   0.409   3.792 -0.2861 -0.4501 -0.1599
   87SOPE  H13R 8179   6.567   0.468   3.853 -0.6655 -0.4105 -0.6395
   87SOPE  H13S 8180   6.726   0.472   3.769 -0.3514 -0.5035 -0.5640
   87SOPE  C214 8181   6.703   0.304   3.882  0.2339 -0.0705 -0.0580
   87SOPE  H14R 8182   6.630   0.227   3.915 -1.6446  1.8803  0.5496
   87SOPE  H14S 8183   6.755   0.350   3.969 -0.4318  1.6993 -0.5528
   87SOPE  C215 8184   6.823   0.236   3.815  0.6404 -0.1367 -0.5327
   87SOPE  H15R 8185   6.898   0.310   3.778 -0.9160  1.7231 -0.1547
   87SOPE  H15S 8186   6.790   0.186   3.722 -1.3024  1.0498 -0.5393
   87SOPE  C216 8187   6.874   0.117   3.901  0.2481 -2.0068  0.1835
   87SOPE  H16R 8188   6.786   0.050   3.917 -1.4357  0.4770  2.0412
   87SOPE  H16S 8189   6.905   0.157   4.000 -1.1911  0.2992 -0.2160
   87SOPE  C217 8190   6.985   0.033   3.831 -0.3926 -0.3049 -0.8105
   87SOPE  H17R 8191   7.078   0.093   3.824  1.2805 -2.5444  0.8001
   87SOPE  H17S 8192   6.949  -0.004   3.733 -3.3179  1.0632 -0.3710
   87SOPE  C218 8193   7.013  -0.086   3.925 -0.2328 -0.9417 -0.7078
   87SOPE  H18R 8194   6.926  -0.154   3.937 -0.8254 -0.0029  0.5112
   87SOPE  H18S 8195   7.056  -0.048   4.020  1.2709 -1.3327 -1.2123
   87SOPE  H18T 8196   7.097  -0.136   3.872  0.1140  0.1562 -1.2377
   87SOPE   C33 8197   6.157   0.693   2.962 -0.0685 -0.3908  0.4109
   87SOPE   H3X 8198   6.051   0.720   2.979 -0.8855 -1.4560 -2.4138
   87SOPE   H3Y 8199   6.179   0.742   2.864 -1.4288 -1.6602 -0.5794
   87SOPE   C34 8200   6.243   0.751   3.074 -0.2666 -0.8954  0.0132
   87SOPE   H4X 8201   6.238   0.861   3.061 -2.8139 -1.1217 -1.6017
   87SOPE   H4Y 8202   6.349   0.716   3.070  0.0443 -0.0094  0.2765
   87SOPE   C35 8203   6.195   0.725   3.216  0.2552  0.1033 -0.2807
   87SOPE   H5X 8204   6.196   0.615   3.232 -1.1350  0.2385  0.9137
   87SOPE   H5Y 8205   6.093   0.768   3.224  0.6484  1.0185 -0.0238
   87SOPE   C36 8206   6.296   0.791   3.314 -0.1101  0.4267  0.0233
   87SOPE   H6X 8207   6.301   0.899   3.286 -0.2800  0.3779 -0.2000
   87SOPE   H6Y 8208   6.403   0.769   3.296 -0.6347 -2.3735 -0.0367
   87SOPE   C37 8209   6.267   0.768   3.460  0.4244  0.0705 -0.1042
   87SOPE   H7X 8210   6.297   0.666   3.493  0.5750 -0.8105 -2.7231
   87SOPE   H7Y 8211   6.159   0.773   3.486  0.5929 -0.2721  0.7172
   87SOPE   C38 8212   6.345   0.868   3.549 -0.4203  0.0654 -0.2173
   87SOPE   H8X 8213   6.301   0.966   3.520 -1.4155  0.0125  1.0431
   87SOPE   H8Y 8214   6.452   0.868   3.519 -0.8849  1.9057 -2.1663
   87SOPE   C39 8215   6.339   0.828   3.697  0.5018 -0.4499 -0.3033
   87SOPE   H9X 8216   6.311   0.721   3.708  2.6676 -0.9886  0.4775
   87SOPE   H9Y 8217   6.259   0.893   3.737 -1.0979 -1.6086 -1.5018
   87SOPE  C310 8218   6.476   0.856   3.758 -0.6422 -0.3239  0.4009
   87SOPE  H10X 8219   6.494   0.965   3.751  2.0386 -0.7695 -0.9783
   87SOPE  H10Y 8220   6.545   0.800   3.691 -0.7315 -0.5710  0.5118
   87SOPE  C311 8221   6.495   0.790   3.899  0.4413  0.3644 -0.0558
   87SOPE  H11X 8222   6.496   0.681   3.881 -3.0394  0.0995  0.5670
   87SOPE  H11Y 8223   6.406   0.822   3.958  0.9941 -1.4163  1.8432
   87SOPE  C312 8224   6.628   0.817   3.965  0.5041  0.6613  0.1672
   87SOPE  H12X 8225   6.623   0.918   4.011  0.8396  1.2089 -0.9574
   87SOPE  H12Y 8226   6.708   0.813   3.888  1.4187 -1.4906  1.1290
   87SOPE  C313 8227   6.674   0.710   4.065  0.1933  0.2127 -0.3972
   87SOPE  H13X 8228   6.693   0.613   4.016  1.7414  0.1189  0.3195
   87SOPE  H13Y 8229   6.593   0.698   4.140  1.1801 -1.1888  0.4957
   87SOPE  C314 8230   6.802   0.761   4.127 -0.2150 -0.3074 -0.1250
   87SOPE  H14X 8231   6.779   0.844   4.197  0.6304 -0.6946  0.6337
   87SOPE  H14Y 8232   6.879   0.787   4.051  0.9856 -0.8928  0.8542
   87SOPE  C315 8233   6.861   0.654   4.213 -0.0622  0.4152 -0.4197
   87SOPE  H15X 8234   6.892   0.565   4.155 -1.2663  0.4278 -1.1133
   87SOPE  H15Y 8235   6.778   0.624   4.280 -0.2358  1.7206 -0.0230
   87SOPE  C316 8236   6.986   0.695   4.298  0.7080  0.2197  0.5607
   87SOPE  H16X 8237   6.975   0.780   4.369  2.1509  0.9990 -0.0936
   87SOPE  H16Y 8238   7.050   0.735   4.216 -1.3630 -0.8859 -1.7445
   87SOPE  C317 8239   7.067   0.576   4.354 -0.0582 -0.2476 -0.8647
   87SOPE  H17X 8240   7.174   0.605   4.348 -0.1512  0.6095  0.8462
   87SOPE  H17Y 8241   7.041   0.491   4.288 -1.6120  1.1811 -2.1889
   87SOPE  C318 8242   7.011   0.551   4.491 -0.5680 -0.0875  0.0466
   87SOPE  H18X 8243   7.035   0.449   4.527 -0.6299  0.7498  2.6692
   87SOPE  H18Y 8244   6.901   0.553   4.475 -0.4272  1.4522 -0.9705
   87SOPE  H18Z 8245   7.048   0.626   4.564  1.3264 -2.0107  1.1770
   88SOPE     N 8246   0.213   0.902   2.291  0.1211  1.0110 -0.5455
   88SOPE   HN1 8247   0.224   0.962   2.207  3.7072  1.5871  0.1852
   88SOPE   HN2 8248   0.112   0.890   2.315  0.3629 -2.9679 -0.8127
   88SOPE   HN3 8249   0.261   0.951   2.369  2.1365 -2.2868  0.5026
   88SOPE   C12 8250   0.270   0.763   2.279  0.2254  0.0323 -0.2768
   88SOPE  H12A 8251   0.212   0.715   2.198 -0.6983  1.4618 -0.5082
   88SOPE  H12B 8252   0.255   0.708   2.374  2.5787  0.8857  0.6671
   88SOPE   C11 8253   0.420   0.760   2.241  0.3040  0.1533 -0.5176
   88SOPE  H11A 8254   0.439   0.788   2.135  1.3945 -0.8843 -0.6150
   88SOPE  H11B 8255   0.447   0.653   2.253 -2.3916 -0.7066 -1.2888
   88SOPE     P 8256   0.566   0.975   2.273  0.1227  0.0386  0.5481
   88SOPE   O13 8257   0.459   1.077   2.255  0.5918  0.4831  0.5447
   88SOPE   O14 8258   0.650   0.936   2.160  0.3560 -0.0360 -0.2489
   88SOPE   O12 8259   0.503   0.840   2.329  0.0866  0.2348  1.0173
   88SOPE   O11 8260   0.655   1.025   2.393 -0.3252  0.1171  0.2930
   88SOPE    C1 8261   0.781   0.958   2.393 -0.2628 -0.4615  0.3637
   88SOPE    HA 8262   0.838   0.996   2.305 -3.5973  0.8844 -1.4129
   88SOPE    HB 8263   0.774   0.847   2.387 -2.1160 -0.3343 -0.5032
   88SOPE    C2 8264   0.866   0.986   2.524 -1.0876 -0.2804 -0.4896
   88SOPE    HS 8265   0.940   0.905   2.544  0.9413  1.3246 -1.1059
   88SOPE   O21 8266   0.779   1.011   2.637 -0.1912  0.0615  0.6575
   88SOPE   C21 8267   0.687   0.916   2.656 -0.2854 -0.9724  0.5891
   88SOPE   O22 8268   0.694   0.804   2.610  0.1272  0.2231  0.3154
   88SOPE   C22 8269   0.568   0.976   2.729  0.0436  0.4110 -0.2989
   88SOPE   H2R 8270   0.476   0.953   2.672  0.3231  0.3588 -0.7350
   88SOPE   H2S 8271   0.576   1.087   2.729  0.5708  0.3925  0.9430
   88SOPE    C3 8272   0.953   1.120   2.498 -0.3180 -0.1109  0.7396
   88SOPE    HX 8273   0.892   1.198   2.446 -0.7901 -1.1880 -0.3764
   88SOPE    HY 8274   1.040   1.086   2.438  0.7279  2.5089  0.6417
   88SOPE   O31 8275   1.010   1.182   2.618 -0.3827  0.4806  0.2467
   88SOPE   C31 8276   0.929   1.253   2.686  0.7013 -0.0585  0.0102
   88SOPE   O32 8277   0.813   1.284   2.665 -0.1479  0.6922 -0.6637
   88SOPE   C32 8278   0.998   1.276   2.821  0.3386 -0.3934  0.4668
   88SOPE   H2X 8279   1.082   1.347   2.804 -1.2462  1.1281 -1.6505
   88SOPE   H2Y 8280   1.029   1.174   2.853  0.5629 -0.1542  1.0142
   88SOPE   C23 8281   0.547   0.918   2.872 -0.3247 -0.1812 -0.8284
   88SOPE   H3R 8282   0.536   0.807   2.866  0.0418 -0.1886 -1.5403
   88SOPE   H3S 8283   0.456   0.955   2.923  0.9625 -0.9738  2.2514
   88SOPE   C24 8284   0.653   0.963   2.971  0.0207  0.5576 -0.3401
   88SOPE   H4R 8285   0.759   0.947   2.941  0.1741  2.3478 -0.8869
   88SOPE   H4S 8286   0.641   1.072   2.991  0.3636  0.3642  1.0387
   88SOPE   C25 8287   0.637   0.894   3.107 -0.7147  0.5684  0.6240
   88SOPE   H5R 8288   0.533   0.888   3.146 -0.4167 -3.3959  1.2000
   88SOPE   H5S 8289   0.659   0.788   3.085  0.4841  0.8491  0.4193
   88SOPE   C26 8290   0.732   0.943   3.217  0.0635  0.3585 -0.1401
   88SOPE   H6R 8291   0.725   0.866   3.297 -0.2006  2.3112  1.8219
   88SOPE   H6S 8292   0.832   0.951   3.171  0.7917  0.1115  1.3347
   88SOPE   C27 8293   0.690   1.079   3.272  0.3474 -0.0933  0.0473
   88SOPE   H7R 8294   0.693   1.149   3.186 -1.5952 -2.0031 -1.7419
   88SOPE   H7S 8295   0.584   1.076   3.304 -0.0643  0.1332 -1.2199
   88SOPE   C28 8296   0.775   1.132   3.387  0.1273  1.2933  0.4581
   88SOPE   H8R 8297   0.881   1.136   3.354 -0.1128 -0.0817 -0.6063
   88SOPE   H8S 8298   0.733   1.232   3.413  0.9501  1.7896 -0.0706
   88SOPE   C29 8299   0.770   1.038   3.507 -0.5741 -0.1096 -0.6426
   88SOPE   H91 8300   0.816   0.939   3.490 -3.3400 -1.7508  0.7299
   88SOPE  C210 8301   0.718   1.067   3.629 -0.8042  0.4402  0.2270
   88SOPE  H101 8302   0.711   0.995   3.712  1.7844  1.0002  1.0340
   88SOPE  C211 8303   0.662   1.200   3.665  0.7870  0.5690  0.0490
   88SOPE  H11R 8304   0.577   1.226   3.598  1.2649  3.9940  0.6132
   88SOPE  H11S 8305   0.741   1.277   3.653  2.4368 -0.9047  0.9062
   88SOPE  C212 8306   0.591   1.203   3.806  0.1603 -0.2152 -0.2438
   88SOPE  H12R 8307   0.513   1.124   3.810  0.8972 -0.9025  1.5445
   88SOPE  H12S 8308   0.538   1.300   3.820 -1.7683 -1.2533 -0.0077
   88SOPE  C213 8309   0.685   1.182   3.924 -0.7457  0.0233  0.2688
   88SOPE  H13R 8310   0.764   1.260   3.922 -1.3869  0.8248  2.4563
   88SOPE  H13S 8311   0.730   1.080   3.920 -2.3141 -0.9767  3.9603
   88SOPE  C214 8312   0.609   1.178   4.056 -0.1153  0.5098 -0.1912
   88SOPE  H14R 8313   0.533   1.097   4.049  0.1575  0.2884 -0.6481
   88SOPE  H14S 8314   0.558   1.276   4.066  0.6639  0.9420 -0.3812
   88SOPE  C215 8315   0.703   1.163   4.179 -0.1185 -0.1695  0.3559
   88SOPE  H15R 8316   0.639   1.170   4.269  2.3159 -0.8975  2.2797
   88SOPE  H15S 8317   0.776   1.247   4.171 -1.3843  0.8529 -0.7861
   88SOPE  C216 8318   0.773   1.029   4.186 -0.0045 -0.0644  0.4844
   88SOPE  H16R 8319   0.846   1.021   4.103 -0.7886  0.6815 -0.2936
   88SOPE  H16S 8320   0.696   0.951   4.170 -2.3313  1.8712  1.7077
   88SOPE  C217 8321   0.853   1.018   4.314 -0.3312  0.5204 -0.5426
   88SOPE  H17R 8322   0.799   1.031   4.410  2.5871  0.0918  1.3120
   88SOPE  H17S 8323   0.917   1.109   4.309 -3.1203  2.6335 -0.2671
   88SOPE  C218 8324   0.933   0.885   4.313  0.4360  0.4333 -0.0479
   88SOPE  H18R 8325   0.993   0.882   4.407  0.2208 -1.4342  0.0685
   88SOPE  H18S 8326   0.995   0.879   4.221 -1.4543  0.3111 -1.3754
   88SOPE  H18T 8327   0.872   0.792   4.308  0.4822  0.3877  0.2300
   88SOPE   C33 8328   0.901   1.339   2.920 -0.1514  1.0347  0.0303
   88SOPE   H3X 8329   0.799   1.296   2.927 -0.3600  1.5790  0.3560
   88SOPE   H3Y 8330   0.901   1.450   2.913  2.7617  1.2676  2.0075
   88SOPE   C34 8331   0.955   1.297   3.061 -0.3520  0.5188 -0.3764
   88SOPE   H4X 8332   0.946   1.187   3.058  0.4613  0.3473  1.6890
   88SOPE   H4Y 8333   0.881   1.340   3.132 -2.4615 -1.7850 -1.0654
   88SOPE   C35 8334   1.106   1.326   3.093  0.0362 -0.0490 -0.5002
   88SOPE   H5X 8335   1.135   1.433   3.087 -2.3409  0.6694 -0.2166
   88SOPE   H5Y 8336   1.170   1.275   3.017 -0.1108 -1.4980  0.3097
   88SOPE   C36 8337   1.144   1.267   3.227  0.3420 -0.0987  0.3901
   88SOPE   H6X 8338   1.254   1.285   3.234  0.1698  0.8603  0.9429
   88SOPE   H6Y 8339   1.116   1.160   3.229 -4.7015  0.9608  0.3279
   88SOPE   C37 8340   1.093   1.340   3.346 -0.8649  0.3548 -1.0772
   88SOPE   H7X 8341   0.984   1.324   3.358 -0.9511  1.2893 -0.5402
   88SOPE   H7Y 8342   1.120   1.447   3.334  0.2415  0.3764  1.2730
   88SOPE   C38 8343   1.162   1.273   3.464 -0.6619 -0.3653 -0.3840
   88SOPE   H8X 8344   1.272   1.266   3.454 -0.8157 -0.4591 -2.3920
   88SOPE   H8Y 8345   1.120   1.170   3.465 -1.8958  0.0019 -3.3637
   88SOPE   C39 8346   1.131   1.339   3.599  0.7800  0.0887 -0.1504
   88SOPE   H9X 8347   1.021   1.353   3.601  0.6033 -1.2294  1.2682
   88SOPE   H9Y 8348   1.181   1.438   3.609  1.0438  0.0865 -1.3639
   88SOPE  C310 8349   1.173   1.246   3.722  0.1566 -0.4867  0.1881
   88SOPE  H10X 8350   1.277   1.209   3.718  0.7885  0.6743  3.1688
   88SOPE  H10Y 8351   1.114   1.152   3.729 -0.2223 -0.2514  0.1768
   88SOPE  C311 8352   1.150   1.317   3.860  0.2955  0.4504  0.2497
   88SOPE  H11X 8353   1.041   1.338   3.859  0.1125 -0.3900  1.2806
   88SOPE  H11Y 8354   1.215   1.408   3.856  2.7467 -1.2346 -1.0618
   88SOPE  C312 8355   1.187   1.229   3.982  0.2320 -0.8182 -0.3056
   88SOPE  H12X 8356   1.293   1.196   3.974  0.4472 -0.6639  1.4427
   88SOPE  H12Y 8357   1.122   1.139   3.982 -2.6348  1.1363 -0.0917
   88SOPE  C313 8358   1.168   1.300   4.121  0.1296 -0.0098  0.3170
   88SOPE  H13X 8359   1.060   1.323   4.136  0.4660  2.3296 -0.5249
   88SOPE  H13Y 8360   1.219   1.398   4.128 -0.0249  0.0675  0.3732
   88SOPE  C314 8361   1.219   1.208   4.233  0.2981  0.1576 -0.7959
   88SOPE  H14X 8362   1.324   1.174   4.219  0.2393 -0.6868  0.5558
   88SOPE  H14Y 8363   1.150   1.121   4.231 -1.0164  1.1852 -1.7856
   88SOPE  C315 8364   1.197   1.265   4.372 -0.1022 -0.2822 -0.1106
   88SOPE  H15X 8365   1.087   1.277   4.386 -0.0531 -0.6257  0.6860
   88SOPE  H15Y 8366   1.251   1.362   4.369 -0.2281 -0.1962  0.3645
   88SOPE  C316 8367   1.243   1.178   4.490 -0.4957  0.0838  0.3532
   88SOPE  H16X 8368   1.348   1.206   4.510  0.5203 -2.2484 -1.3297
   88SOPE  H16Y 8369   1.245   1.069   4.469 -0.0932  0.0505  0.5669
   88SOPE  C317 8370   1.181   1.203   4.621 -0.1360 -0.4190 -0.5167
   88SOPE  H17X 8371   1.070   1.204   4.614 -0.5332  3.7005  2.4672
   88SOPE  H17Y 8372   1.211   1.307   4.648  1.0661 -0.7674 -0.4665
   88SOPE  C318 8373   1.220   1.112   4.732  0.0272 -0.0715 -0.2644
   88SOPE  H18X 8374   1.148   1.107   4.817 -0.3836 -0.4612 -0.6308
   88SOPE  H18Y 8375   1.317   1.143   4.776  0.4186 -2.5543  0.7706
   88SOPE  H18Z 8376   1.221   1.009   4.690 -2.2064  0.1310 -0.9869
   89SAPC     N 8377   4.388   3.115   6.756 -0.4372 -0.4275 -0.0605
   89SAPC   C12 8378   4.246   3.135   6.722  0.0372 -0.0092  0.3406
   89SAPC  H12A 8379   4.184   3.188   6.793 -0.0405  0.2490  0.0810
   89SAPC  H12B 8380   4.211   3.034   6.706 -0.8873  0.3242  0.2059
   89SAPC   C13 8381   4.402   3.023   6.870 -0.2207  0.6595  0.0123
   89SAPC  H13A 8382   4.379   3.069   6.965  0.0068 -2.4742  1.7413
   89SAPC  H13B 8383   4.345   2.932   6.857  1.5631 -0.5437  0.2611
   89SAPC  H13C 8384   4.504   2.994   6.888  0.1322  1.8588  0.0390
   89SAPC   C14 8385   4.469   3.069   6.636 -0.6524 -0.5000 -0.0641
   89SAPC  H14A 8386   4.467   3.139   6.554  3.3403 -0.7129 -0.5212
   89SAPC  H14B 8387   4.572   3.061   6.667 -1.0759 -0.3264  1.4657
   89SAPC  H14C 8388   4.443   2.968   6.608 -1.5517 -0.6587  1.2478
   89SAPC   C15 8389   4.435   3.246   6.804 -0.4242  0.1058  0.2527
   89SAPC  H15A 8390   4.452   3.322   6.729 -1.5937  1.6522  1.4837
   89SAPC  H15B 8391   4.361   3.291   6.869 -1.5946  1.0112 -1.6272
   89SAPC  H15C 8392   4.532   3.251   6.851 -0.1751  1.5996 -0.3505
   89SAPC   C11 8393   4.211   3.195   6.586  0.0463  0.4382 -0.0512
   89SAPC  H11A 8394   4.101   3.183   6.575  0.3294 -2.3633 -0.5181
   89SAPC  H11B 8395   4.258   3.129   6.510  1.5172  1.1912  0.1648
   89SAPC     P 8396   4.201   3.465   6.628 -0.0052 -0.2504 -0.2439
   89SAPC   O13 8397   4.129   3.431   6.756 -0.5076  0.1706  0.0811
   89SAPC   O14 8398   4.312   3.565   6.635  0.3962  0.0074 -0.3296
   89SAPC   O12 8399   4.258   3.335   6.573 -0.4500  0.6820 -0.1281
   89SAPC   O11 8400   4.097   3.514   6.522 -0.3641  0.4964 -0.3275
   89SAPC    C1 8401   4.023   3.435   6.429  0.0473  0.1212  0.3637
   89SAPC    HA 8402   4.023   3.326   6.451  1.4172  0.0676  0.1933
   89SAPC    HB 8403   3.920   3.476   6.438 -1.0307 -1.7702 -2.0095
   89SAPC    C2 8404   4.080   3.457   6.288 -0.3469  0.3288 -0.4412
   89SAPC    HS 8405   4.190   3.442   6.298 -0.4078 -1.1002 -1.6056
   89SAPC   O21 8406   4.055   3.592   6.252 -0.0462  0.4867  0.1343
   89SAPC   C21 8407   4.155   3.659   6.188  0.1690 -0.4850  0.1835
   89SAPC   O22 8408   4.265   3.613   6.158 -0.0619  0.4648 -0.0663
   89SAPC   C22 8409   4.113   3.795   6.138  0.2626 -0.4978 -0.2059
   89SAPC   H2R 8410   4.015   3.824   6.181 -0.3619  0.6908 -2.2997
   89SAPC   H2S 8411   4.197   3.863   6.166 -1.2339  1.5801 -0.4580
   89SAPC    C3 8412   4.017   3.358   6.184  0.0395  0.4500 -0.3468
   89SAPC    HX 8413   3.909   3.379   6.179 -0.2396 -1.1494 -2.8488
   89SAPC    HY 8414   4.037   3.253   6.213  0.1099 -0.6852 -4.0204
   89SAPC   O31 8415   4.068   3.387   6.052 -0.0872 -0.4192 -0.2667
   89SAPC   C31 8416   4.170   3.323   6.008 -0.3327 -0.6668  0.1965
   89SAPC   O32 8417   4.231   3.231   6.064  1.0310 -0.3518  0.1131
   89SAPC   C32 8418   4.196   3.366   5.864  0.9853 -0.4820 -0.5045
   89SAPC   H2X 8419   4.125   3.444   5.829  2.5854  1.5803  0.5848
   89SAPC   H2Y 8420   4.174   3.279   5.799  0.1808 -1.4980  1.0665
   89SAPC   C23 8421   4.110   3.791   5.982  0.3629 -0.1844 -0.3161
   89SAPC   H3R 8422   4.038   3.713   5.950 -0.7492  0.6260  0.1340
   89SAPC   H3S 8423   4.210   3.763   5.945  1.1146 -0.8779  2.0428
   89SAPC   C24 8424   4.063   3.923   5.922 -0.5637  0.4412  0.6153
   89SAPC   H4R 8425   4.119   4.010   5.965  0.7373 -0.4397  0.7494
   89SAPC   H4S 8426   3.958   3.938   5.955 -0.3053  0.2763  1.5512
   89SAPC   C25 8427   4.062   3.918   5.768 -0.0269  0.4407 -0.2619
   89SAPC   H5R 8428   3.981   3.855   5.728 -0.7048  0.5190  0.9339
   89SAPC   C26 8429   4.146   3.970   5.684  0.7060 -0.0303  0.1894
   89SAPC   H6R 8430   4.140   3.946   5.577  0.0754  2.0187 -0.2746
   89SAPC   C27 8431   4.250   4.068   5.724 -0.4254 -0.0963 -0.1410
   89SAPC   H7R 8432   4.220   4.138   5.805 -0.7105 -0.9204  0.4903
   89SAPC   H7S 8433   4.273   4.143   5.646  1.3167 -2.3666 -1.9530
   89SAPC   C28 8434   4.384   4.006   5.765  0.6616  0.5595  0.0258
   89SAPC   H8R 8435   4.396   4.026   5.873 -0.7638  1.0994  0.1034
   89SAPC   C29 8436   4.468   3.941   5.684 -0.0438  0.4111 -0.1644
   89SAPC   H9R 8437   4.562   3.906   5.729  0.4487  0.9016 -0.7969
   89SAPC  C210 8438   4.446   3.912   5.537  0.1808 -0.3441 -0.2886
   89SAPC  H10R 8439   4.516   3.978   5.482  0.6712  0.2608  1.0279
   89SAPC  H10S 8440   4.341   3.927   5.507  0.0382  0.0472  0.3995
   89SAPC  C211 8441   4.486   3.769   5.508 -0.0273  1.3142 -0.8482
   89SAPC  H11R 8442   4.464   3.699   5.589  0.2975  1.4073 -0.6766
   89SAPC  C212 8443   4.547   3.727   5.396 -0.2048  0.6929  0.6646
   89SAPC  H12R 8444   4.553   3.618   5.385 -1.4184  0.5111  1.5820
   89SAPC  C213 8445   4.590   3.813   5.276  0.2772 -1.0674  0.1338
   89SAPC  H13R 8446   4.683   3.868   5.302 -1.1638  0.9608  1.3023
   89SAPC  H13S 8447   4.499   3.873   5.254 -0.2031 -2.2701 -1.3788
   89SAPC  C214 8448   4.608   3.730   5.146 -0.3721  0.9375 -0.0000
   89SAPC  H14R 8449   4.608   3.621   5.162  1.9087  1.0407  1.0494
   89SAPC  C215 8450   4.608   3.759   5.021 -0.3386  0.0782  0.7887
   89SAPC  H15R 8451   4.637   3.685   4.946  2.1459  1.5668  0.1997
   89SAPC  C216 8452   4.586   3.900   4.967 -0.5468  0.0955 -0.1379
   89SAPC  H16R 8453   4.680   3.927   4.914 -0.0828 -1.1140  0.0124
   89SAPC  H16S 8454   4.582   3.973   5.051  2.0748 -1.0459  1.1181
   89SAPC  C217 8455   4.460   3.913   4.887  0.8455 -0.0018  0.8111
   89SAPC  H17R 8456   4.376   3.930   4.958  1.0206 -1.2163  1.3348
   89SAPC  H17S 8457   4.442   3.829   4.816  0.0318  0.8180  0.0103
   89SAPC  C218 8458   4.474   4.038   4.791  0.3830 -0.0312  0.2210
   89SAPC  H18R 8459   4.542   4.020   4.705 -1.3071 -1.6941 -0.8376
   89SAPC  H18S 8460   4.499   4.132   4.845 -1.7446  0.7856 -0.1229
   89SAPC  C219 8461   4.330   4.080   4.738 -0.8088 -0.4993 -0.2125
   89SAPC  H19R 8462   4.341   4.183   4.698  0.5667 -0.9349 -1.0660
   89SAPC  H19S 8463   4.256   4.065   4.819  1.4919 -1.2815  1.8858
   89SAPC  C220 8464   4.302   3.988   4.622  0.1152 -0.2816  0.0941
   89SAPC  H20R 8465   4.301   3.881   4.650  2.5817 -0.2206  0.6545
   89SAPC  H20S 8466   4.389   3.990   4.552  0.9632  0.4254  1.1373
   89SAPC  H20T 8467   4.200   4.017   4.587  0.3703  0.9116  0.2974
   89SAPC   C33 8468   4.339   3.404   5.838  1.0749  0.2150  0.7531
   89SAPC   H3X 8469   4.412   3.322   5.853 -0.6809 -2.3127 -2.9300
   89SAPC   H3Y 8470   4.365   3.497   5.892  0.3438  1.5225 -1.0279
   89SAPC   C34 8471   4.361   3.453   5.683 -0.7586  0.2037 -0.2078
   89SAPC   H4X 8472   4.465   3.488   5.668  0.3822 -1.9747  2.0085
   89SAPC   H4Y 8473   4.287   3.532   5.656 -0.7699  0.8633  1.6375
   89SAPC   C35 8474   4.330   3.341   5.586 -0.1063 -0.4302 -0.2979
   89SAPC   H5X 8475   4.220   3.324   5.578 -0.9414  4.2247 -2.1489
   89SAPC   H5Y 8476   4.405   3.260   5.599  2.7301  1.7118 -2.1256
   89SAPC   C36 8477   4.370   3.401   5.448 -0.9921  0.3234  0.2649
   89SAPC   H6X 8478   4.477   3.430   5.456 -1.3606  1.6579  0.5904
   89SAPC   H6Y 8479   4.323   3.500   5.428  1.1619  1.2573 -0.4064
   89SAPC   C37 8480   4.362   3.298   5.331 -0.1754  0.1944 -0.1695
   89SAPC   H7X 8481   4.261   3.259   5.307 -0.2509  0.6771 -0.6478
   89SAPC   H7Y 8482   4.424   3.208   5.355 -0.8535  0.0618  1.1467
   89SAPC   C38 8483   4.407   3.362   5.196  0.5015 -0.0315 -0.1594
   89SAPC   H8X 8484   4.502   3.419   5.203  0.0384  0.7569 -0.2257
   89SAPC   H8Y 8485   4.334   3.442   5.172  1.5749  1.1591  0.4379
   89SAPC   C39 8486   4.400   3.259   5.073  0.7221 -0.1521  0.2764
   89SAPC   H9X 8487   4.297   3.217   5.080 -0.9759  3.6407  0.6371
   89SAPC   H9Y 8488   4.487   3.190   5.083 -0.4529 -1.7372  0.0066
   89SAPC  C310 8489   4.408   3.344   4.947 -0.2609 -0.3031  0.1136
   89SAPC  H10X 8490   4.487   3.422   4.955 -0.1640 -0.5169  1.5033
   89SAPC  H10Y 8491   4.313   3.398   4.928 -0.2043 -0.7357 -1.4979
   89SAPC  C311 8492   4.450   3.259   4.831 -0.3447  0.0655 -0.0750
   89SAPC  H11X 8493   4.375   3.177   4.839 -0.9124  0.4932 -0.8395
   89SAPC  H11Y 8494   4.551   3.225   4.860 -0.7543  0.0531  1.4255
   89SAPC  C312 8495   4.438   3.311   4.690  0.6462 -0.5027 -0.2266
   89SAPC  H12X 8496   4.334   3.324   4.656 -0.4524  0.1562  3.0170
   89SAPC  H12Y 8497   4.499   3.235   4.637 -0.4744 -1.8350  0.3309
   89SAPC  C313 8498   4.532   3.437   4.675  0.6167 -0.7157 -0.6256
   89SAPC  H13X 8499   4.636   3.397   4.675  0.2097 -1.9970  1.9397
   89SAPC  H13Y 8500   4.536   3.490   4.772  0.9997 -1.9934  0.0785
   89SAPC  C314 8501   4.540   3.515   4.539 -0.0766 -0.4062  0.7152
   89SAPC  H14X 8502   4.629   3.578   4.516 -0.4988 -0.5468 -1.5345
   89SAPC  H14Y 8503   4.452   3.583   4.542  0.9566  0.9525  2.4233
   89SAPC  C315 8504   4.512   3.429   4.421 -0.3006  0.4758 -0.0239
   89SAPC  H15X 8505   4.404   3.401   4.424 -0.2338  0.3048  1.0203
   89SAPC  H15Y 8506   4.573   3.341   4.448 -1.8340  0.3117  3.4900
   89SAPC  C316 8507   4.558   3.486   4.286 -0.5871 -0.0610  0.1948
   89SAPC  H16X 8508   4.661   3.529   4.293 -0.4859 -0.4440  1.3768
   89SAPC  H16Y 8509   4.488   3.572   4.275 -0.5390 -0.1613 -0.9904
   89SAPC  C317 8510   4.558   3.395   4.166 -0.3537  0.5327 -0.1325
   89SAPC  H17X 8511   4.592   3.453   4.078  1.4279  0.9937  0.8195
   89SAPC  H17Y 8512   4.451   3.365   4.154 -0.5695  2.1475 -3.6439
   89SAPC  C318 8513   4.639   3.266   4.178 -0.2116 -0.5649 -0.4616
   89SAPC  H18X 8514   4.580   3.197   4.242 -3.0650  3.4474  1.6933
   89SAPC  H18Y 8515   4.733   3.279   4.236 -0.6699 -1.0667  0.4211
   89SAPC  H18Z 8516   4.660   3.216   4.081 -1.9401  0.6013 -1.4840
   90SAPC     N 8517   1.883   0.244   6.676  0.0752 -0.1418  1.1722
   90SAPC   C12 8518   1.955   0.230   6.540  0.3576  0.2723 -0.5565
   90SAPC  H12A 8519   1.910   0.143   6.494 -1.0957 -0.0052  1.2915
   90SAPC  H12B 8520   2.058   0.205   6.561 -0.6406 -1.0639  3.6428
   90SAPC   C13 8521   1.737   0.255   6.661 -0.5626  0.3340  0.3134
   90SAPC  H13A 8522   1.687   0.169   6.620 -1.8606  2.0425 -1.9084
   90SAPC  H13B 8523   1.691   0.302   6.747  1.1296  3.2152 -0.2213
   90SAPC  H13C 8524   1.713   0.320   6.578  0.2276 -2.7593 -2.5251
   90SAPC   C14 8525   1.924   0.126   6.760 -0.1707 -0.2671  0.1318
   90SAPC  H14A 8526   1.870   0.129   6.854 -0.8155  1.6613 -0.2450
   90SAPC  H14B 8527   1.915   0.032   6.709 -1.7058  0.1691 -0.4689
   90SAPC  H14C 8528   2.031   0.133   6.769  0.1744 -3.3687 -0.7210
   90SAPC   C15 8529   1.932   0.373   6.738 -0.0138  0.4949  0.4973
   90SAPC  H15A 8530   1.877   0.387   6.830  0.2567 -1.8736  1.0829
   90SAPC  H15B 8531   2.035   0.365   6.772 -0.0802 -1.3880  0.3978
   90SAPC  H15C 8532   1.912   0.454   6.670  0.3621 -0.7227 -1.1130
   90SAPC   C11 8533   1.947   0.355   6.452 -0.0973  0.0029 -0.2665
   90SAPC  H11A 8534   2.011   0.332   6.364 -1.7178 -0.9447 -1.2504
   90SAPC  H11B 8535   1.992   0.440   6.507 -0.3785 -0.7757  1.1975
   90SAPC     P 8536   1.735   0.282   6.316 -0.2140  0.0249 -0.2038
   90SAPC   O13 8537   1.770   0.139   6.344 -0.3620 -0.3496 -0.1414
   90SAPC   O14 8538   1.599   0.324   6.322 -0.2887  0.6405 -0.4958
   90SAPC   O12 8539   1.814   0.388   6.409 -0.4076 -0.5945 -0.6341
   90SAPC   O11 8540   1.789   0.316   6.171  0.0747 -0.6097 -0.4558
   90SAPC    C1 8541   1.798   0.447   6.119 -0.3281  0.6537  0.0431
   90SAPC    HA 8542   1.706   0.505   6.141 -1.1167 -0.0848 -1.1805
   90SAPC    HB 8543   1.878   0.497   6.178 -1.4110  2.3670  0.1449
   90SAPC    C2 8544   1.821   0.443   5.963  0.4211 -0.7023 -0.4448
   90SAPC    HS 8545   1.875   0.533   5.928  1.9151 -0.1574  2.8291
   90SAPC   O21 8546   1.692   0.417   5.906  0.2854 -0.3606  0.6310
   90SAPC   C21 8547   1.631   0.519   5.842  0.0831  0.4843  0.4106
   90SAPC   O22 8548   1.675   0.628   5.816  0.5566  0.1266 -0.1574
   90SAPC   C22 8549   1.483   0.483   5.819 -0.1620 -0.2773  0.2375
   90SAPC   H2R 8550   1.477   0.372   5.828 -1.7530 -0.2722 -0.4869
   90SAPC   H2S 8551   1.427   0.541   5.895  0.4240  0.6827 -0.0420
   90SAPC    C3 8552   1.912   0.327   5.934  0.3033  0.3562 -0.3832
   90SAPC    HX 8553   1.880   0.227   5.971  2.1180 -0.7583 -1.6638
   90SAPC    HY 8554   2.009   0.353   5.980  2.5578  2.1140 -5.3910
   90SAPC   O31 8555   1.931   0.303   5.796 -0.2403 -0.2023 -0.9009
   90SAPC   C31 8556   2.026   0.382   5.740  0.1993 -0.1140 -0.1027
   90SAPC   O32 8557   2.090   0.470   5.794  0.2819 -0.1944 -0.0597
   90SAPC   C32 8558   2.041   0.348   5.590 -0.8009  0.5461  0.5458
   90SAPC   H2X 8559   2.130   0.403   5.553  0.1727 -0.5388  1.2030
   90SAPC   H2Y 8560   1.944   0.385   5.549 -1.2046  1.8803  2.5612
   90SAPC   C23 8561   1.433   0.506   5.671 -0.0241 -0.0220  0.6107
   90SAPC   H3R 8562   1.466   0.606   5.636  0.6821 -0.7147 -0.8052
   90SAPC   H3S 8563   1.322   0.497   5.679  0.1568 -1.3435  2.0594
   90SAPC   C24 8564   1.490   0.396   5.585  0.4774  0.0149  0.0395
   90SAPC   H4R 8565   1.450   0.295   5.607 -0.0396 -0.0044 -0.9332
   90SAPC   H4S 8566   1.597   0.383   5.612  0.2139 -0.7501  0.7293
   90SAPC   C25 8567   1.481   0.426   5.441  0.3890  0.5293  0.3192
   90SAPC   H5R 8568   1.430   0.517   5.408  0.1091  0.7779  1.3837
   90SAPC   C26 8569   1.530   0.341   5.339  0.5997 -0.0661 -0.0172
   90SAPC   H6R 8570   1.521   0.376   5.235 -0.0341 -0.0674  0.0318
   90SAPC   C27 8571   1.597   0.203   5.340 -0.7469  0.1920 -0.0299
   90SAPC   H7R 8572   1.519   0.124   5.351 -1.0807  0.3553 -1.0953
   90SAPC   H7S 8573   1.670   0.186   5.422 -0.0543  0.6519 -0.5405
   90SAPC   C28 8574   1.682   0.182   5.213  0.6493 -0.2383 -0.0776
   90SAPC   H8R 8575   1.784   0.144   5.225  0.5377 -0.1614  1.3969
   90SAPC   C29 8576   1.631   0.154   5.091 -0.3765  0.6626 -1.1431
   90SAPC   H9R 8577   1.702   0.137   5.008  0.9955 -0.3821  0.1923
   90SAPC  C210 8578   1.488   0.150   5.053  0.7692 -0.4383  0.0498
   90SAPC  H10R 8579   1.461   0.229   4.979 -2.8607 -0.6030  0.9914
   90SAPC  H10S 8580   1.437   0.180   5.148 -0.7936 -1.1128 -0.5419
   90SAPC  C211 8581   1.433   0.013   5.018  0.1121 -0.3698 -0.2024
   90SAPC  H11R 8582   1.424  -0.054   5.105  2.4456 -1.4304 -0.6811
   90SAPC  C212 8583   1.415  -0.039   4.893 -0.2345  0.3041  0.2473
   90SAPC  H12R 8584   1.393  -0.145   4.875  0.6058  0.0143  0.8517
   90SAPC  C213 8585   1.431   0.031   4.761 -0.1424 -0.7082  0.2431
   90SAPC  H13R 8586   1.482  -0.038   4.690 -2.5879 -1.9549 -0.4172
   90SAPC  H13S 8587   1.498   0.118   4.771  1.4726 -1.8630 -0.1846
   90SAPC  C214 8588   1.297   0.073   4.696  0.5019 -0.3757 -0.1279
   90SAPC  H14R 8589   1.227   0.114   4.770 -0.2223 -1.1363 -0.3865
   90SAPC  C215 8590   1.255   0.051   4.571 -0.9005  0.0786 -0.4471
   90SAPC  H15R 8591   1.161   0.098   4.537 -0.5386  0.5048 -0.8681
   90SAPC  C216 8592   1.326  -0.019   4.460  0.6182  0.7741  0.0155
   90SAPC  H16R 8593   1.253  -0.081   4.405  1.1671 -0.7915  0.9882
   90SAPC  H16S 8594   1.379  -0.110   4.496 -3.6872 -1.9930  0.0009
   90SAPC  C217 8595   1.415   0.079   4.380  0.2107 -0.7933 -0.3430
   90SAPC  H17R 8596   1.371   0.181   4.374 -0.2796 -1.0122 -0.4670
   90SAPC  H17S 8597   1.430   0.036   4.279  3.2418  0.6721 -0.6356
   90SAPC  C218 8598   1.558   0.102   4.443 -0.2011 -0.2520 -0.8958
   90SAPC  H18R 8599   1.618   0.009   4.452 -0.0257  0.0297  1.9511
   90SAPC  H18S 8600   1.542   0.142   4.546  2.1912  1.7119 -1.1872
   90SAPC  C219 8601   1.639   0.208   4.364  0.1913  0.1853  0.4830
   90SAPC  H19R 8602   1.605   0.313   4.375  0.2878  0.3399 -0.5566
   90SAPC  H19S 8603   1.624   0.183   4.257 -2.5318  0.8346  0.6400
   90SAPC  C220 8604   1.783   0.207   4.408 -0.3934  0.3555  0.0601
   90SAPC  H20R 8605   1.835   0.293   4.360 -1.7440 -1.0606 -4.4335
   90SAPC  H20S 8606   1.826   0.107   4.386 -1.7964  0.1216 -1.8881
   90SAPC  H20T 8607   1.786   0.220   4.518 -1.1732 -1.6315  0.3614
   90SAPC   C33 8608   2.055   0.196   5.567 -0.0435  0.0503  0.0823
   90SAPC   H3X 8609   1.986   0.146   5.638  0.5577 -1.6091 -0.4698
   90SAPC   H3Y 8610   2.151   0.162   5.610  1.3715  0.4829 -2.5472
   90SAPC   C34 8611   2.025   0.142   5.432  0.9374 -0.2440  0.0350
   90SAPC   H4X 8612   1.929   0.191   5.402  0.4536 -0.6328  0.9132
   90SAPC   H4Y 8613   2.002   0.034   5.435  0.8260 -0.2376 -0.4729
   90SAPC   C35 8614   2.128   0.173   5.325 -0.3042 -0.6747 -0.0111
   90SAPC   H5X 8615   2.233   0.142   5.345  0.3236  0.6867 -1.0182
   90SAPC   H5Y 8616   2.131   0.284   5.318 -1.9951 -0.6119 -0.0500
   90SAPC   C36 8617   2.096   0.112   5.188  0.2318 -0.0251 -0.3874
   90SAPC   H6X 8618   1.991   0.139   5.165  0.2797 -0.0268 -0.6139
   90SAPC   H6Y 8619   2.102   0.002   5.182  0.2373  0.0669 -3.1114
   90SAPC   C37 8620   2.191   0.169   5.074 -0.2827 -0.8940  0.5622
   90SAPC   H7X 8621   2.171   0.116   4.979 -0.1204  0.0392 -0.0026
   90SAPC   H7Y 8622   2.297   0.156   5.105  0.7397  2.2554 -1.2037
   90SAPC   C38 8623   2.172   0.315   5.053 -0.0405  0.3170  0.2407
   90SAPC   H8X 8624   2.251   0.362   5.115  0.7165 -0.9438  0.2487
   90SAPC   H8Y 8625   2.065   0.339   5.071 -0.4516  0.0794 -1.6330
   90SAPC   C39 8626   2.210   0.359   4.914  0.5733 -0.6327  0.2712
   90SAPC   H9X 8627   2.132   0.319   4.845  0.8610  0.6755 -0.8609
   90SAPC   H9Y 8628   2.310   0.322   4.882  0.8746 -0.8350  1.4105
   90SAPC  C310 8629   2.218   0.510   4.900 -0.4274 -0.5035 -0.2880
   90SAPC  H10X 8630   2.316   0.542   4.941  0.0570 -1.6497 -0.5054
   90SAPC  H10Y 8631   2.142   0.546   4.973  0.2550 -1.3664  0.8992
   90SAPC  C311 8632   2.193   0.560   4.755 -0.5937  0.0405  0.3420
   90SAPC  H11X 8633   2.185   0.671   4.753  0.4539  0.1195 -0.2519
   90SAPC  H11Y 8634   2.109   0.507   4.706 -2.1798  3.2543 -0.6372
   90SAPC  C312 8635   2.317   0.525   4.666 -0.0196 -0.2191  0.1183
   90SAPC  H12X 8636   2.341   0.417   4.665 -0.7215 -0.3925  0.7959
   90SAPC  H12Y 8637   2.409   0.578   4.700 -0.4772  2.5426 -2.5700
   90SAPC  C313 8638   2.292   0.562   4.518 -0.5439  0.2570  0.2185
   90SAPC  H13X 8639   2.244   0.468   4.482  1.0624 -1.1378  1.5676
   90SAPC  H13Y 8640   2.393   0.565   4.474 -1.0830 -1.2073 -1.1841
   90SAPC  C314 8641   2.225   0.703   4.484 -0.2525 -0.0529  0.0454
   90SAPC  H14X 8642   2.280   0.780   4.542 -0.4637  0.0648  0.0890
   90SAPC  H14Y 8643   2.120   0.713   4.518  0.0078  2.8147  0.2198
   90SAPC  C315 8644   2.228   0.744   4.336  0.0133  0.2454 -1.0124
   90SAPC  H15X 8645   2.167   0.672   4.276  0.0173  1.8419 -3.0537
   90SAPC  H15Y 8646   2.330   0.723   4.297 -0.7292 -2.7050 -1.6161
   90SAPC  C316 8647   2.180   0.893   4.311 -0.3680  0.2362 -0.4115
   90SAPC  H16X 8648   2.091   0.917   4.374 -0.2913  0.4137 -0.3689
   90SAPC  H16Y 8649   2.151   0.904   4.204 -2.4014 -1.5071 -0.1038
   90SAPC  C317 8650   2.291   0.993   4.335  0.4205 -0.5130 -0.3282
   90SAPC  H17X 8651   2.382   0.974   4.274 -0.3364 -1.1115 -1.3060
   90SAPC  H17Y 8652   2.317   0.987   4.443  0.3363 -0.4881 -0.3063
   90SAPC  C318 8653   2.248   1.131   4.301 -0.3420  0.5526  0.1694
   90SAPC  H18X 8654   2.151   1.165   4.343 -1.5845 -0.5943 -1.6409
   90SAPC  H18Y 8655   2.233   1.139   4.192 -1.7846  2.0049  0.4360
   90SAPC  H18Z 8656   2.324   1.204   4.337 -0.8556  1.0754  0.1986
   91SAPC     N 8657   5.208   1.024   6.774 -0.9585  0.5847 -0.6233
   91SAPC   C12 8658   5.254   1.019   6.628 -0.6848  0.1988 -0.1555
   91SAPC  H12A 8659   5.318   1.104   6.606 -0.5610 -0.4234 -2.3873
   91SAPC  H12B 8660   5.165   1.026   6.568 -0.9386  2.1248  0.3865
   91SAPC   C13 8661   5.105   1.130   6.794 -0.1692  0.0602  0.6395
   91SAPC  H13A 8662   5.025   1.119   6.722  0.6861 -0.3601 -0.2515
   91SAPC  H13B 8663   5.056   1.125   6.890  0.5680 -0.4855  0.9975
   91SAPC  H13C 8664   5.142   1.230   6.780  1.2464 -0.4990  0.2034
   91SAPC   C14 8665   5.145   0.895   6.815 -0.7757 -0.1059  0.1076
   91SAPC  H14A 8666   5.129   0.889   6.922 -2.1555 -0.5321 -0.0994
   91SAPC  H14B 8667   5.054   0.871   6.763 -0.2264  0.8743 -1.3640
   91SAPC  H14C 8668   5.219   0.821   6.788  2.5617  2.5630  1.2196
   91SAPC   C15 8669   5.322   1.046   6.874 -0.5378 -0.0543 -0.0349
   91SAPC  H15A 8670   5.367   1.141   6.851 -0.3099 -0.1636 -0.0484
   91SAPC  H15B 8671   5.293   1.051   6.977  0.8675  0.8534  0.3462
   91SAPC  H15C 8672   5.393   0.965   6.866 -0.9480 -0.5052  0.8341
   91SAPC   C11 8673   5.341   0.897   6.588  0.1297 -0.1686 -0.4366
   91SAPC  H11A 8674   5.366   0.906   6.481  0.7488  0.4934 -0.2394
   91SAPC  H11B 8675   5.291   0.797   6.587  0.9111 -0.5868  0.5609
   91SAPC     P 8676   5.585   0.976   6.621 -0.5743  0.4185  0.5217
   91SAPC   O13 8677   5.553   1.118   6.630 -0.4278  0.1302 -0.0205
   91SAPC   O14 8678   5.706   0.938   6.699  0.2505  0.9223  0.5631
   91SAPC   O12 8679   5.459   0.885   6.658  0.3811 -0.6052  0.6125
   91SAPC   O11 8680   5.618   0.950   6.467 -0.3471 -0.1995 -0.3638
   91SAPC    C1 8681   5.702   0.834   6.435 -0.1617 -0.0819  0.3761
   91SAPC    HA 8682   5.804   0.877   6.445 -0.8176  2.1044 -1.5116
   91SAPC    HB 8683   5.688   0.750   6.506  2.7539  0.1678  1.3899
   91SAPC    C2 8684   5.687   0.793   6.285  0.1716  0.6107 -0.5556
   91SAPC    HS 8685   5.767   0.719   6.263 -0.4297 -0.4641  0.7144
   91SAPC   O21 8686   5.675   0.898   6.189  0.4492  0.1389  0.7162
   91SAPC   C21 8687   5.768   0.988   6.191 -0.1608 -0.2600  0.5425
   91SAPC   O22 8688   5.879   0.968   6.230  0.3748  0.3009 -0.9150
   91SAPC   C22 8689   5.720   1.121   6.136  0.2713  1.0656  0.6895
   91SAPC   H2R 8690   5.634   1.162   6.193 -0.4567  1.9557 -0.9546
   91SAPC   H2S 8691   5.803   1.195   6.146  4.1609 -2.7098 -0.5211
   91SAPC    C3 8692   5.559   0.707   6.270 -0.6197 -0.2305  0.1767
   91SAPC    HX 8693   5.464   0.765   6.262  0.4588  1.3478 -2.8226
   91SAPC    HY 8694   5.539   0.632   6.349 -1.1236 -2.6818 -2.1609
   91SAPC   O31 8695   5.571   0.636   6.146  0.3492  0.3668 -0.6145
   91SAPC   C31 8696   5.629   0.514   6.153 -0.2076 -0.2157 -0.1188
   91SAPC   O32 8697   5.680   0.472   6.252 -0.3609  0.0394 -0.4494
   91SAPC   C32 8698   5.623   0.442   6.015 -0.8441  0.3393 -0.3005
   91SAPC   H2X 8699   5.530   0.471   5.961  0.1908  2.7274 -0.9561
   91SAPC   H2Y 8700   5.627   0.333   6.036 -0.3051  0.5267  0.6236
   91SAPC   C23 8701   5.679   1.127   5.983 -0.8885  0.2327  0.2013
   91SAPC   H3R 8702   5.654   1.234   5.966  2.2246  1.2494  1.4442
   91SAPC   H3S 8703   5.584   1.070   5.971 -2.9033  3.1033  1.2901
   91SAPC   C24 8704   5.785   1.082   5.884  0.0790  0.0200 -0.2462
   91SAPC   H4R 8705   5.735   1.069   5.785  1.0404 -2.8930 -0.4516
   91SAPC   H4S 8706   5.822   0.978   5.899 -0.0337 -0.1158 -0.8792
   91SAPC   C25 8707   5.903   1.169   5.876 -0.1335  0.0769  0.5073
   91SAPC   H5R 8708   5.957   1.192   5.969  3.5694 -1.3629 -1.0748
   91SAPC   C26 8709   5.948   1.238   5.770  0.1946 -0.1765  0.7702
   91SAPC   H6R 8710   6.030   1.308   5.793  0.1134 -0.6969  2.8641
   91SAPC   C27 8711   5.897   1.243   5.628  1.2528 -0.7244  0.0717
   91SAPC   H7R 8712   5.869   1.144   5.586  1.2237 -1.1018  0.9792
   91SAPC   H7S 8713   5.981   1.279   5.565  0.6816  0.7940  0.1357
   91SAPC   C28 8714   5.795   1.343   5.598  0.1981 -0.6013  0.2478
   91SAPC   H8R 8715   5.795   1.431   5.664 -0.9973 -0.6558  0.3363
   91SAPC   C29 8716   5.699   1.328   5.503  0.1656 -0.0747  0.4966
   91SAPC   H9R 8717   5.622   1.405   5.487 -1.9009 -2.0838  0.2531
   91SAPC  C210 8718   5.690   1.222   5.396 -0.1260 -1.1338  0.1545
   91SAPC  H10R 8719   5.604   1.154   5.418 -2.0226  0.8206 -0.8384
   91SAPC  H10S 8720   5.791   1.175   5.398  0.4502 -0.0096 -1.1670
   91SAPC  C211 8721   5.671   1.294   5.262  0.7229 -0.5049 -0.4470
   91SAPC  H11R 8722   5.579   1.354   5.255  0.0359 -1.5620 -0.7092
   91SAPC  C212 8723   5.741   1.275   5.152 -0.3672  0.2210  0.0813
   91SAPC  H12R 8724   5.713   1.317   5.054  0.6989 -1.0283 -0.7868
   91SAPC  C213 8725   5.855   1.189   5.124  0.2824  0.6161  0.3062
   91SAPC  H13R 8726   5.832   1.118   5.042  0.6010 -4.6916  4.2565
   91SAPC  H13S 8727   5.873   1.120   5.210 -0.0790  0.6456  0.4059
   91SAPC  C214 8728   5.977   1.261   5.078 -0.0145  0.4626 -0.1604
   91SAPC  H14R 8729   5.998   1.231   4.974  0.9026 -0.3233  0.2336
   91SAPC  C215 8730   6.047   1.359   5.136 -0.3634  0.9767  0.3950
   91SAPC  H15R 8731   6.137   1.398   5.087  0.9970 -0.9885  1.1943
   91SAPC  C216 8732   6.039   1.410   5.278  0.2243  0.7034  1.0405
   91SAPC  H16R 8733   5.954   1.363   5.331 -0.2238 -0.3890 -0.5695
   91SAPC  H16S 8734   6.021   1.520   5.276 -0.5873  0.5729 -0.9736
   91SAPC  C217 8735   6.162   1.373   5.358  0.3416 -0.1859  0.3482
   91SAPC  H17R 8736   6.175   1.263   5.355  1.8215 -0.0980 -4.2243
   91SAPC  H17S 8737   6.131   1.412   5.458 -0.4898  2.2139 -0.7754
   91SAPC  C218 8738   6.289   1.443   5.304 -0.2183 -0.1616 -0.1947
   91SAPC  H18R 8739   6.270   1.550   5.277 -0.2152  0.0134  0.4861
   91SAPC  H18S 8740   6.314   1.377   5.218 -0.1612 -0.6807  0.2180
   91SAPC  C219 8741   6.395   1.422   5.411  0.8704 -0.1649  0.2861
   91SAPC  H19R 8742   6.411   1.313   5.429  1.9519 -0.6165 -2.7992
   91SAPC  H19S 8743   6.365   1.458   5.512 -1.0086 -1.6762  0.3195
   91SAPC  C220 8744   6.522   1.494   5.379 -0.1442  0.3575  0.1333
   91SAPC  H20R 8745   6.515   1.605   5.374  1.2326  0.5016  1.0498
   91SAPC  H20S 8746   6.560   1.442   5.288  0.8677  0.4828  0.4716
   91SAPC  H20T 8747   6.594   1.480   5.462  0.8189 -2.7986 -1.0855
   91SAPC   C33 8748   5.744   0.475   5.927 -0.3554  0.1479 -0.5033
   91SAPC   H3X 8749   5.838   0.436   5.970 -0.3024 -1.9799 -2.3677
   91SAPC   H3Y 8750   5.747   0.585   5.910 -1.7223  0.5570  1.5346
   91SAPC   C34 8751   5.734   0.416   5.784 -0.0885  0.1699  0.6769
   91SAPC   H4X 8752   5.682   0.486   5.716 -2.5781 -0.9972  1.2495
   91SAPC   H4Y 8753   5.691   0.315   5.803  0.6014  0.0333  1.5899
   91SAPC   C35 8754   5.872   0.373   5.725  0.2859  0.4988  0.0840
   91SAPC   H5X 8755   5.914   0.286   5.780 -0.8028  0.2944  0.6213
   91SAPC   H5Y 8756   5.944   0.457   5.725  0.4776  0.3404  0.6455
   91SAPC   C36 8757   5.862   0.335   5.571 -0.2924 -0.0779 -1.0149
   91SAPC   H6X 8758   5.814   0.421   5.520  1.1554  1.5949  0.3203
   91SAPC   H6Y 8759   5.788   0.254   5.550 -0.2468 -0.7446  1.1342
   91SAPC   C37 8760   5.989   0.299   5.496 -0.5412  0.2202  0.0737
   91SAPC   H7X 8761   6.029   0.209   5.548 -0.5796 -0.7658 -1.5329
   91SAPC   H7Y 8762   6.063   0.380   5.516 -0.3755  0.3405 -1.0089
   91SAPC   C38 8763   5.967   0.256   5.351  0.1354 -0.9222 -0.4108
   91SAPC   H8X 8764   5.900   0.167   5.344 -0.2888 -0.6474  0.1165
   91SAPC   H8Y 8765   6.067   0.219   5.320  0.3211 -2.0125  1.3564
   91SAPC   C39 8766   5.927   0.378   5.261 -0.3924 -0.5810  0.4166
   91SAPC   H9X 8767   6.007   0.455   5.259 -0.5549 -0.4045  0.6388
   91SAPC   H9Y 8768   5.833   0.429   5.292  0.8545 -0.5405  4.8763
   91SAPC  C310 8769   5.917   0.333   5.115  0.3732 -0.2667  0.3002
   91SAPC  H10X 8770   5.823   0.280   5.089  0.5594 -0.6204  0.3440
   91SAPC  H10Y 8771   6.003   0.267   5.093  0.5952  0.5743 -1.5205
   91SAPC  C311 8772   5.925   0.456   5.018  0.3219 -0.0806  0.5336
   91SAPC  H11X 8773   6.010   0.516   5.056  1.7635 -2.2734  1.0058
   91SAPC  H11Y 8774   5.838   0.524   5.025 -0.4498 -0.8136 -1.2801
   91SAPC  C312 8775   5.941   0.420   4.867  0.2321  0.7115  0.0904
   91SAPC  H12X 8776   5.853   0.357   4.842 -1.4963  1.8804  2.7464
   91SAPC  H12Y 8777   6.027   0.353   4.845 -0.8002 -0.3816 -0.7662
   91SAPC  C313 8778   5.937   0.548   4.787  0.0904 -0.5227 -0.3354
   91SAPC  H13X 8779   6.046   0.567   4.771 -0.3890  0.4868 -2.9143
   91SAPC  H13Y 8780   5.883   0.622   4.849  1.6901  0.1842  0.2641
   91SAPC  C314 8781   5.872   0.544   4.649  0.6277  0.3501  0.0044
   91SAPC  H14X 8782   5.890   0.644   4.605 -1.0213  0.6854  0.0329
   91SAPC  H14Y 8783   5.766   0.517   4.669 -0.1366  1.5857 -2.0846
   91SAPC  C315 8784   5.934   0.434   4.564  0.0314 -0.7415 -0.4664
   91SAPC  H15X 8785   5.914   0.334   4.608  0.7177 -0.2357  1.0613
   91SAPC  H15Y 8786   6.043   0.453   4.576 -0.1348 -1.6654  4.8557
   91SAPC  C316 8787   5.900   0.434   4.412  0.2309  0.3917  0.2420
   91SAPC  H16X 8788   5.908   0.539   4.376  0.3637  0.5338  0.6719
   91SAPC  H16Y 8789   5.794   0.401   4.405  1.1022 -2.6054 -0.1790
   91SAPC  C317 8790   5.986   0.331   4.339 -0.4448 -0.5183  0.3537
   91SAPC  H17X 8791   5.973   0.234   4.392  2.0150 -1.0509  0.1034
   91SAPC  H17Y 8792   6.094   0.358   4.347 -0.1167 -1.6424 -0.0512
   91SAPC  C318 8793   5.943   0.318   4.192 -0.2693  0.1435  0.1000
   91SAPC  H18X 8794   5.935   0.420   4.148 -0.0716 -0.5539 -1.6005
   91SAPC  H18Y 8795   5.842   0.271   4.190  0.2968 -1.2104  1.4769
   91SAPC  H18Z 8796   6.015   0.255   4.137  0.7033 -0.2278  1.7270
   92SAPC     N 8797   6.435   6.252   6.857 -0.9030  0.1768  0.2305
   92SAPC   C12 8798   6.383   6.125   6.800 -0.2483  0.2840 -0.2184
   92SAPC  H12A 8799   6.455   6.090   6.727  0.1926  0.7198  0.0015
   92SAPC  H12B 8800   6.295   6.154   6.744 -0.6112 -0.9015 -0.2841
   92SAPC   C13 8801   6.336   6.331   6.939 -0.5456  0.3627 -0.1198
   92SAPC  H13A 8802   6.243   6.339   6.884 -1.0802 -0.3788  0.6528
   92SAPC  H13B 8803   6.316   6.269   7.025 -0.7427  0.7072  0.0858
   92SAPC  H13C 8804   6.379   6.426   6.967 -1.1672  0.8098 -0.6499
   92SAPC   C14 8805   6.558   6.234   6.940  0.3100  0.0203 -0.4092
   92SAPC  H14A 8806   6.638   6.192   6.882 -0.3838  0.3319 -1.6242
   92SAPC  H14B 8807   6.594   6.327   6.982  1.4903 -0.4197 -0.4118
   92SAPC  H14C 8808   6.524   6.174   7.024  0.6744 -0.0693 -0.3231
   92SAPC   C15 8809   6.475   6.351   6.747  0.4338 -0.7942  0.3030
   92SAPC  H15A 8810   6.530   6.295   6.672  0.2829 -2.1496  1.1749
   92SAPC  H15B 8811   6.388   6.393   6.699  0.0754  0.6851  2.1407
   92SAPC  H15C 8812   6.540   6.426   6.791  0.5723 -1.2350  0.8554
   92SAPC   C11 8813   6.340   6.017   6.899 -1.2483  0.5472 -0.1601
   92SAPC  H11A 8814   6.432   5.984   6.952 -1.3679  3.9538  2.5139
   92SAPC  H11B 8815   6.302   5.937   6.833  1.9849  0.3510 -2.0191
   92SAPC     P 8816   6.086   6.077   6.936  0.4301  0.0811  0.0816
   92SAPC   O13 8817   6.010   5.957   6.986 -0.1454  0.0259  0.3565
   92SAPC   O14 8818   6.041   6.212   6.976  0.1787  0.4050  1.0292
   92SAPC   O12 8819   6.243   6.074   6.981 -0.0503 -0.0841  0.1919
   92SAPC   O11 8820   6.088   6.063   6.780 -0.1693 -0.1984 -0.8643
   92SAPC    C1 8821   5.986   5.978   6.717  0.4764  0.4665 -0.3367
   92SAPC    HA 8822   5.889   5.975   6.771  0.4853  0.9851 -0.2864
   92SAPC    HB 8823   5.961   6.014   6.614  0.5800  1.2410 -0.1023
   92SAPC    C2 8824   6.032   5.826   6.686  0.0509 -0.6431 -0.5188
   92SAPC    HS 8825   6.080   5.784   6.777  2.4087 -0.8980 -1.7999
   92SAPC   O21 8826   6.130   5.833   6.585 -0.1042  0.0610  0.4462
   92SAPC   C21 8827   6.202   5.727   6.562  0.4753  0.3295  0.2133
   92SAPC   O22 8828   6.206   5.631   6.636  0.3139  0.5057 -0.0411
   92SAPC   C22 8829   6.274   5.748   6.435 -0.4870  0.3932 -0.0093
   92SAPC   H2R 8830   6.240   5.838   6.379  2.2956  1.7566  0.3025
   92SAPC   H2S 8831   6.377   5.773   6.469 -0.4583  0.3518 -0.0643
   92SAPC    C3 8832   5.907   5.743   6.637 -0.5881 -0.1012 -0.6807
   92SAPC    HX 8833   5.840   5.747   6.726  2.5161  1.6549  1.7730
   92SAPC    HY 8834   5.937   5.637   6.619  0.6123  0.2672 -0.9708
   92SAPC   O31 8835   5.849   5.803   6.522  0.4285  0.3464 -0.4852
   92SAPC   C31 8836   5.784   5.724   6.438 -1.5439  0.5223 -0.2062
   92SAPC   O32 8837   5.761   5.608   6.463  0.9374 -0.6502  0.0246
   92SAPC   C32 8838   5.760   5.801   6.304 -0.4383 -0.1019 -0.6304
   92SAPC   H2X 8839   5.837   5.881   6.305  0.5453 -0.9913  1.5273
   92SAPC   H2Y 8840   5.662   5.852   6.302  0.0200  0.7912 -0.8097
   92SAPC   C23 8841   6.259   5.638   6.327 -0.1800 -0.7384  0.7363
   92SAPC   H3R 8842   6.257   5.540   6.378 -1.5604 -2.1578 -1.8835
   92SAPC   H3S 8843   6.347   5.648   6.260  1.6998  1.5577  3.2922
   92SAPC   C24 8844   6.129   5.659   6.243  0.3887  0.3153  0.6649
   92SAPC   H4R 8845   6.044   5.647   6.313  0.8342 -0.6150  1.0645
   92SAPC   H4S 8846   6.121   5.572   6.174  1.1163  0.9554 -0.2491
   92SAPC   C25 8847   6.109   5.793   6.176  0.2781  0.3166  0.1406
   92SAPC   H5R 8848   6.035   5.858   6.225 -0.2994 -0.7956  0.7840
   92SAPC   C26 8849   6.176   5.846   6.077 -0.4099 -0.3284 -0.6914
   92SAPC   H6R 8850   6.134   5.935   6.026  0.6183  1.0229  0.7486
   92SAPC   C27 8851   6.283   5.770   5.996  0.1890  0.8795  0.2809
   92SAPC   H7R 8852   6.357   5.743   6.074  0.3607 -0.3957 -0.2823
   92SAPC   H7S 8853   6.340   5.838   5.929  0.8352 -1.3984 -1.6571
   92SAPC   C28 8854   6.244   5.644   5.915 -0.4173  0.4762 -0.1170
   92SAPC   H8R 8855   6.286   5.554   5.962 -3.7213 -1.0147  0.2344
   92SAPC   C29 8856   6.190   5.646   5.794  0.0573  0.3027  0.4256
   92SAPC   H9R 8857   6.193   5.552   5.736 -0.2613  0.7484 -0.3325
   92SAPC  C210 8858   6.167   5.772   5.710  0.3179 -0.2098  0.0925
   92SAPC  H10R 8859   6.122   5.854   5.769 -1.7364 -1.0275 -0.2352
   92SAPC  H10S 8860   6.082   5.746   5.642  0.4376  0.1310 -0.1940
   92SAPC  C211 8861   6.273   5.846   5.630  0.3700  0.4747  0.5746
   92SAPC  H11R 8862   6.343   5.892   5.701 -0.1060 -0.0929  1.4320
   92SAPC  C212 8863   6.288   5.859   5.497 -0.0381  0.3200 -0.0976
   92SAPC  H12R 8864   6.367   5.921   5.452  1.5187 -1.0407  0.6364
   92SAPC  C213 8865   6.213   5.791   5.389 -0.0006 -0.0582  0.7489
   92SAPC  H13R 8866   6.145   5.867   5.345  0.2902 -0.2844 -0.1223
   92SAPC  H13S 8867   6.152   5.709   5.433  0.5418 -0.5478  0.6138
   92SAPC  C214 8868   6.296   5.728   5.279  0.3343  0.1277 -0.1156
   92SAPC  H14R 8869   6.371   5.657   5.317 -0.0870 -1.7503 -2.5423
   92SAPC  C215 8870   6.312   5.765   5.152 -0.6120  0.0565  0.0350
   92SAPC  H15R 8871   6.375   5.704   5.086 -1.4139  0.6540 -1.3206
   92SAPC  C216 8872   6.240   5.884   5.094 -0.6788  0.1775  0.4004
   92SAPC  H16R 8873   6.319   5.962   5.089 -0.7736  0.4066  1.9085
   92SAPC  H16S 8874   6.156   5.921   5.157 -1.4416  0.4641 -0.7516
   92SAPC  C217 8875   6.196   5.870   4.946  0.1489 -0.0215 -0.3328
   92SAPC  H17R 8876   6.117   5.938   4.908  1.6437  2.3629  0.6134
   92SAPC  H17S 8877   6.148   5.770   4.939  2.0954 -1.0287 -0.2227
   92SAPC  C218 8878   6.306   5.861   4.840  0.0179 -0.5955 -1.1313
   92SAPC  H18R 8879   6.373   5.773   4.854 -0.3124 -0.6146  0.5098
   92SAPC  H18S 8880   6.368   5.953   4.844 -1.4049  0.4296 -1.7533
   92SAPC  C219 8881   6.262   5.836   4.695  0.4837 -0.6670  0.3297
   92SAPC  H19R 8882   6.208   5.739   4.692  0.1933 -0.5992  2.2626
   92SAPC  H19S 8883   6.357   5.821   4.638  0.2101  2.2758 -1.1103
   92SAPC  C220 8884   6.181   5.954   4.640  0.8114  0.1989 -0.5096
   92SAPC  H20R 8885   6.229   6.053   4.656 -1.7781  1.3009  1.0256
   92SAPC  H20S 8886   6.082   5.979   4.685  1.0388  2.2828 -1.0719
   92SAPC  H20T 8887   6.147   5.931   4.537 -0.2593 -1.4716  0.1741
   92SAPC   C33 8888   5.771   5.707   6.181 -0.3120 -0.5186  0.4510
   92SAPC   H3X 8889   5.701   5.621   6.186  1.5716 -2.4431 -2.7767
   92SAPC   H3Y 8890   5.871   5.659   6.182  1.5664  3.0657  2.4578
   92SAPC   C34 8891   5.746   5.783   6.050  0.5731  0.4009 -0.3769
   92SAPC   H4X 8892   5.814   5.872   6.052  0.8506  0.2184 -1.2641
   92SAPC   H4Y 8893   5.642   5.822   6.054  0.3091 -0.3753  1.4007
   92SAPC   C35 8894   5.771   5.697   5.920 -0.5865 -0.1616  0.1454
   92SAPC   H5X 8895   5.699   5.612   5.920 -0.0874 -0.6550 -2.2724
   92SAPC   H5Y 8896   5.875   5.659   5.916 -0.3597  0.5596 -1.3974
   92SAPC   C36 8897   5.752   5.777   5.795  1.0308 -0.1994  0.5128
   92SAPC   H6X 8898   5.836   5.850   5.786  0.0647  0.8576 -0.2425
   92SAPC   H6Y 8899   5.660   5.840   5.797  0.3547 -1.0995 -0.9401
   92SAPC   C37 8900   5.745   5.700   5.666  0.1613 -0.0945 -0.2428
   92SAPC   H7X 8901   5.640   5.662   5.666 -0.9224  2.6687  0.5375
   92SAPC   H7Y 8902   5.814   5.614   5.682  1.4239  0.6590 -1.4646
   92SAPC   C38 8903   5.778   5.773   5.532  0.1628  0.2705  0.2491
   92SAPC   H8X 8904   5.889   5.777   5.539  0.1859 -0.8791  0.8316
   92SAPC   H8Y 8905   5.734   5.875   5.536  1.1611  0.8445 -2.1584
   92SAPC   C39 8906   5.741   5.690   5.410 -0.3116  0.1652  0.4529
   92SAPC   H9X 8907   5.634   5.661   5.411 -1.1367  2.7725 -1.1686
   92SAPC   H9Y 8908   5.803   5.598   5.412  1.9233  1.5691 -0.1337
   92SAPC  C310 8909   5.761   5.776   5.284 -0.0884 -0.1933 -0.0896
   92SAPC  H10X 8910   5.866   5.814   5.283  0.3609 -1.3771 -1.4232
   92SAPC  H10Y 8911   5.696   5.866   5.294  1.9505  1.1677  2.0147
   92SAPC  C311 8912   5.729   5.706   5.151  0.2474 -0.1675 -0.8073
   92SAPC  H11X 8913   5.621   5.698   5.130  0.0157  0.7480 -0.0533
   92SAPC  H11Y 8914   5.762   5.601   5.164  1.1916  0.2959  0.8172
   92SAPC  C312 8915   5.814   5.771   5.041 -0.1036  0.5147 -0.0919
   92SAPC  H12X 8916   5.919   5.736   5.047 -0.7483 -2.4146 -2.9260
   92SAPC  H12Y 8917   5.804   5.881   5.050 -0.5383  0.6365 -1.7890
   92SAPC  C313 8918   5.782   5.738   4.892  0.4574 -0.8684 -1.3872
   92SAPC  H13X 8919   5.678   5.769   4.869 -0.3450 -0.7950  1.9035
   92SAPC  H13Y 8920   5.785   5.627   4.889  0.5486 -1.1235  2.9445
   92SAPC  C314 8921   5.876   5.782   4.791 -0.6174  0.7061  0.0439
   92SAPC  H14X 8922   5.970   5.728   4.817 -1.1069 -1.9696 -3.1233
   92SAPC  H14Y 8923   5.888   5.890   4.813 -0.8009  0.5040  1.2105
   92SAPC  C315 8924   5.827   5.760   4.643  0.2520  0.6839  0.0430
   92SAPC  H15X 8925   5.897   5.812   4.574  0.9833 -2.8708 -2.1779
   92SAPC  H15Y 8926   5.733   5.817   4.630 -0.1319 -0.0227 -0.3372
   92SAPC  C316 8927   5.816   5.610   4.611  0.8553 -0.1016 -0.3684
   92SAPC  H16X 8928   5.729   5.574   4.670  1.1132  1.8169  1.3076
   92SAPC  H16Y 8929   5.903   5.547   4.638  0.3672 -1.4489 -1.8079
   92SAPC  C317 8930   5.796   5.580   4.461 -0.2481  0.1933 -0.3477
   92SAPC  H17X 8931   5.758   5.476   4.454 -0.1656 -0.1231  2.5531
   92SAPC  H17Y 8932   5.892   5.571   4.407  0.0449 -0.4035  0.2585
   92SAPC  C318 8933   5.715   5.685   4.380 -0.6232 -0.8283  0.6682
   92SAPC  H18X 8934   5.700   5.650   4.275  0.0966  0.3590  0.1597
   92SAPC  H18Y 8935   5.767   5.782   4.369 -0.9023 -0.8868 -1.5607
   92SAPC  H18Z 8936   5.611   5.692   4.418 -1.4436 -2.8106 -1.0325
   93SAPC     N 8937   1.179   1.352   6.528 -0.0319  0.0345 -0.6281
   93SAPC   C12 8938   1.129   1.385   6.389  0.7182  0.0010  0.6968
   93SAPC  H12A 8939   1.196   1.453   6.338 -1.4623  1.5186 -0.2998
   93SAPC  H12B 8940   1.027   1.421   6.390  0.5398 -0.4713  0.0318
   93SAPC   C13 8941   1.306   1.265   6.531 -0.1577 -0.9064 -0.2936
   93SAPC  H13A 8942   1.314   1.179   6.465  3.9053 -1.8027  1.0280
   93SAPC  H13B 8943   1.389   1.326   6.496  0.3220 -0.2832  1.7879
   93SAPC  H13C 8944   1.321   1.226   6.630 -1.0909  0.4400  0.4021
   93SAPC   C14 8945   1.207   1.479   6.605 -0.1481  0.6377 -0.1209
   93SAPC  H14A 8946   1.226   1.569   6.548  1.2512  0.3578 -0.1285
   93SAPC  H14B 8947   1.122   1.491   6.670 -0.5400  0.7967 -0.6567
   93SAPC  H14C 8948   1.289   1.467   6.675 -2.0009 -0.4407  1.9679
   93SAPC   C15 8949   1.075   1.277   6.591  0.0093  0.1256 -0.2857
   93SAPC  H15A 8950   0.982   1.332   6.597  0.3336  0.6860 -0.3412
   93SAPC  H15B 8951   1.061   1.186   6.535  2.3900 -0.6796  0.3531
   93SAPC  H15C 8952   1.091   1.247   6.693 -1.1093 -1.0212 -0.4190
   93SAPC   C11 8953   1.115   1.267   6.290 -0.2500  0.2931  0.0513
   93SAPC  H11A 8954   1.209   1.225   6.249  1.5225  1.2820  2.7915
   93SAPC  H11B 8955   1.076   1.320   6.201 -0.4615  0.6997  0.3852
   93SAPC     P 8956   1.065   1.012   6.335  0.3630  0.1126 -0.0471
   93SAPC   O13 8957   1.214   0.993   6.334  1.1666 -0.0024  0.5833
   93SAPC   O14 8958   0.994   0.937   6.440 -0.6025 -0.5531 -0.0305
   93SAPC   O12 8959   1.021   1.168   6.325  0.3797  0.3242  0.2076
   93SAPC   O11 8960   1.002   0.965   6.197 -0.1369 -0.1977  0.2019
   93SAPC    C1 8961   0.872   1.001   6.151 -0.9202  0.1018  0.5565
   93SAPC    HA 8962   0.810   1.045   6.232  1.6753  1.8800  1.7233
   93SAPC    HB 8963   0.902   1.075   6.074  3.4130 -1.3137  0.5780
   93SAPC    C2 8964   0.799   0.878   6.080  0.1266  0.4827  0.2396
   93SAPC    HS 8965   0.817   0.791   6.146 -1.1922  1.1004  1.4604
   93SAPC   O21 8966   0.851   0.875   5.951 -0.1012  0.1309 -0.1759
   93SAPC   C21 8967   0.830   0.764   5.889  0.9157  0.0315 -0.6302
   93SAPC   O22 8968   0.810   0.650   5.936  0.6345 -0.4678 -0.4701
   93SAPC   C22 8969   0.830   0.784   5.738 -0.6870 -0.3292 -0.0259
   93SAPC   H2R 8970   0.779   0.702   5.683  2.0560 -0.7858 -2.1064
   93SAPC   H2S 8971   0.771   0.876   5.718 -0.2143  0.3477  1.5273
   93SAPC    C3 8972   0.647   0.904   6.079  0.1403 -0.5944 -0.2386
   93SAPC    HX 8973   0.631   0.992   6.014  0.7006  0.4143  0.9384
   93SAPC    HY 8974   0.616   0.940   6.180  1.4054 -1.8432  0.6394
   93SAPC   O31 8975   0.581   0.790   6.025  0.5006  0.8401  0.0600
   93SAPC   C31 8976   0.534   0.694   6.113 -0.4211  0.7733 -0.1134
   93SAPC   O32 8977   0.542   0.708   6.234 -0.4735  0.3503 -0.4329
   93SAPC   C32 8978   0.463   0.586   6.035 -0.2938 -0.6265 -0.5446
   93SAPC   H2X 8979   0.535   0.513   5.993  0.4505 -0.4148  0.3426
   93SAPC   H2Y 8980   0.411   0.638   5.952 -0.2560  0.1991 -0.0562
   93SAPC   C23 8981   0.974   0.807   5.690 -0.0009  0.2703 -0.4853
   93SAPC   H3R 8982   1.015   0.904   5.726  2.2391 -0.8432  0.1225
   93SAPC   H3S 8983   0.972   0.799   5.579  1.9042 -1.7338 -0.4258
   93SAPC   C24 8984   1.072   0.696   5.729  0.0541 -0.7602  0.2888
   93SAPC   H4R 8985   1.100   0.712   5.835 -1.7934  2.0207  0.4588
   93SAPC   H4S 8986   1.164   0.721   5.672  0.3068  1.4988  1.5655
   93SAPC   C25 8987   1.028   0.559   5.691  0.2749  0.2466 -0.0536
   93SAPC   H5R 8988   0.977   0.511   5.775  0.8448  1.6685  1.1570
   93SAPC   C26 8989   1.037   0.494   5.568 -0.3266  0.5370 -0.0559
   93SAPC   H6R 8990   0.981   0.400   5.557 -0.8501  0.8801 -0.3415
   93SAPC   C27 8991   1.093   0.549   5.429 -0.5985  0.2649 -0.3658
   93SAPC   H7R 8992   1.170   0.482   5.385 -0.5940  1.1260 -1.7093
   93SAPC   H7S 8993   1.140   0.648   5.447  1.7388 -0.4284 -2.1696
   93SAPC   C28 8994   0.989   0.569   5.320  0.2626  0.3928 -0.4443
   93SAPC   H8R 8995   0.882   0.563   5.344  0.7338  1.9185  2.4845
   93SAPC   C29 8996   1.019   0.596   5.192  0.4984  0.3021 -0.0448
   93SAPC   H9R 8997   0.930   0.617   5.132 -0.2984  0.2516  1.0839
   93SAPC  C210 8998   1.159   0.605   5.127  0.0125  0.3061 -0.0476
   93SAPC  H10R 8999   1.233   0.640   5.201  0.9839 -1.1291 -0.3068
   93SAPC  H10S 9000   1.163   0.683   5.048  0.6954 -1.1026 -1.4593
   93SAPC  C211 9001   1.190   0.463   5.074  0.5780 -0.0262 -0.4821
   93SAPC  H11R 9002   1.223   0.392   5.151 -0.7593 -1.1446 -0.9101
   93SAPC  C212 9003   1.181   0.415   4.948  0.3709 -0.7284 -0.0805
   93SAPC  H12R 9004   1.206   0.309   4.937  1.0498 -0.6062  0.2762
   93SAPC  C213 9005   1.137   0.502   4.831 -0.6858  0.0239 -0.3057
   93SAPC  H13R 9006   1.090   0.599   4.855 -0.9983 -0.1056 -0.3852
   93SAPC  H13S 9007   1.052   0.452   4.780 -0.8447 -0.6343  0.5894
   93SAPC  C214 9008   1.254   0.523   4.742  0.5245  0.0661 -0.7763
   93SAPC  H14R 9009   1.353   0.504   4.785 -0.8573 -2.4666  1.6015
   93SAPC  C215 9010   1.257   0.549   4.616  0.4633  0.2777  0.3439
   93SAPC  H15R 9011   1.358   0.568   4.577  0.4198 -1.5574 -0.7842
   93SAPC  C216 9012   1.156   0.592   4.510 -0.1436  0.2261 -0.2364
   93SAPC  H16R 9013   1.184   0.693   4.474  2.4547 -0.9466 -1.7511
   93SAPC  H16S 9014   1.049   0.582   4.538  0.1077  1.2064  1.2028
   93SAPC  C217 9015   1.168   0.490   4.394 -0.3381  0.3039  0.3134
   93SAPC  H17R 9016   1.128   0.392   4.428 -1.9098  1.3477  1.6386
   93SAPC  H17S 9017   1.271   0.482   4.354  0.4165  1.2128  1.9941
   93SAPC  C218 9018   1.080   0.526   4.278  0.7265 -0.6604 -0.1894
   93SAPC  H18R 9019   1.113   0.627   4.247 -0.8626 -0.8594 -2.7539
   93SAPC  H18S 9020   0.978   0.523   4.322  1.6442 -1.3239  2.0937
   93SAPC  C219 9021   1.092   0.441   4.152 -0.2956  0.4548  0.4855
   93SAPC  H19R 9022   1.107   0.335   4.178  1.7583  0.6803  0.4285
   93SAPC  H19S 9023   1.183   0.481   4.101  0.0010  0.1523  0.7700
   93SAPC  C220 9024   0.975   0.463   4.054 -0.4682 -0.2517 -0.5148
   93SAPC  H20R 9025   0.890   0.405   4.097 -1.4077 -0.0498 -2.0145
   93SAPC  H20S 9026   1.007   0.436   3.952  1.6552 -0.3190  0.1279
   93SAPC  H20T 9027   0.953   0.569   4.077  0.2392 -0.6449  2.5022
   93SAPC   C33 9028   0.354   0.513   6.115 -0.0872 -0.6750  0.4010
   93SAPC   H3X 9029   0.281   0.576   6.170  0.6123  0.0479  0.5259
   93SAPC   H3Y 9030   0.397   0.437   6.184  0.4614  1.3276  2.3954
   93SAPC   C34 9031   0.265   0.449   6.008  0.4123 -0.3997 -0.2652
   93SAPC   H4X 9032   0.338   0.383   5.956  1.0222  0.5402 -0.6337
   93SAPC   H4Y 9033   0.215   0.509   5.929 -3.8639 -0.9190  1.7885
   93SAPC   C35 9034   0.168   0.348   6.067  0.2611 -0.2387 -0.6650
   93SAPC   H5X 9035   0.086   0.409   6.113  0.6257 -2.3165  3.1727
   93SAPC   H5Y 9036   0.209   0.275   6.140  1.1551 -0.7574 -1.6695
   93SAPC   C36 9037   0.104   0.270   5.955  0.0293  0.0947  0.1697
   93SAPC   H6X 9038   0.177   0.196   5.918 -0.0365  0.2710 -0.3254
   93SAPC   H6Y 9039   0.087   0.331   5.864  0.7952  2.4781  1.5376
   93SAPC   C37 9040  -0.030   0.211   5.988 -0.2717  0.2542  0.0110
   93SAPC   H7X 9041  -0.108   0.287   6.007 -1.0944 -0.2865 -1.0486
   93SAPC   H7Y 9042  -0.003   0.166   6.085  1.4156  0.3655 -0.3740
   93SAPC   C38 9043  -0.080   0.100   5.897  0.1372  0.9335  0.1394
   93SAPC   H8X 9044  -0.169   0.056   5.947  1.0466  0.2483  1.2031
   93SAPC   H8Y 9045  -0.010   0.014   5.891 -0.1725  0.7334 -0.7119
   93SAPC   C39 9046  -0.101   0.149   5.752  0.6422 -0.1179  0.0137
   93SAPC   H9X 9047  -0.007   0.185   5.706 -0.7312  1.1088 -2.0535
   93SAPC   H9Y 9048  -0.168   0.236   5.771  1.0942  0.6897 -1.7956
   93SAPC  C310 9049  -0.182   0.056   5.663  0.2941 -0.3811 -0.1986
   93SAPC  H10X 9050  -0.280   0.054   5.714  0.3815  0.2041  0.0053
   93SAPC  H10Y 9051  -0.130  -0.042   5.663  1.1665  0.0605 -0.7078
   93SAPC  C311 9052  -0.193   0.092   5.518 -0.9074 -0.7582  0.4833
   93SAPC  H11X 9053  -0.229   0.010   5.453 -2.0345  0.1098 -0.0208
   93SAPC  H11Y 9054  -0.100   0.136   5.476 -2.9579  2.0979 -1.4712
   93SAPC  C312 9055  -0.296   0.199   5.484  1.0044  0.1365  0.1574
   93SAPC  H12X 9056  -0.276   0.298   5.532 -1.4377  1.2940 -1.0263
   93SAPC  H12Y 9057  -0.389   0.164   5.535  1.4675 -1.3251  0.0175
   93SAPC  C313 9058  -0.316   0.215   5.331 -0.4692 -0.9058 -0.7824
   93SAPC  H13X 9059  -0.307   0.117   5.278  1.8222 -0.8059 -0.7065
   93SAPC  H13Y 9060  -0.234   0.272   5.282 -0.9276 -0.3360 -0.8954
   93SAPC  C314 9061  -0.456   0.271   5.288 -0.6858  0.4497 -0.6047
   93SAPC  H14X 9062  -0.467   0.378   5.317 -0.0941  1.2319 -3.0571
   93SAPC  H14Y 9063  -0.530   0.215   5.349  0.9180  0.9897  1.9923
   93SAPC  C315 9064  -0.469   0.253   5.136 -0.0722  0.6324 -0.1051
   93SAPC  H15X 9065  -0.570   0.217   5.110 -0.0679  0.6275 -0.1147
   93SAPC  H15Y 9066  -0.399   0.183   5.085 -0.0551  0.4799  0.1245
   93SAPC  C316 9067  -0.459   0.385   5.070 -0.4077 -0.3901  0.1613
   93SAPC  H16X 9068  -0.369   0.440   5.106 -0.7555  0.1876  0.1787
   93SAPC  H16Y 9069  -0.550   0.437   5.108 -1.2597 -0.4667 -1.6972
   93SAPC  C317 9070  -0.472   0.398   4.913  0.1481 -0.6414 -0.2563
   93SAPC  H17X 9071  -0.482   0.507   4.895 -0.0246 -0.1572  2.3250
   93SAPC  H17Y 9072  -0.563   0.353   4.868  0.3209  0.1912 -1.4689
   93SAPC  C318 9073  -0.344   0.352   4.852  0.0717 -0.4148  0.5624
   93SAPC  H18X 9074  -0.334   0.241   4.851 -0.5973 -0.4791 -0.1294
   93SAPC  H18Y 9075  -0.258   0.400   4.904  1.1207 -1.1696 -0.4254
   93SAPC  H18Z 9076  -0.337   0.383   4.746 -2.4898  0.8968  0.7042
   94SAPC     N 9077   6.491   5.378   6.729  0.4224  0.3947 -0.0654
   94SAPC   C12 9078   6.632   5.343   6.710 -0.4191  0.6180 -0.1652
   94SAPC  H12A 9079   6.641   5.241   6.673  1.3130 -0.4277  2.7852
   94SAPC  H12B 9080   6.674   5.342   6.810 -0.1754  0.2262 -0.2680
   94SAPC   C13 9081   6.417   5.275   6.809  0.3850  0.2794 -0.3780
   94SAPC  H13A 9082   6.419   5.180   6.759 -1.3436  0.7543 -1.4080
   94SAPC  H13B 9083   6.460   5.256   6.907 -0.1049  0.6257 -0.0933
   94SAPC  H13C 9084   6.315   5.308   6.819  0.1701 -0.4253 -0.2357
   94SAPC   C14 9085   6.487   5.504   6.805 -0.1258  0.8047 -0.0825
   94SAPC  H14A 9086   6.547   5.501   6.894  1.3387  0.8415 -1.0412
   94SAPC  H14B 9087   6.522   5.587   6.746  1.2810  2.2079  2.5604
   94SAPC  H14C 9088   6.387   5.537   6.832 -0.0514  0.2859  0.8826
   94SAPC   C15 9089   6.424   5.390   6.587 -0.1655 -1.1163 -0.5736
   94SAPC  H15A 9090   6.497   5.448   6.531  0.4108  1.2657  2.3722
   94SAPC  H15B 9091   6.421   5.291   6.545 -2.3506 -2.4064  2.3265
   94SAPC  H15C 9092   6.328   5.439   6.594  0.2423 -0.5237  1.8342
   94SAPC   C11 9093   6.726   5.436   6.637 -0.0178 -0.3330  0.3979
   94SAPC  H11A 9094   6.829   5.404   6.663 -0.6863 -1.6619  1.5089
   94SAPC  H11B 9095   6.708   5.539   6.674 -0.9471 -1.1773  2.4136
   94SAPC     P 9096   6.814   5.426   6.390 -0.1600 -0.1881  0.3667
   94SAPC   O13 9097   6.894   5.549   6.392  0.9227  0.2284 -0.1567
   94SAPC   O14 9098   6.889   5.298   6.425 -0.1737 -0.5274  0.5739
   94SAPC   O12 9099   6.699   5.444   6.494  0.1481  0.0786 -0.2251
   94SAPC   O11 9100   6.747   5.423   6.245  0.0623 -0.2557 -0.5362
   94SAPC    C1 9101   6.620   5.489   6.225  0.3972 -0.2573  0.2436
   94SAPC    HA 9102   6.561   5.437   6.147 -1.0859 -0.0596  1.2075
   94SAPC    HB 9103   6.552   5.475   6.311 -0.5507 -1.5049 -0.6737
   94SAPC    C2 9104   6.629   5.645   6.194 -0.2152 -0.3209  0.4103
   94SAPC    HS 9105   6.535   5.684   6.150 -0.8258 -0.4683  1.5487
   94SAPC   O21 9106   6.735   5.691   6.119 -0.3059 -0.3890  0.2346
   94SAPC   C21 9107   6.767   5.642   5.995  0.6186 -0.7142 -0.3207
   94SAPC   O22 9108   6.690   5.576   5.929 -0.2818  0.3497  0.0309
   94SAPC   C22 9109   6.919   5.681   5.967  0.2955  0.4092  0.0520
   94SAPC   H2R 9110   6.928   5.790   5.955  1.6724  0.2116 -0.8571
   94SAPC   H2S 9111   6.966   5.661   6.066 -0.0824 -0.7077  0.0225
   94SAPC    C3 9112   6.645   5.742   6.321  0.0451 -0.2983  0.0215
   94SAPC    HX 9113   6.751   5.737   6.356 -0.1579  1.4476  1.0252
   94SAPC    HY 9114   6.589   5.696   6.405  1.5721  0.4677  1.5261
   94SAPC   O31 9115   6.602   5.878   6.289  0.4280 -0.4647  0.3673
   94SAPC   C31 9116   6.704   5.963   6.263 -0.1551 -0.2840 -0.3836
   94SAPC   O32 9117   6.821   5.938   6.277 -0.3864 -0.2219 -0.0075
   94SAPC   C32 9118   6.642   6.087   6.199  0.3177 -0.0695  0.4481
   94SAPC   H2X 9119   6.724   6.162   6.187 -0.6141  0.8601 -0.2513
   94SAPC   H2Y 9120   6.566   6.117   6.274  0.1872 -2.2443  1.2502
   94SAPC   C23 9121   6.967   5.603   5.844 -0.1087  0.4040  0.3993
   94SAPC   H3R 9122   6.912   5.635   5.753  2.0747 -1.5695 -1.7652
   94SAPC   H3S 9123   6.950   5.493   5.851  1.9130 -0.4795 -4.4375
   94SAPC   C24 9124   7.121   5.609   5.828  0.5313  0.0640  0.0452
   94SAPC   H4R 9125   7.152   5.531   5.754 -1.3568 -0.0197 -0.7047
   94SAPC   H4S 9126   7.165   5.566   5.921  1.9884  0.2447 -0.5313
   94SAPC   C25 9127   7.165   5.747   5.796 -0.1872 -0.2636 -0.5049
   94SAPC   H5R 9128   7.206   5.806   5.879  2.2867 -1.2715 -0.9093
   94SAPC   C26 9129   7.183   5.795   5.672  0.3045 -0.6418  0.1028
   94SAPC   H6R 9130   7.204   5.902   5.660 -1.7305 -0.1698  0.4541
   94SAPC   C27 9131   7.142   5.729   5.538 -0.1811  0.1237 -0.3892
   94SAPC   H7R 9132   7.070   5.646   5.554 -1.5605  1.3529  0.0122
   94SAPC   H7S 9133   7.234   5.682   5.499 -0.9133 -0.5407 -1.3713
   94SAPC   C28 9134   7.078   5.825   5.448  0.4819  0.0154 -0.1595
   94SAPC   H8R 9135   7.005   5.898   5.488 -0.1855 -0.5179 -0.3848
   94SAPC   C29 9136   7.097   5.841   5.312 -0.1890  0.5395 -0.6453
   94SAPC   H9R 9137   7.036   5.921   5.269  3.1621  3.3294 -0.7184
   94SAPC  C210 9138   7.203   5.772   5.228 -0.4630 -0.1556 -0.0827
   94SAPC  H10R 9139   7.141   5.737   5.142 -1.4146 -0.6921  0.7995
   94SAPC  H10S 9140   7.248   5.681   5.274  1.4723  0.9614  0.3381
   94SAPC  C211 9141   7.311   5.863   5.178 -0.1996  0.4601 -0.3656
   94SAPC  H11R 9142   7.384   5.886   5.257 -2.8829  1.2698  2.0477
   94SAPC  C212 9143   7.333   5.920   5.058  0.8833  0.8021 -0.1303
   94SAPC  H12R 9144   7.419   5.988   5.043  1.1318  0.0601 -2.4971
   94SAPC  C213 9145   7.238   5.914   4.941 -0.0462 -0.4212  0.7127
   94SAPC  H13R 9146   7.158   5.988   4.962  1.3744  1.8582 -1.3041
   94SAPC  H13S 9147   7.197   5.811   4.939  0.2718 -0.5399 -0.3833
   94SAPC  C214 9148   7.306   5.962   4.815 -0.1065  0.1150  0.4499
   94SAPC  H14R 9149   7.314   6.072   4.816 -2.5080  0.3287  0.7268
   94SAPC  C215 9150   7.364   5.887   4.721  0.5652  0.1463  0.2126
   94SAPC  H15R 9151   7.421   5.933   4.639  0.6533  1.7236  1.1069
   94SAPC  C216 9152   7.358   5.731   4.724 -0.7918 -0.4987 -0.2484
   94SAPC  H16R 9153   7.369   5.704   4.617  2.6483  0.0560 -0.1498
   94SAPC  H16S 9154   7.257   5.699   4.758 -1.3281 -0.3064 -1.6098
   94SAPC  C217 9155   7.462   5.663   4.814 -0.3663 -0.4968  0.0215
   94SAPC  H17R 9156   7.451   5.552   4.813 -3.4337 -0.2707  0.0703
   94SAPC  H17S 9157   7.445   5.690   4.921 -1.1687  0.0905 -0.2499
   94SAPC  C218 9158   7.607   5.692   4.780  0.4905 -0.6516  0.0545
   94SAPC  H18R 9159   7.622   5.802   4.783 -0.0433 -0.4985 -1.9020
   94SAPC  H18S 9160   7.640   5.653   4.682  3.2347 -1.0293  1.0267
   94SAPC  C219 9161   7.701   5.617   4.878 -0.2115  0.2757  0.0203
   94SAPC  H19R 9162   7.805   5.605   4.841 -1.2685 -2.0469 -2.5510
   94SAPC  H19S 9163   7.658   5.515   4.882 -1.8729  0.9873  1.0640
   94SAPC  C220 9164   7.714   5.687   5.007  0.3932  0.2829 -0.4362
   94SAPC  H20R 9165   7.619   5.720   5.055  0.7864  2.6375 -1.1247
   94SAPC  H20S 9166   7.770   5.780   4.982 -2.1338  2.2685  0.7421
   94SAPC  H20T 9167   7.779   5.630   5.077 -2.2979  0.2976  2.3207
   94SAPC   C33 9168   6.581   6.049   6.063  0.1085 -0.3074  0.4927
   94SAPC   H3X 9169   6.515   6.129   6.024  1.9780  0.3906 -1.4539
   94SAPC   H3Y 9170   6.510   5.965   6.079 -1.1145  0.6148  0.0665
   94SAPC   C34 9171   6.686   6.021   5.961 -0.5329  0.1629 -0.2368
   94SAPC   H4X 9172   6.751   5.937   5.994  0.4430  0.8539 -0.3616
   94SAPC   H4Y 9173   6.748   6.110   5.939 -0.8917  0.3329 -0.5676
   94SAPC   C35 9174   6.638   5.980   5.822 -0.5926  0.7114 -0.2486
   94SAPC   H5X 9175   6.567   6.058   5.785 -1.4931  0.1333  0.2281
   94SAPC   H5Y 9176   6.573   5.891   5.836 -1.8282  1.6948  0.4079
   94SAPC   C36 9177   6.756   5.956   5.734 -0.3631  0.4809  0.0780
   94SAPC   H6X 9178   6.825   5.884   5.783 -1.1311 -0.3649 -0.0700
   94SAPC   H6Y 9179   6.815   6.046   5.706 -1.3747  1.6964  1.6382
   94SAPC   C37 9180   6.710   5.898   5.595 -0.2754 -0.0103 -0.5459
   94SAPC   H7X 9181   6.632   5.826   5.628 -0.2917  0.9901  1.8593
   94SAPC   H7Y 9182   6.794   5.851   5.541 -0.5999  1.0047 -1.9878
   94SAPC   C38 9183   6.642   5.998   5.493  0.3025 -0.3327 -0.1568
   94SAPC   H8X 9184   6.702   6.091   5.486  0.3858 -0.3230  0.5412
   94SAPC   H8Y 9185   6.540   6.012   5.536 -0.7771 -1.3346 -2.2422
   94SAPC   C39 9186   6.622   5.934   5.354 -0.2900  0.0209 -0.2164
   94SAPC   H9X 9187   6.558   6.014   5.308  1.3746  1.8455  0.5259
   94SAPC   H9Y 9188   6.563   5.840   5.358 -0.7429  0.3450  1.4285
   94SAPC  C310 9189   6.750   5.909   5.272  0.2741 -0.3699  0.3328
   94SAPC  H10X 9190   6.810   5.823   5.308 -0.6286 -1.2245 -0.1422
   94SAPC  H10Y 9191   6.819   5.995   5.280  1.5217 -1.2033 -0.9252
   94SAPC  C311 9192   6.711   5.896   5.118 -0.7703  0.2492  0.0216
   94SAPC  H11X 9193   6.665   5.990   5.080 -1.5971 -0.9257 -2.1043
   94SAPC  H11Y 9194   6.630   5.820   5.106  1.1575 -2.3446  2.3818
   94SAPC  C312 9195   6.836   5.848   5.038  0.6632 -1.1031 -0.7093
   94SAPC  H12X 9196   6.864   5.747   5.076 -2.2820 -2.2265 -1.2074
   94SAPC  H12Y 9197   6.923   5.917   5.034 -1.9614  2.7011  1.4903
   94SAPC  C313 9198   6.797   5.837   4.886 -0.0507 -0.8968 -0.6846
   94SAPC  H13X 9199   6.725   5.913   4.847  0.1460 -0.9708 -1.1912
   94SAPC  H13Y 9200   6.746   5.739   4.874 -3.9364  0.7223  0.9643
   94SAPC  C314 9201   6.923   5.830   4.800 -0.0690  0.3146  0.1723
   94SAPC  H14X 9202   6.996   5.781   4.867 -0.9881 -1.0791  0.1822
   94SAPC  H14Y 9203   6.948   5.937   4.783 -0.8493  0.4540 -0.1612
   94SAPC  C315 9204   6.923   5.773   4.657  0.5500 -0.2070  0.5691
   94SAPC  H15X 9205   6.914   5.662   4.662 -2.4583 -0.1499 -1.1874
   94SAPC  H15Y 9206   7.017   5.811   4.612 -0.2315 -0.2017 -1.1732
   94SAPC  C316 9207   6.810   5.829   4.560  0.3000 -0.5700  0.6408
   94SAPC  H16X 9208   6.729   5.850   4.633  0.8649  2.5647  0.5218
   94SAPC  H16Y 9209   6.782   5.756   4.481  2.9639 -0.4930 -0.4704
   94SAPC  C317 9210   6.833   5.972   4.517 -0.1260  0.1233 -0.4307
   94SAPC  H17X 9211   6.921   5.982   4.450 -0.5803  1.8411 -0.8390
   94SAPC  H17Y 9212   6.861   6.028   4.609  1.0778  0.2527 -0.8498
   94SAPC  C318 9213   6.718   6.054   4.460 -0.3053  0.7466  0.0685
   94SAPC  H18X 9214   6.642   6.072   4.539 -0.9184 -0.8613 -0.1207
   94SAPC  H18Y 9215   6.672   5.997   4.377  0.1512 -0.0893  0.3771
   94SAPC  H18Z 9216   6.757   6.148   4.417 -0.2284  0.5321 -0.3350
   95SAPC     N 9217   4.127   1.644   2.321 -0.3378  0.3317 -0.0914
   95SAPC   C12 9218   3.990   1.604   2.255 -0.2041 -0.0570 -0.3248
   95SAPC  H12A 9219   4.008   1.514   2.198  0.9623 -0.2888  0.3687
   95SAPC  H12B 9220   3.955   1.682   2.188 -0.5815  0.0057 -0.0564
   95SAPC   C13 9221   4.167   1.562   2.436 -0.7589 -0.2708 -0.5853
   95SAPC  H13A 9222   4.181   1.459   2.406  1.5738 -0.2777  0.2578
   95SAPC  H13B 9223   4.259   1.603   2.476 -1.1928  1.0605 -0.8942
   95SAPC  H13C 9224   4.091   1.563   2.513 -0.0440 -1.4963  0.1768
   95SAPC   C14 9225   4.236   1.629   2.228 -0.7704  0.4291 -0.1746
   95SAPC  H14A 9226   4.327   1.664   2.274 -1.4111  1.7176  0.1577
   95SAPC  H14B 9227   4.239   1.527   2.192  3.0328  1.0996 -2.3462
   95SAPC  H14C 9228   4.234   1.698   2.145  2.5306  2.1653  1.0292
   95SAPC   C15 9229   4.134   1.782   2.368  0.8345 -0.3799 -0.0078
   95SAPC  H15A 9230   4.063   1.815   2.443 -0.8157  0.3936 -1.8232
   95SAPC  H15B 9231   4.228   1.806   2.416  1.5349 -1.5998 -0.7156
   95SAPC  H15C 9232   4.112   1.846   2.284 -0.9049 -0.7047  0.1669
   95SAPC   C11 9233   3.871   1.576   2.353  0.4517 -0.6198  0.5978
   95SAPC  H11A 9234   3.776   1.585   2.296 -0.3437  0.2652  1.9949
   95SAPC  H11B 9235   3.850   1.653   2.430  0.1563  0.3049 -0.3838
   95SAPC     P 9236   3.834   1.315   2.376 -0.3325  0.0940 -0.0884
   95SAPC   O13 9237   3.871   1.281   2.232  0.4448  0.8562  0.1265
   95SAPC   O14 9238   3.875   1.208   2.478  0.5434  0.0784  0.1592
   95SAPC   O12 9239   3.887   1.455   2.424  0.4347  0.4385  0.0064
   95SAPC   O11 9240   3.675   1.330   2.382 -0.6338  0.3060  0.0142
   95SAPC    C1 9241   3.596   1.372   2.506 -0.5841  0.5941  0.2304
   95SAPC    HA 9242   3.636   1.304   2.584  1.1260 -0.3081 -1.3507
   95SAPC    HB 9243   3.602   1.480   2.529  1.0937  1.1331 -2.2559
   95SAPC    C2 9244   3.451   1.336   2.487  0.1718 -0.7982 -0.2488
   95SAPC    HS 9245   3.448   1.234   2.444 -1.0782 -1.1389  0.5779
   95SAPC   O21 9246   3.394   1.426   2.396 -0.2104  0.3907 -0.0709
   95SAPC   C21 9247   3.263   1.390   2.364 -0.2878  0.6936  0.0207
   95SAPC   O22 9248   3.218   1.279   2.383 -0.6350 -0.2352 -0.0129
   95SAPC   C22 9249   3.186   1.490   2.287  0.0289 -0.6113 -0.1382
   95SAPC   H2R 9250   3.255   1.511   2.202 -0.4698 -1.1729 -0.6963
   95SAPC   H2S 9251   3.088   1.453   2.251  0.5319 -0.5475 -1.6561
   95SAPC    C3 9252   3.378   1.345   2.624  0.0983 -0.0134 -0.0876
   95SAPC    HX 9253   3.268   1.364   2.616  0.4113  3.2834  1.5258
   95SAPC    HY 9254   3.413   1.435   2.680  1.6974  0.0498 -1.1431
   95SAPC   O31 9255   3.390   1.220   2.694 -0.1092  0.6918  0.0050
   95SAPC   C31 9256   3.461   1.217   2.804  0.1497 -0.9120  0.0507
   95SAPC   O32 9257   3.513   1.315   2.857  0.1950  0.1013 -0.1694
   95SAPC   C32 9258   3.483   1.072   2.832  1.2485 -0.0341 -0.0883
   95SAPC   H2X 9259   3.533   1.019   2.748 -0.2036 -0.7441 -0.5274
   95SAPC   H2Y 9260   3.381   1.034   2.852  1.2431  0.3549  0.6502
   95SAPC   C23 9261   3.164   1.633   2.354 -0.0377 -0.2728 -0.2642
   95SAPC   H3R 9262   3.173   1.711   2.275 -0.4794 -1.2740 -1.3460
   95SAPC   H3S 9263   3.246   1.662   2.422  1.3000  0.6886 -2.1895
   95SAPC   C24 9264   3.022   1.650   2.414  0.4433  0.6103 -0.2134
   95SAPC   H4R 9265   2.941   1.611   2.348 -0.2533 -0.4887  1.2339
   95SAPC   H4S 9266   3.007   1.759   2.430  0.4386  0.4254  1.2542
   95SAPC   C25 9267   3.004   1.580   2.548 -0.6217  0.4040  0.1368
   95SAPC   H5R 9268   2.926   1.502   2.556 -0.8527  0.7322  1.3999
   95SAPC   C26 9269   3.081   1.602   2.663 -0.0679  0.4907  0.4174
   95SAPC   H6R 9270   3.058   1.545   2.754  0.3035 -1.7634 -0.8243
   95SAPC   C27 9271   3.170   1.723   2.691 -0.4963  0.1558  0.1320
   95SAPC   H7R 9272   3.112   1.767   2.774 -0.0268  0.7792  0.1374
   95SAPC   H7S 9273   3.170   1.793   2.604  0.4523 -1.2592 -1.0557
   95SAPC   C28 9274   3.311   1.704   2.724 -0.4328  0.2053  0.5540
   95SAPC   H8R 9275   3.390   1.709   2.648  0.1054 -1.0643  0.9880
   95SAPC   C29 9276   3.349   1.696   2.853 -0.0297 -0.2205 -0.0133
   95SAPC   H9R 9277   3.453   1.668   2.876  0.2242  0.5285 -0.2297
   95SAPC  C210 9278   3.271   1.691   2.975 -0.0225  0.2691 -0.3023
   95SAPC  H10R 9279   3.166   1.668   2.945  0.2581  0.0821 -1.1579
   95SAPC  H10S 9280   3.279   1.787   3.029  2.6636  0.7327 -1.3668
   95SAPC  C211 9281   3.305   1.570   3.066  0.0277 -0.1799 -0.0079
   95SAPC  H11R 9282   3.339   1.481   3.010 -1.4009  0.8852 -2.7372
   95SAPC  C212 9283   3.292   1.575   3.201 -0.6721 -0.5778  0.2826
   95SAPC  H12R 9284   3.301   1.479   3.255  1.1751 -0.9637 -0.6311
   95SAPC  C213 9285   3.250   1.695   3.282 -0.0572  0.0374  0.0524
   95SAPC  H13R 9286   3.151   1.671   3.327  0.4129  0.7223  1.5228
   95SAPC  H13S 9287   3.220   1.778   3.215  1.0507 -0.7320 -1.4643
   95SAPC  C214 9288   3.348   1.750   3.384 -0.1176  0.3096  1.4345
   95SAPC  H14R 9289   3.428   1.813   3.343 -1.5119  0.4615 -1.3130
   95SAPC  C215 9290   3.358   1.713   3.515 -0.0270  0.1351 -0.3284
   95SAPC  H15R 9291   3.428   1.772   3.576 -1.7380  0.4204  1.4978
   95SAPC  C216 9292   3.272   1.625   3.597  0.0273  0.7018  0.3987
   95SAPC  H16R 9293   3.320   1.536   3.644 -2.0223 -0.5486  0.2749
   95SAPC  H16S 9294   3.193   1.573   3.539  1.0396 -1.1558  0.6092
   95SAPC  C217 9295   3.206   1.697   3.719  0.0385 -0.0209 -0.0977
   95SAPC  H17R 9296   3.149   1.778   3.669  2.2228  1.6214 -0.0358
   95SAPC  H17S 9297   3.275   1.749   3.788 -0.5045  0.2209  0.2715
   95SAPC  C218 9298   3.111   1.599   3.789 -0.0776 -0.0463  0.5693
   95SAPC  H18R 9299   3.159   1.499   3.776  2.0031  0.8536  0.8543
   95SAPC  H18S 9300   3.014   1.588   3.736  1.0084 -1.8718 -1.1675
   95SAPC  C219 9301   3.101   1.624   3.937  0.1667  0.3014  0.3047
   95SAPC  H19R 9302   3.196   1.661   3.982  0.7274 -0.3963 -0.2906
   95SAPC  H19S 9303   3.061   1.537   3.994 -1.3790  0.9541  0.2601
   95SAPC  C220 9304   3.008   1.734   3.969  0.5151  0.3178  0.4938
   95SAPC  H20R 9305   2.905   1.717   3.930 -0.0510  1.3750  1.4367
   95SAPC  H20S 9306   3.043   1.825   3.916  0.4277  0.6181  0.9344
   95SAPC  H20T 9307   3.000   1.741   4.080 -0.8544  0.1671  0.4204
   95SAPC   C33 9308   3.558   1.049   2.961 -0.4201  0.2908 -0.0375
   95SAPC   H3X 9309   3.491   1.076   3.045 -1.1825  0.5805 -0.7274
   95SAPC   H3Y 9310   3.646   1.117   2.951  0.4521 -0.8701 -0.5405
   95SAPC   C34 9311   3.602   0.898   2.982 -0.0913  0.4694 -0.0404
   95SAPC   H4X 9312   3.642   0.861   2.885  0.2390  1.0901 -0.1456
   95SAPC   H4Y 9313   3.501   0.851   2.980  0.1979 -0.2850 -3.7101
   95SAPC   C35 9314   3.688   0.865   3.101 -0.4886 -0.4582 -0.2022
   95SAPC   H5X 9315   3.791   0.905   3.088 -1.3739  2.6784  1.3680
   95SAPC   H5Y 9316   3.691   0.755   3.111  0.5370 -0.4459 -0.3163
   95SAPC   C36 9317   3.640   0.928   3.230  0.4851 -0.3810  0.4157
   95SAPC   H6X 9318   3.537   0.892   3.250 -0.3275  1.0366 -0.9496
   95SAPC   H6Y 9319   3.639   1.039   3.230  1.0552 -0.3530 -0.8749
   95SAPC   C37 9320   3.722   0.883   3.360 -0.4437 -0.0709  0.3581
   95SAPC   H7X 9321   3.826   0.915   3.342 -0.0862 -0.7540  1.1512
   95SAPC   H7Y 9322   3.731   0.772   3.351  1.7723  0.1889 -1.2737
   95SAPC   C38 9323   3.670   0.938   3.492  0.7593 -0.4909  0.1006
   95SAPC   H8X 9324   3.560   0.940   3.483  0.7562 -0.8380  0.0324
   95SAPC   H8Y 9325   3.701   1.044   3.499 -2.3710  0.7672 -2.4936
   95SAPC   C39 9326   3.699   0.850   3.612 -0.4732 -0.6137  0.2782
   95SAPC   H9X 9327   3.809   0.847   3.625 -0.3180 -0.3946 -0.8697
   95SAPC   H9Y 9328   3.667   0.753   3.569 -1.7351  0.7869 -2.1677
   95SAPC  C310 9329   3.630   0.890   3.743 -0.3959  0.3086  0.2915
   95SAPC  H10X 9330   3.535   0.836   3.763 -0.7702 -0.2286 -2.4789
   95SAPC  H10Y 9331   3.606   0.998   3.739  2.4008  1.0349  1.0678
   95SAPC  C311 9332   3.729   0.865   3.854  0.3063  0.1134 -0.2631
   95SAPC  H11X 9333   3.813   0.935   3.833  0.9041 -1.2822 -3.1204
   95SAPC  H11Y 9334   3.760   0.759   3.840 -2.0937 -0.6111 -0.4087
   95SAPC  C312 9335   3.677   0.907   3.992  0.0915 -0.0799 -0.0228
   95SAPC  H12X 9336   3.591   0.840   4.014  0.3611 -0.1879  0.7163
   95SAPC  H12Y 9337   3.640   1.011   3.978 -0.2997 -0.5173 -2.8534
   95SAPC  C313 9338   3.794   0.902   4.091  0.3422  0.7618  0.5186
   95SAPC  H13X 9339   3.871   0.822   4.083  1.1858  1.6524 -0.9165
   95SAPC  H13Y 9340   3.753   0.874   4.190 -1.3122  1.5831  0.1059
   95SAPC  C314 9341   3.875   1.028   4.127  0.1892 -0.0128 -0.4102
   95SAPC  H14X 9342   3.795   1.102   4.150 -1.9656 -1.3912 -2.9045
   95SAPC  H14Y 9343   3.933   1.058   4.037  1.7400  1.1060  0.9161
   95SAPC  C315 9344   3.971   0.998   4.244 -0.1156  0.9008 -0.1866
   95SAPC  H15X 9345   4.036   0.916   4.205  2.0210  1.5203  1.8233
   95SAPC  H15Y 9346   3.901   0.948   4.314 -0.4344  0.6763 -0.6590
   95SAPC  C316 9347   4.061   1.110   4.304  0.3146  0.1436 -0.3488
   95SAPC  H16X 9348   4.110   1.055   4.387  1.5029 -1.5329 -2.0735
   95SAPC  H16Y 9349   4.004   1.197   4.343  0.6773  0.4952 -0.6091
   95SAPC  C317 9350   4.153   1.157   4.194  0.1054  0.3028  1.5042
   95SAPC  H17X 9351   4.088   1.222   4.132  0.0726  0.5919  1.8430
   95SAPC  H17Y 9352   4.198   1.069   4.143  0.7867  0.1346  2.3788
   95SAPC  C318 9353   4.268   1.250   4.243  0.1122 -0.2947 -0.0344
   95SAPC  H18X 9354   4.275   1.290   4.347  3.3636  1.2869 -0.7290
   95SAPC  H18Y 9355   4.267   1.336   4.173 -1.1767  0.0334  0.3618
   95SAPC  H18Z 9356   4.362   1.195   4.222 -0.3297 -0.4962 -1.5442
   96SAPC     N 9357   3.400   2.503   1.703  0.1474 -0.2798  0.0043
   96SAPC   C12 9358   3.394   2.599   1.823  0.0664  0.1960 -0.0913
   96SAPC  H12A 9359   3.296   2.644   1.830 -0.1642 -0.4900  1.5654
   96SAPC  H12B 9360   3.466   2.678   1.809 -0.6646  0.5096 -2.5627
   96SAPC   C13 9361   3.547   2.469   1.682 -0.4150  0.6863 -0.4043
   96SAPC  H13A 9362   3.556   2.390   1.608 -0.7881 -1.3757  1.6396
   96SAPC  H13B 9363   3.590   2.558   1.638  0.7601  1.0306  1.3525
   96SAPC  H13C 9364   3.589   2.430   1.773  1.4772  1.0741 -1.0520
   96SAPC   C14 9365   3.323   2.373   1.731 -0.5814  0.7409 -0.0645
   96SAPC  H14A 9366   3.331   2.304   1.648  1.3665 -0.9418  1.3834
   96SAPC  H14B 9367   3.363   2.325   1.820 -0.8822  0.9823  0.2022
   96SAPC  H14C 9368   3.220   2.399   1.750 -0.4886  0.0981  1.4800
   96SAPC   C15 9369   3.341   2.560   1.583  0.2920 -0.2448  0.0483
   96SAPC  H15A 9370   3.405   2.643   1.557 -0.2767  1.3107  3.2047
   96SAPC  H15B 9371   3.329   2.488   1.503  0.7234 -0.0460 -0.1985
   96SAPC  H15C 9372   3.240   2.595   1.596  0.1054 -0.3561 -0.9768
   96SAPC   C11 9373   3.421   2.534   1.967 -0.0157  0.0375 -0.7078
   96SAPC  H11A 9374   3.431   2.608   2.048 -0.3938 -0.1646 -0.4750
   96SAPC  H11B 9375   3.526   2.500   1.954 -0.1981 -0.0216 -2.2122
   96SAPC     P 9376   3.173   2.478   2.028  0.4204 -0.4202 -0.0970
   96SAPC   O13 9377   3.126   2.558   1.911 -0.6774  0.0382  0.4153
   96SAPC   O14 9378   3.100   2.362   2.075  0.3710  0.2828 -0.1948
   96SAPC   O12 9379   3.327   2.426   2.002 -0.1762  0.1134  0.0772
   96SAPC   O11 9380   3.176   2.577   2.148  0.3042 -0.2346 -0.2146
   96SAPC    C1 9381   3.253   2.555   2.264  0.1904  0.1697 -0.0834
   96SAPC    HA 9382   3.202   2.471   2.318 -0.6176  1.3339  1.0138
   96SAPC    HB 9383   3.358   2.531   2.237 -0.3006  0.3550 -2.3166
   96SAPC    C2 9384   3.243   2.676   2.359  0.6730 -0.8232 -0.3130
   96SAPC    HS 9385   3.298   2.652   2.453  0.0923 -0.3629  0.1578
   96SAPC   O21 9386   3.102   2.703   2.383  0.7450 -0.1213  0.0195
   96SAPC   C21 9387   3.036   2.625   2.466  0.7739 -0.3239 -0.2199
   96SAPC   O22 9388   3.086   2.531   2.524  0.8042  0.3383  0.7634
   96SAPC   C22 9389   2.899   2.683   2.492 -0.2686  0.3496  0.6976
   96SAPC   H2R 9390   2.896   2.779   2.435  1.4117 -0.0021 -0.0374
   96SAPC   H2S 9391   2.827   2.615   2.442  0.4317  0.1742 -0.0748
   96SAPC    C3 9392   3.296   2.801   2.307  0.4192  1.4489  1.3863
   96SAPC    HX 9393   3.240   2.818   2.212 -0.5123  0.0041  1.6422
   96SAPC    HY 9394   3.400   2.788   2.272 -0.0736 -2.9793  1.0452
   96SAPC   O31 9395   3.287   2.909   2.405  0.0352 -0.2315  0.8408
   96SAPC   C31 9396   3.190   3.004   2.381  0.0618  0.5992 -0.5099
   96SAPC   O32 9397   3.111   2.998   2.290  0.6868  0.0449  0.3045
   96SAPC   C32 9398   3.192   3.110   2.488  0.0704  0.4705  0.6400
   96SAPC   H2X 9399   3.089   3.138   2.518 -0.2249 -0.1685  0.2390
   96SAPC   H2Y 9400   3.236   3.200   2.438 -0.0741  0.1512 -0.0821
   96SAPC   C23 9401   2.867   2.719   2.638 -0.3440  0.5132  0.4227
   96SAPC   H3R 9402   2.945   2.780   2.688  1.2603 -0.4371 -0.7953
   96SAPC   H3S 9403   2.857   2.625   2.697 -1.3099  0.8808  0.8646
   96SAPC   C24 9404   2.742   2.798   2.641  0.2539 -0.3765  1.2271
   96SAPC   H4R 9405   2.693   2.806   2.741 -1.6904 -1.0260  0.3630
   96SAPC   H4S 9406   2.669   2.736   2.586  1.9303 -1.3858  0.0567
   96SAPC   C25 9407   2.747   2.940   2.579  0.6529 -0.1453 -0.2749
   96SAPC   H5R 9408   2.709   2.953   2.477  0.1590  0.4222 -0.0248
   96SAPC   C26 9409   2.783   3.056   2.642 -0.8964  0.1861  0.0074
   96SAPC   H6R 9410   2.801   3.147   2.584  0.0230  0.1834  0.2754
   96SAPC   C27 9411   2.834   3.078   2.781 -0.3482  0.6462  0.1886
   96SAPC   H7R 9412   2.939   3.114   2.774 -0.4887  1.0418  0.0472
   96SAPC   H7S 9413   2.839   2.982   2.836 -1.5621 -0.0160 -0.8131
   96SAPC   C28 9414   2.772   3.188   2.856 -0.3656 -0.1085 -0.1196
   96SAPC   H8R 9415   2.691   3.249   2.814 -1.5627 -0.0320  2.1440
   96SAPC   C29 9416   2.810   3.223   2.983 -0.4165  0.0277  0.1358
   96SAPC   H9R 9417   2.754   3.304   3.033 -0.1140 -0.8760  2.0111
   96SAPC  C210 9418   2.919   3.152   3.067  0.1268 -0.3930 -0.0228
   96SAPC  H10R 9419   3.006   3.221   3.077 -0.1422  0.0479 -0.6410
   96SAPC  H10S 9420   2.965   3.063   3.019 -1.3062 -1.6308  0.8293
   96SAPC  C211 9421   2.868   3.130   3.208  0.1579  0.8414  0.7820
   96SAPC  H11R 9422   2.761   3.109   3.215 -0.0495  1.1609 -1.0243
   96SAPC  C212 9423   2.938   3.159   3.321  0.6862  0.5502 -0.6106
   96SAPC  H12R 9424   2.895   3.144   3.421 -0.2862  0.0217 -1.0938
   96SAPC  C213 9425   3.080   3.214   3.329  0.4520 -0.0099 -0.5730
   96SAPC  H13R 9426   3.136   3.174   3.242 -0.3885 -0.3187 -0.9851
   96SAPC  H13S 9427   3.124   3.171   3.422 -1.1541 -0.0679  0.1961
   96SAPC  C214 9428   3.091   3.363   3.322 -0.7304 -0.8331 -0.2196
   96SAPC  H14R 9429   3.120   3.408   3.226 -0.7507  1.8516  0.9412
   96SAPC  C215 9430   3.091   3.455   3.429  0.6405  0.7122  0.8737
   96SAPC  H15R 9431   3.095   3.561   3.401 -2.5765  0.2467 -1.9614
   96SAPC  C216 9432   3.074   3.415   3.573 -0.3726  0.1216 -0.2775
   96SAPC  H16R 9433   3.033   3.312   3.584 -0.7195  0.1715 -1.0005
   96SAPC  H16S 9434   3.014   3.479   3.639  2.7098  1.8338  1.0892
   96SAPC  C217 9435   3.218   3.389   3.625 -0.5307 -0.3712  0.3800
   96SAPC  H17R 9436   3.272   3.485   3.608  0.7112 -1.5824 -3.5604
   96SAPC  H17S 9437   3.274   3.322   3.557  1.2323  0.2386  1.1697
   96SAPC  C218 9438   3.215   3.342   3.773  0.0858 -0.5192 -0.1998
   96SAPC  H18R 9439   3.161   3.245   3.769  0.0743 -0.5527  0.6720
   96SAPC  H18S 9440   3.157   3.417   3.831  1.3334  0.2187  0.1113
   96SAPC  C219 9441   3.354   3.326   3.844 -0.4698  0.4196 -0.2034
   96SAPC  H19R 9442   3.421   3.415   3.849  3.5105 -2.3531  1.6488
   96SAPC  H19S 9443   3.420   3.246   3.802  0.3219 -1.1745  3.6721
   96SAPC  C220 9444   3.336   3.283   3.990 -0.4683  0.1293 -0.2927
   96SAPC  H20R 9445   3.295   3.369   4.047  2.8314  0.2444  2.1595
   96SAPC  H20S 9446   3.432   3.261   4.040  1.0455 -1.4466 -3.5661
   96SAPC  H20T 9447   3.286   3.185   4.003  1.3508 -1.1052 -1.9912
   96SAPC   C33 9448   3.287   3.081   2.609 -0.5162 -0.4580 -0.0457
   96SAPC   H3X 9449   3.383   3.042   2.570  0.4208  0.2602  1.4368
   96SAPC   H3Y 9450   3.247   2.992   2.662  1.4148 -1.4976 -0.2344
   96SAPC   C34 9451   3.308   3.204   2.700 -0.1776  0.9811  0.5999
   96SAPC   H4X 9452   3.367   3.272   2.635  1.0111 -0.0984  0.5189
   96SAPC   H4Y 9453   3.365   3.179   2.792  0.6190 -0.0058 -0.1488
   96SAPC   C35 9454   3.178   3.270   2.744  0.1567 -0.1599  0.4302
   96SAPC   H5X 9455   3.119   3.209   2.817  0.5535  0.9767  1.7418
   96SAPC   H5Y 9456   3.116   3.295   2.655 -0.2199  0.8007  0.9516
   96SAPC   C36 9457   3.196   3.400   2.823  0.6988  0.1563 -0.2261
   96SAPC   H6X 9458   3.094   3.437   2.847  0.4935 -0.4281 -0.1984
   96SAPC   H6Y 9459   3.247   3.478   2.762  0.4393 -0.9778 -1.9764
   96SAPC   C37 9460   3.275   3.389   2.958 -0.5027 -0.1400  0.0624
   96SAPC   H7X 9461   3.378   3.357   2.930 -0.4598 -0.6217  0.7421
   96SAPC   H7Y 9462   3.232   3.310   3.024  1.4027 -0.0600  1.4697
   96SAPC   C38 9463   3.275   3.522   3.027  0.1738 -1.3930  0.5317
   96SAPC   H8X 9464   3.174   3.556   3.058  1.3706  1.9290  1.1942
   96SAPC   H8Y 9465   3.320   3.593   2.954  2.1552 -2.0100  1.0869
   96SAPC   C39 9466   3.371   3.532   3.145  1.2936 -0.6634  0.0663
   96SAPC   H9X 9467   3.468   3.484   3.120  1.0770 -0.4948 -1.1700
   96SAPC   H9Y 9468   3.328   3.474   3.229 -1.0418 -1.5132 -1.6325
   96SAPC  C310 9469   3.411   3.678   3.187 -0.0916  0.0166 -0.2256
   96SAPC  H10X 9470   3.338   3.751   3.145  2.3238  1.8224 -1.5638
   96SAPC  H10Y 9471   3.505   3.707   3.136  0.2661  0.0621  0.4562
   96SAPC  C311 9472   3.420   3.721   3.332  0.4918 -0.1652  0.7554
   96SAPC  H11X 9473   3.326   3.687   3.380  0.9400 -0.5927  1.3411
   96SAPC  H11Y 9474   3.424   3.832   3.337  0.8425 -0.0757 -0.8572
   96SAPC  C312 9475   3.530   3.659   3.427 -0.0353 -0.4964  0.0411
   96SAPC  H12X 9476   3.629   3.685   3.383 -0.6876 -0.7159 -1.6206
   96SAPC  H12Y 9477   3.523   3.548   3.420  0.0032 -0.4183 -1.4577
   96SAPC  C313 9478   3.529   3.713   3.574 -0.1644 -0.5546 -0.2107
   96SAPC  H13X 9479   3.434   3.686   3.624  0.9541 -2.9030  0.7595
   96SAPC  H13Y 9480   3.532   3.824   3.569  0.9468 -0.6019 -1.0520
   96SAPC  C314 9481   3.637   3.654   3.664 -0.0735  1.1581 -0.3328
   96SAPC  H14X 9482   3.736   3.652   3.615  0.6650 -0.0370  1.1332
   96SAPC  H14Y 9483   3.618   3.545   3.674  1.9296  0.9489  2.1706
   96SAPC  C315 9484   3.636   3.702   3.808  0.4237 -0.2015 -0.2136
   96SAPC  H15X 9485   3.620   3.620   3.881 -1.3663  0.3204  0.0290
   96SAPC  H15Y 9486   3.553   3.775   3.817 -0.6178 -1.4996  1.1038
   96SAPC  C316 9487   3.763   3.782   3.852  0.2966  0.2099 -0.5803
   96SAPC  H16X 9488   3.724   3.831   3.944  1.9707  1.7739 -0.6575
   96SAPC  H16Y 9489   3.781   3.875   3.795  0.1759  1.3790  1.1957
   96SAPC  C317 9490   3.889   3.694   3.854  0.6525  0.5638  0.3011
   96SAPC  H17X 9491   3.892   3.627   3.766 -0.8944  1.5609 -0.5483
   96SAPC  H17Y 9492   3.877   3.616   3.932 -1.3317  1.8404  1.3829
   96SAPC  C318 9493   4.013   3.777   3.884  0.2016  0.5193  0.7599
   96SAPC  H18X 9494   4.034   3.836   3.792 -0.7332  1.9290  1.4181
   96SAPC  H18Y 9495   4.101   3.712   3.900  0.0511  0.0536 -0.2029
   96SAPC  H18Z 9496   3.996   3.849   3.967 -0.8615  1.0511  0.1199
   97SAPC     N 9497   2.310   2.008   1.951 -0.2300  0.2222  0.0547
   97SAPC   C12 9498   2.333   1.861   1.962  0.4197  0.4887  0.1214
   97SAPC  H12A 9499   2.391   1.836   2.050 -0.1639  1.2209  0.7210
   97SAPC  H12B 9500   2.384   1.822   1.875 -2.6563  0.5113 -1.8577
   97SAPC   C13 9501   2.206   2.035   1.845  0.8564 -0.1567  0.0142
   97SAPC  H13A 9502   2.247   2.027   1.745  0.9447  1.3535 -0.1018
   97SAPC  H13B 9503   2.110   1.987   1.848  0.2003  1.1678  1.6732
   97SAPC  H13C 9504   2.179   2.140   1.852  1.9398  0.6413 -4.4653
   97SAPC   C14 9505   2.270   2.073   2.084  0.0752 -0.4942  0.4511
   97SAPC  H14A 9506   2.179   2.031   2.124 -0.0298 -0.4042  0.3061
   97SAPC  H14B 9507   2.345   2.065   2.162 -0.0970  1.6672  0.8894
   97SAPC  H14C 9508   2.252   2.179   2.078  2.3271  0.0409  1.8609
   97SAPC   C15 9509   2.438   2.075   1.915 -0.5501 -0.3628 -0.7314
   97SAPC  H15A 9510   2.429   2.181   1.934  1.2382 -0.5564  1.6836
   97SAPC  H15B 9511   2.521   2.041   1.974 -0.6815  1.2108  0.4313
   97SAPC  H15C 9512   2.457   2.069   1.809 -0.9354 -0.4427 -0.7955
   97SAPC   C11 9513   2.205   1.778   1.987 -0.5822 -0.3001  0.4166
   97SAPC  H11A 9514   2.146   1.767   1.894 -0.9393  1.3055  0.4238
   97SAPC  H11B 9515   2.129   1.818   2.058 -1.9905  0.2592 -1.3320
   97SAPC     P 9516   2.233   1.517   1.978 -0.4282  0.2004  0.4894
   97SAPC   O13 9517   2.148   1.524   1.858 -0.1996 -0.1406  0.4869
   97SAPC   O14 9518   2.363   1.446   1.954 -0.1144 -0.5838  0.1974
   97SAPC   O12 9519   2.251   1.663   2.049 -0.2696  0.1508 -0.1941
   97SAPC   O11 9520   2.157   1.425   2.087 -0.6618 -0.4554 -0.0289
   97SAPC    C1 9521   2.211   1.432   2.217 -0.2745  0.6438 -0.0121
   97SAPC    HA 9522   2.173   1.341   2.268 -0.8870  1.2806  0.6923
   97SAPC    HB 9523   2.322   1.429   2.217 -0.1712 -2.9220 -3.3767
   97SAPC    C2 9524   2.155   1.551   2.310 -0.4114  0.2741 -0.0581
   97SAPC    HS 9525   2.198   1.649   2.281 -0.0814 -0.1911 -1.2284
   97SAPC   O21 9526   2.181   1.517   2.447  0.4720  0.3657 -0.3572
   97SAPC   C21 9527   2.307   1.536   2.485 -0.4198 -0.1888 -0.2273
   97SAPC   O22 9528   2.397   1.590   2.414  0.5269 -0.2520  0.0593
   97SAPC   C22 9529   2.334   1.466   2.610  0.2426  0.5582 -0.0520
   97SAPC   H2R 9530   2.363   1.362   2.581 -0.6764  0.2706  0.0262
   97SAPC   H2S 9531   2.427   1.501   2.660  0.8491 -0.6654 -0.2895
   97SAPC    C3 9532   2.009   1.564   2.281 -0.3163 -0.3327  0.0260
   97SAPC    HX 9533   1.965   1.462   2.276 -0.9100 -0.0180 -1.9576
   97SAPC    HY 9534   1.990   1.610   2.182 -0.6197  0.7975  0.5924
   97SAPC   O31 9535   1.957   1.650   2.381  0.5528 -0.2162  0.1054
   97SAPC   C31 9536   1.842   1.610   2.434 -0.0453  0.2263  0.0229
   97SAPC   O32 9537   1.777   1.515   2.396  0.1151  0.3779 -0.5038
   97SAPC   C32 9538   1.805   1.714   2.544  0.2190  0.1197  0.1663
   97SAPC   H2X 9539   1.757   1.799   2.491  0.0817  1.4758  2.3630
   97SAPC   H2Y 9540   1.897   1.757   2.589 -0.9407  1.5100  1.3135
   97SAPC   C23 9541   2.216   1.435   2.703 -0.3810  0.1067 -0.7797
   97SAPC   H3R 9542   2.150   1.362   2.651 -3.0944  0.9197  1.3006
   97SAPC   H3S 9543   2.154   1.526   2.711 -0.7515 -0.2131  0.0148
   97SAPC   C24 9544   2.261   1.390   2.837 -0.5432  0.1081 -1.0024
   97SAPC   H4R 9545   2.342   1.317   2.816 -1.1618 -0.4961 -1.2982
   97SAPC   H4S 9546   2.181   1.327   2.880  0.3766 -0.5777 -0.2531
   97SAPC   C25 9547   2.310   1.498   2.936 -1.0169 -0.2870 -0.0341
   97SAPC   H5R 9548   2.312   1.603   2.902  0.2901 -0.0361  0.7475
   97SAPC   C26 9549   2.304   1.485   3.069 -0.2130 -0.4310  0.4586
   97SAPC   H6R 9550   2.301   1.577   3.128 -2.3704 -0.2918  0.2279
   97SAPC   C27 9551   2.277   1.358   3.148  0.3755 -0.4678  0.2348
   97SAPC   H7R 9552   2.223   1.273   3.099  0.6104 -0.0349 -0.8145
   97SAPC   H7S 9553   2.204   1.380   3.229  0.7227  1.1106  0.1520
   97SAPC   C28 9554   2.412   1.312   3.210  0.6980 -0.8832  0.4044
   97SAPC   H8R 9555   2.474   1.259   3.137 -0.8757  1.3014 -2.7619
   97SAPC   C29 9556   2.450   1.319   3.338 -0.2291 -0.1661 -0.5733
   97SAPC   H9R 9557   2.556   1.298   3.359 -0.1925  1.2335  0.7882
   97SAPC  C210 9558   2.364   1.371   3.457 -0.3817  0.6198 -0.2265
   97SAPC  H10R 9559   2.302   1.459   3.427  2.0501  2.8936  1.0375
   97SAPC  H10S 9560   2.430   1.401   3.541 -1.1941  0.1004  0.6182
   97SAPC  C211 9561   2.273   1.258   3.506  0.3468  0.3551 -0.5236
   97SAPC  H11R 9562   2.202   1.225   3.429 -0.0643 -2.4959  0.9352
   97SAPC  C212 9563   2.265   1.199   3.636  0.4150  0.0032  0.2686
   97SAPC  H12R 9564   2.194   1.120   3.665  1.5968 -1.0689  0.3429
   97SAPC  C213 9565   2.352   1.247   3.749 -0.0218  0.2356  0.2108
   97SAPC  H13R 9566   2.307   1.252   3.850 -1.1743 -0.7990 -0.2272
   97SAPC  H13S 9567   2.382   1.353   3.734  2.6396 -0.4393  0.1789
   97SAPC  C214 9568   2.481   1.171   3.753 -0.4398 -0.1287  0.0288
   97SAPC  H14R 9569   2.517   1.142   3.653  0.5867  1.7230 -0.1861
   97SAPC  C215 9570   2.533   1.118   3.866 -0.1126  0.5222  0.2389
   97SAPC  H15R 9571   2.632   1.070   3.866 -0.6582 -0.6547  0.7151
   97SAPC  C216 9572   2.470   1.139   4.012  0.1834 -0.2077  0.0395
   97SAPC  H16R 9573   2.414   1.045   4.032  1.4088 -0.8011  0.7747
   97SAPC  H16S 9574   2.393   1.219   4.021  0.5044  0.0357  0.6967
   97SAPC  C217 9575   2.578   1.143   4.126 -0.5728 -0.2640  0.2261
   97SAPC  H17R 9576   2.509   1.165   4.210  0.1149 -1.4175  1.1281
   97SAPC  H17S 9577   2.649   1.228   4.128  0.4699 -1.1064  2.5272
   97SAPC  C218 9578   2.641   1.000   4.135 -0.5776  0.0716  0.8078
   97SAPC  H18R 9579   2.709   0.975   4.050 -0.3200 -1.0463  1.3206
   97SAPC  H18S 9580   2.560   0.926   4.118 -0.7914  0.7803 -1.6982
   97SAPC  C219 9581   2.736   0.974   4.250 -0.2566  0.1331 -0.3396
   97SAPC  H19R 9582   2.830   1.032   4.248  0.2228 -0.6268 -0.3561
   97SAPC  H19S 9583   2.777   0.871   4.246 -0.2879  0.0683  0.8220
   97SAPC  C220 9584   2.672   0.990   4.388 -0.9482 -0.0548  0.8428
   97SAPC  H20R 9585   2.757   1.000   4.459 -0.3972 -0.0251  0.1894
   97SAPC  H20S 9586   2.607   0.903   4.412 -0.4921 -0.4623  0.6150
   97SAPC  H20T 9587   2.621   1.089   4.390 -0.3138  0.4036 -1.8287
   97SAPC   C33 9588   1.708   1.661   2.646  0.4058  0.0347  0.3008
   97SAPC   H3X 9589   1.635   1.588   2.606 -0.9851  0.6113  1.6927
   97SAPC   H3Y 9590   1.646   1.749   2.675 -1.4570 -1.4210  0.9602
   97SAPC   C34 9591   1.771   1.629   2.788  0.7220  0.1262  0.3484
   97SAPC   H4X 9592   1.690   1.656   2.859  0.2523 -1.3817  0.4221
   97SAPC   H4Y 9593   1.860   1.695   2.794  0.2796  0.8701 -0.8959
   97SAPC   C35 9594   1.816   1.488   2.814  0.2420  0.4764 -0.0311
   97SAPC   H5X 9595   1.875   1.441   2.733  0.1417 -0.1046  0.2299
   97SAPC   H5Y 9596   1.719   1.436   2.829  0.4485  0.3399  0.9006
   97SAPC   C36 9597   1.906   1.477   2.944 -1.3008 -0.2093 -0.3411
   97SAPC   H6X 9598   1.999   1.529   2.912  0.8293 -2.9959  0.8512
   97SAPC   H6Y 9599   1.923   1.370   2.968 -0.3272  0.3807  1.8689
   97SAPC   C37 9600   1.848   1.553   3.072  0.3382 -0.3702 -0.2167
   97SAPC   H7X 9601   1.740   1.527   3.061  0.8601 -4.5831  2.1434
   97SAPC   H7Y 9602   1.868   1.662   3.064 -1.2875 -0.1691 -2.4906
   97SAPC   C38 9603   1.899   1.489   3.200  0.4979  0.1153  0.4518
   97SAPC   H8X 9604   2.001   1.446   3.211  1.2088  0.9783 -1.9461
   97SAPC   H8Y 9605   1.828   1.407   3.222 -1.2005  1.1203 -0.9939
   97SAPC   C39 9606   1.902   1.571   3.325 -0.2829 -0.1694  0.4861
   97SAPC   H9X 9607   1.804   1.616   3.354 -0.1183  1.8464 -1.7992
   97SAPC   H9Y 9608   1.965   1.661   3.312 -2.0380  0.8863 -1.3577
   97SAPC  C310 9609   1.956   1.482   3.436  0.3694  0.5078 -0.5768
   97SAPC  H10X 9610   2.066   1.474   3.425  0.1232 -3.3810 -1.5369
   97SAPC  H10Y 9611   1.912   1.381   3.429  0.5335  0.5197 -2.1397
   97SAPC  C311 9612   1.946   1.543   3.579  0.4295  0.4202  0.0326
   97SAPC  H11X 9613   1.844   1.575   3.609  0.2469 -1.0854  1.1512
   97SAPC  H11Y 9614   2.002   1.639   3.570  1.2726  0.1795  2.1956
   97SAPC  C312 9615   2.018   1.467   3.692 -0.1938 -0.6095  0.8662
   97SAPC  H12X 9616   2.127   1.461   3.669 -0.0574  1.8258  0.6224
   97SAPC  H12Y 9617   1.978   1.364   3.706 -1.9240 -0.1030 -0.0906
   97SAPC  C313 9618   2.022   1.545   3.824 -0.4310  0.2017  0.1072
   97SAPC  H13X 9619   1.922   1.578   3.859 -2.0427 -2.0940 -2.0220
   97SAPC  H13Y 9620   2.086   1.636   3.822 -1.3029  0.8146 -1.7152
   97SAPC  C314 9621   2.078   1.461   3.942 -0.1412  0.0850  0.1505
   97SAPC  H14X 9622   2.138   1.374   3.908 -1.0994 -1.1384  1.4397
   97SAPC  H14Y 9623   2.001   1.398   3.993 -0.1735 -1.6881 -1.9469
   97SAPC  C315 9624   2.160   1.538   4.049 -0.3109  0.2720 -0.4284
   97SAPC  H15X 9625   2.214   1.615   3.990 -0.0769 -1.5563 -2.7698
   97SAPC  H15Y 9626   2.230   1.470   4.102 -1.1869 -1.7182 -1.6838
   97SAPC  C316 9627   2.065   1.613   4.147  0.3824  0.3570 -0.0083
   97SAPC  H16X 9628   1.991   1.666   4.084 -0.0381  0.0583  0.2323
   97SAPC  H16Y 9629   2.115   1.682   4.218  0.1856  0.1945  0.2861
   97SAPC  C317 9630   1.984   1.518   4.241  0.1432 -0.3023 -0.3435
   97SAPC  H17X 9631   2.057   1.445   4.284 -0.1280  0.6390  1.8425
   97SAPC  H17Y 9632   1.911   1.468   4.174  0.8052 -1.3754 -0.2976
   97SAPC  C318 9633   1.914   1.595   4.357  0.2439 -0.0167 -0.5774
   97SAPC  H18X 9634   1.873   1.514   4.421  2.1826 -0.4709  0.1730
   97SAPC  H18Y 9635   1.835   1.661   4.315  1.0874  1.5038  0.1688
   97SAPC  H18Z 9636   1.980   1.658   4.421  0.4764 -0.3762 -0.4582
   98SAPC     N 9637   6.695   2.995   1.826 -0.3426  0.8500  0.2826
   98SAPC   C12 9638   6.688   2.841   1.804 -0.4583  0.1230  0.4933
   98SAPC  H12A 9639   6.782   2.801   1.840 -0.0529  2.5190  2.3967
   98SAPC  H12B 9640   6.684   2.821   1.698 -1.6028 -1.8547  0.8482
   98SAPC   C13 9641   6.705   3.030   1.967 -0.0909 -0.5670 -0.8580
   98SAPC  H13A 9642   6.794   2.984   2.009  0.9634  1.7613 -0.3517
   98SAPC  H13B 9643   6.722   3.134   1.988  0.1580 -0.9855  1.3341
   98SAPC  H13C 9644   6.621   2.986   2.019  0.8830 -1.7454 -0.2120
   98SAPC   C14 9645   6.815   3.048   1.752  0.0658 -0.2480  0.3551
   98SAPC  H14A 9646   6.910   3.028   1.800  0.5450 -2.1649 -1.2031
   98SAPC  H14B 9647   6.820   2.998   1.656  0.9240 -1.0874  0.8175
   98SAPC  H14C 9648   6.805   3.154   1.736  2.2264 -0.4702 -3.8428
   98SAPC   C15 9649   6.587   3.067   1.764 -0.0103 -0.3890 -0.1326
   98SAPC  H15A 9650   6.497   3.035   1.815  1.7265 -2.5548  1.8006
   98SAPC  H15B 9651   6.599   3.174   1.755 -1.0227 -0.4201 -2.6638
   98SAPC  H15C 9652   6.576   3.035   1.661 -1.5125  0.8629 -0.4040
   98SAPC   C11 9653   6.579   2.763   1.873 -0.2227 -0.1109  0.4577
   98SAPC  H11A 9654   6.583   2.659   1.834 -3.2961  0.1948 -0.9686
   98SAPC  H11B 9655   6.479   2.808   1.854 -0.1751 -0.0148  0.4355
   98SAPC     P 9656   6.706   2.662   2.081  0.7263 -0.2111  0.2825
   98SAPC   O13 9657   6.637   2.533   2.105 -0.2659  0.1873 -0.0779
   98SAPC   O14 9658   6.830   2.658   2.002 -0.4938 -0.1863  0.0851
   98SAPC   O12 9659   6.602   2.768   2.014  0.0879  0.0698 -0.5433
   98SAPC   O11 9660   6.736   2.737   2.220  0.0859 -0.4164  0.3299
   98SAPC    C1 9661   6.639   2.719   2.331  0.2641 -0.6870 -0.1580
   98SAPC    HA 9662   6.584   2.623   2.330 -0.0988 -0.4910  0.5939
   98SAPC    HB 9663   6.695   2.711   2.426 -1.2409 -2.4507  0.6444
   98SAPC    C2 9664   6.537   2.833   2.338  0.2427 -0.4757 -0.0197
   98SAPC    HS 9665   6.488   2.833   2.238 -2.4021 -1.5023  1.1772
   98SAPC   O21 9666   6.601   2.964   2.370  0.4114 -0.3349  0.0076
   98SAPC   C21 9667   6.555   3.070   2.304  0.3867  0.5050 -0.5564
   98SAPC   O22 9668   6.490   3.066   2.206 -0.4956 -0.0255 -0.2233
   98SAPC   C22 9669   6.604   3.195   2.380 -0.8722  0.7431 -0.0366
   98SAPC   H2R 9670   6.694   3.183   2.445 -0.7195  3.3829  0.3511
   98SAPC   H2S 9671   6.625   3.269   2.299  2.1593  0.1694  0.0906
   98SAPC    C3 9672   6.429   2.803   2.445 -0.2915 -0.5083 -0.0043
   98SAPC    HX 9673   6.482   2.795   2.542 -0.0103 -3.7634 -0.3357
   98SAPC    HY 9674   6.390   2.700   2.431  0.0014 -0.5750 -0.3335
   98SAPC   O31 9675   6.322   2.902   2.445 -0.3782  0.5460  0.8826
   98SAPC   C31 9676   6.212   2.881   2.367 -0.1340 -0.1095 -0.3479
   98SAPC   O32 9677   6.195   2.786   2.294  0.4264 -0.0281 -0.6338
   98SAPC   C32 9678   6.116   2.998   2.389 -0.3646  0.2618  0.2093
   98SAPC   H2X 9679   6.084   3.037   2.291  0.1424 -0.9771 -0.4766
   98SAPC   H2Y 9680   6.157   3.084   2.447 -5.8986  2.5308  1.3908
   98SAPC   C23 9681   6.495   3.267   2.464 -0.0390 -0.1280  0.1249
   98SAPC   H3R 9682   6.408   3.283   2.396  0.7767  0.8065 -0.7157
   98SAPC   H3S 9683   6.526   3.373   2.466 -1.0767  0.2058 -0.3520
   98SAPC   C24 9684   6.455   3.201   2.594 -0.5259 -0.5851 -0.0674
   98SAPC   H4R 9685   6.546   3.190   2.658 -1.4341 -0.7138  1.2472
   98SAPC   H4S 9686   6.423   3.094   2.592 -0.8072 -0.5439  1.3390
   98SAPC   C25 9687   6.350   3.279   2.676  0.5380  0.2486  0.5165
   98SAPC   H5R 9688   6.258   3.308   2.623  0.8417  0.6742  0.2122
   98SAPC   C26 9689   6.370   3.321   2.799  0.9429  0.4051 -0.5587
   98SAPC   H6R 9690   6.295   3.382   2.853  3.5403  1.2421  2.4455
   98SAPC   C27 9691   6.488   3.296   2.893 -0.5506  0.3639  0.0116
   98SAPC   H7R 9692   6.544   3.203   2.868 -3.5467 -1.0323 -2.2395
   98SAPC   H7S 9693   6.432   3.290   2.989 -1.3557 -0.6302 -0.4954
   98SAPC   C28 9694   6.570   3.422   2.885 -0.4085 -0.3919 -0.2074
   98SAPC   H8R 9695   6.628   3.434   2.792 -0.1883  0.0187 -0.0160
   98SAPC   C29 9696   6.579   3.512   2.985  0.3108  0.4499  0.8985
   98SAPC   H9R 9697   6.648   3.597   2.974  1.4029 -0.4201  0.9159
   98SAPC  C210 9698   6.509   3.518   3.118 -0.6549  0.3279 -0.6246
   98SAPC  H10R 9699   6.581   3.555   3.194  0.2799  0.2607 -1.4481
   98SAPC  H10S 9700   6.479   3.421   3.161  0.0943  0.9581  1.4448
   98SAPC  C211 9701   6.388   3.613   3.128 -0.3140 -0.5617  0.1677
   98SAPC  H11R 9702   6.385   3.692   3.052  1.4856 -1.0865 -0.5008
   98SAPC  C212 9703   6.297   3.619   3.219 -0.1416 -0.1600 -0.4407
   98SAPC  H12R 9704   6.214   3.691   3.215  0.0831  0.4566  2.9615
   98SAPC  C213 9705   6.309   3.524   3.341  0.2383  0.1452 -0.7171
   98SAPC  H13R 9706   6.411   3.536   3.384 -0.0673 -1.7478  0.6749
   98SAPC  H13S 9707   6.308   3.417   3.311  4.7131  0.0608 -1.2412
   98SAPC  C214 9708   6.223   3.563   3.453 -0.6574 -0.1660 -0.4941
   98SAPC  H14R 9709   6.246   3.667   3.483 -1.9084  0.0534 -0.2714
   98SAPC  C215 9710   6.141   3.484   3.531 -0.2289 -0.2617  0.8466
   98SAPC  H15R 9711   6.067   3.526   3.601 -2.4583 -0.8142 -1.0661
   98SAPC  C216 9712   6.115   3.338   3.501  0.3846 -0.1997 -0.2297
   98SAPC  H16R 9713   6.108   3.289   3.601 -1.2992  0.0239 -0.2142
   98SAPC  H16S 9714   6.201   3.294   3.446 -0.0607  1.1653 -2.0887
   98SAPC  C217 9715   5.981   3.316   3.431  0.1871  0.1714  0.1219
   98SAPC  H17R 9716   5.893   3.359   3.483 -1.0160 -1.6651 -0.2935
   98SAPC  H17S 9717   5.968   3.206   3.429  0.8843 -0.0438  3.1880
   98SAPC  C218 9718   5.991   3.366   3.287  0.2882  0.3473 -0.5393
   98SAPC  H18R 9719   6.084   3.324   3.243  1.5530  3.2159 -0.8906
   98SAPC  H18S 9720   6.014   3.475   3.279  0.4003  0.4581  0.9356
   98SAPC  C219 9721   5.856   3.325   3.218 -0.2791  0.4791  0.3273
   98SAPC  H19R 9722   5.763   3.369   3.259  0.6694  0.6959  2.4320
   98SAPC  H19S 9723   5.859   3.214   3.228  2.8434  0.1941 -2.1311
   98SAPC  C220 9724   5.864   3.377   3.077  0.1970  0.1804  0.0506
   98SAPC  H20R 9725   5.959   3.348   3.028  1.5635  2.3605  1.2358
   98SAPC  H20S 9726   5.854   3.487   3.064  1.4647  0.2909 -0.0656
   98SAPC  H20T 9727   5.784   3.320   3.024  1.1350 -1.0297 -0.1084
   98SAPC   C33 9728   5.985   2.940   2.457 -0.2881  0.0056 -0.2971
   98SAPC   H3X 9729   6.004   2.891   2.555  1.3188 -1.8911 -1.4883
   98SAPC   H3Y 9730   5.934   2.865   2.393 -2.0091 -0.0666  1.0611
   98SAPC   C34 9731   5.878   3.055   2.486  0.8579  0.3908  0.3979
   98SAPC   H4X 9732   5.839   3.097   2.390 -2.0115 -1.4211  0.6735
   98SAPC   H4Y 9733   5.928   3.139   2.539  0.9011 -0.4743  1.7712
   98SAPC   C35 9734   5.758   3.001   2.573 -0.0504 -0.6445 -0.0611
   98SAPC   H5X 9735   5.774   3.012   2.682 -1.5108  0.4336  0.0820
   98SAPC   H5Y 9736   5.727   2.897   2.551 -2.5326  0.0673 -0.2555
   98SAPC   C36 9737   5.625   3.074   2.535  0.3132  0.4223  0.4212
   98SAPC   H6X 9738   5.613   3.085   2.425 -0.6911 -0.6770  0.4021
   98SAPC   H6Y 9739   5.621   3.170   2.591 -2.5569  1.1096 -0.8099
   98SAPC   C37 9740   5.503   2.987   2.596 -0.0579 -0.0491  0.1237
   98SAPC   H7X 9741   5.480   2.905   2.524 -1.8925 -0.2875  0.9195
   98SAPC   H7Y 9742   5.409   3.047   2.600  0.1968  0.3034  0.8760
   98SAPC   C38 9743   5.515   2.953   2.744  0.0425 -0.5372 -0.3997
   98SAPC   H8X 9744   5.591   2.874   2.762 -1.1220 -1.7579 -0.7558
   98SAPC   H8Y 9745   5.424   2.899   2.776 -0.3234  0.0185 -0.4795
   98SAPC   C39 9746   5.527   3.070   2.845  0.2969  0.0634  0.5710
   98SAPC   H9X 9747   5.525   3.167   2.789 -1.8193  0.1728  0.7585
   98SAPC   H9Y 9748   5.627   3.071   2.894  1.7083  3.0703 -1.9562
   98SAPC  C310 9749   5.412   3.069   2.950  0.0657  0.3795 -0.1597
   98SAPC  H10X 9750   5.315   3.045   2.903 -1.1183  1.9622  1.3446
   98SAPC  H10Y 9751   5.408   3.179   2.962  3.1818  0.5436  0.4753
   98SAPC  C311 9752   5.428   2.992   3.086  0.5019  0.0588 -0.2344
   98SAPC  H11X 9753   5.537   2.981   3.104  0.3694  0.0324  0.5760
   98SAPC  H11Y 9754   5.380   2.892   3.077  0.3263  0.1449 -0.2554
   98SAPC  C312 9755   5.369   3.069   3.211 -0.6005 -0.2560  0.4745
   98SAPC  H12X 9756   5.259   3.076   3.197 -0.7386 -0.0853  1.5515
   98SAPC  H12Y 9757   5.399   3.176   3.206 -0.3270 -0.2973  1.1726
   98SAPC  C313 9758   5.406   3.009   3.346 -0.8086 -1.2126  0.7156
   98SAPC  H13X 9759   5.516   2.999   3.350 -0.8025 -1.3192  0.2709
   98SAPC  H13Y 9760   5.364   2.907   3.365 -1.5097 -0.5411  3.1820
   98SAPC  C314 9761   5.359   3.093   3.467  1.0650 -0.2720  0.2167
   98SAPC  H14X 9762   5.259   3.063   3.503  2.0857 -0.9103  2.7682
   98SAPC  H14Y 9763   5.367   3.200   3.437  3.5230 -0.5064 -0.1757
   98SAPC  C315 9764   5.440   3.074   3.591  0.2055  0.0090  0.6008
   98SAPC  H15X 9765   5.546   3.101   3.575 -0.0141  0.1885 -0.7028
   98SAPC  H15Y 9766   5.458   2.967   3.613 -2.6414 -0.8139 -0.5216
   98SAPC  C316 9767   5.390   3.150   3.715  0.1359 -0.5838 -0.8360
   98SAPC  H16X 9768   5.466   3.143   3.796  0.6850  1.2981 -1.1536
   98SAPC  H16Y 9769   5.296   3.102   3.751 -0.3034  0.2421 -0.8566
   98SAPC  C317 9770   5.362   3.303   3.688 -0.0808 -0.0883 -0.1354
   98SAPC  H17X 9771   5.290   3.319   3.605 -0.1543 -2.0316 -0.4824
   98SAPC  H17Y 9772   5.454   3.341   3.641 -0.1801 -0.5005 -0.6646
   98SAPC  C318 9773   5.329   3.384   3.816 -0.1411 -0.0430 -0.1561
   98SAPC  H18X 9774   5.231   3.350   3.857 -0.8058  1.3522 -0.5304
   98SAPC  H18Y 9775   5.309   3.489   3.787 -3.0658 -0.5624 -0.3383
   98SAPC  H18Z 9776   5.414   3.372   3.885 -1.3725 -1.7232  1.1593
   99SAPC     N 9777   3.903   5.980   1.805 -0.0359  0.3693 -0.1250
   99SAPC   C12 9778   3.975   6.040   1.922  0.4746  0.3247  0.2991
   99SAPC  H12A 9779   4.051   5.967   1.946  0.1715 -0.6857 -1.5915
   99SAPC  H12B 9780   3.912   6.042   2.010 -0.2083  2.1675 -0.1917
   99SAPC   C13 9781   3.968   6.014   1.674 -0.0251  0.0971 -0.0029
   99SAPC  H13A 9782   3.920   5.956   1.597  1.1959 -0.3006 -0.4753
   99SAPC  H13B 9783   3.962   6.120   1.651 -0.0703  0.5028  1.7305
   99SAPC  H13C 9784   4.074   5.994   1.680 -0.1085 -0.3611 -0.0657
   99SAPC   C14 9785   3.897   5.833   1.822 -0.0852 -0.3625 -0.1571
   99SAPC  H14A 9786   3.873   5.814   1.926 -0.6955  1.5656  0.0821
   99SAPC  H14B 9787   3.813   5.800   1.763 -1.0781  2.4615 -0.4609
   99SAPC  H14C 9788   3.994   5.790   1.801 -0.7796 -2.0828 -0.0521
   99SAPC   C15 9789   3.757   6.027   1.798  0.0807 -0.0218 -0.4728
   99SAPC  H15A 9790   3.705   5.996   1.888  0.4489  0.2554 -0.1599
   99SAPC  H15B 9791   3.764   6.135   1.806 -0.0644 -0.0009 -0.6293
   99SAPC  H15C 9792   3.706   5.997   1.708  0.3573 -1.9698 -0.0223
   99SAPC   C11 9793   4.034   6.186   1.906  0.0076 -0.2953  0.4977
   99SAPC  H11A 9794   4.091   6.183   1.811  0.3136 -0.6455  0.6894
   99SAPC  H11B 9795   4.092   6.214   1.997  1.1316 -0.6403 -0.0955
   99SAPC     P 9796   3.873   6.354   2.022  0.2705  0.0313 -0.0467
   99SAPC   O13 9797   3.976   6.452   2.068 -0.0568  0.3589  0.7675
   99SAPC   O14 9798   3.734   6.393   1.994  0.5139 -0.1525  0.4638
   99SAPC   O12 9799   3.920   6.278   1.887 -0.0817  0.1797  0.1953
   99SAPC   O11 9800   3.864   6.228   2.113 -0.1678  0.1281 -0.8286
   99SAPC    C1 9801   3.744   6.171   2.164 -0.6093  0.3793 -0.6547
   99SAPC    HA 9802   3.668   6.170   2.083 -0.7891  1.8486 -0.5273
   99SAPC    HB 9803   3.772   6.067   2.190 -0.6097  0.4094 -0.5318
   99SAPC    C2 9804   3.687   6.237   2.297  1.1568 -0.5849  0.5501
   99SAPC    HS 9805   3.662   6.343   2.277 -0.4540 -1.1370 -0.6045
   99SAPC   O21 9806   3.789   6.223   2.399 -0.3906 -0.6360 -0.6481
   99SAPC   C21 9807   3.787   6.308   2.496 -0.2243  0.6511 -0.4894
   99SAPC   O22 9808   3.718   6.410   2.501 -0.5646  0.4818 -0.3158
   99SAPC   C22 9809   3.872   6.256   2.601 -0.5862 -0.3303 -0.2882
   99SAPC   H2R 9810   3.866   6.145   2.604  0.6737 -0.4154 -0.5191
   99SAPC   H2S 9811   3.976   6.287   2.579 -0.5843  0.5613  0.8880
   99SAPC    C3 9812   3.547   6.175   2.346  0.3029  0.2953 -0.2522
   99SAPC    HX 9813   3.574   6.070   2.371  1.4071  0.8083  0.8079
   99SAPC    HY 9814   3.479   6.170   2.257 -0.6504 -0.2290  0.4790
   99SAPC   O31 9815   3.483   6.238   2.453  0.5564  0.8713 -0.4174
   99SAPC   C31 9816   3.423   6.354   2.419  0.0538 -0.0951  0.9151
   99SAPC   O32 9817   3.405   6.392   2.298 -0.5867 -0.1219 -0.0627
   99SAPC   C32 9818   3.383   6.432   2.545  0.5816  0.0621 -0.0099
   99SAPC   H2X 9819   3.273   6.450   2.544  0.6696  0.8096  1.3029
   99SAPC   H2Y 9820   3.423   6.535   2.536 -1.1979  0.7567 -0.3701
   99SAPC   C23 9821   3.840   6.311   2.734  0.3604 -0.3793 -0.5474
   99SAPC   H3R 9822   3.743   6.276   2.776  0.5912  0.6822  0.9505
   99SAPC   H3S 9823   3.834   6.421   2.726  1.4197 -0.1884  1.0206
   99SAPC   C24 9824   3.950   6.278   2.843  0.7360 -0.9384  0.5433
   99SAPC   H4R 9825   3.909   6.328   2.934 -1.3395 -0.4893 -0.5814
   99SAPC   H4S 9826   4.047   6.325   2.818  0.1918 -0.4688 -0.7772
   99SAPC   C25 9827   3.976   6.136   2.860 -0.5441  0.0492 -0.6156
   99SAPC   H5R 9828   4.043   6.093   2.784  0.4140  0.4883 -0.0405
   99SAPC   C26 9829   3.926   6.055   2.952 -0.6108  0.0374  0.0698
   99SAPC   H6R 9830   3.957   5.950   2.942  1.4000  0.3369  2.1970
   99SAPC   C27 9831   3.844   6.099   3.070 -0.7037  0.2200 -0.4124
   99SAPC   H7R 9832   3.761   6.159   3.027 -0.8165 -0.7365 -1.5624
   99SAPC   H7S 9833   3.903   6.176   3.124 -0.7077 -0.9249  1.3045
   99SAPC   C28 9834   3.784   5.992   3.157 -0.6035  0.0019 -0.0357
   99SAPC   H8R 9835   3.740   5.910   3.098  0.5361 -1.2499  0.7990
   99SAPC   C29 9836   3.797   5.980   3.289 -1.0140 -1.0223 -0.5898
   99SAPC   H9R 9837   3.751   5.888   3.328  0.9182 -2.0067 -0.5241
   99SAPC  C210 9838   3.873   6.065   3.393  0.5660  0.7192 -0.1136
   99SAPC  H10R 9839   3.977   6.083   3.356  1.2741 -1.0005  0.9149
   99SAPC  H10S 9840   3.877   6.001   3.483  0.1213  1.3113  0.3339
   99SAPC  C211 9841   3.797   6.193   3.420 -0.2189 -0.1248 -0.4376
   99SAPC  H11R 9842   3.729   6.238   3.346 -3.4607 -1.0861  1.7394
   99SAPC  C212 9843   3.824   6.266   3.532  0.3640 -0.1030  0.8105
   99SAPC  H12R 9844   3.781   6.367   3.535 -0.1070 -0.2915  0.5094
   99SAPC  C213 9845   3.906   6.235   3.652 -0.0145 -0.8626 -0.4692
   99SAPC  H13R 9846   3.943   6.337   3.676 -3.7675  0.4921  0.3093
   99SAPC  H13S 9847   3.998   6.184   3.618 -0.3094 -0.6518 -1.6238
   99SAPC  C214 9848   3.835   6.177   3.773 -0.0113  0.4067 -0.6038
   99SAPC  H14R 9849   3.725   6.171   3.767  0.0223  0.3850 -1.2188
   99SAPC  C215 9850   3.898   6.112   3.871 -0.3798 -0.1760  0.3908
   99SAPC  H15R 9851   3.841   6.062   3.951 -0.6031  1.6728  1.4568
   99SAPC  C216 9852   4.044   6.111   3.881  0.0967  0.7190 -0.3340
   99SAPC  H16R 9853   4.070   6.110   3.989  0.7521  2.4310 -0.4505
   99SAPC  H16S 9854   4.085   6.204   3.837 -0.6454  1.0281 -0.3770
   99SAPC  C217 9855   4.108   5.994   3.815  0.1192 -0.0527  0.1605
   99SAPC  H17R 9856   4.216   6.010   3.799 -0.0916  2.3152  0.7014
   99SAPC  H17S 9857   4.065   5.968   3.716  1.3653 -0.9003 -0.1745
   99SAPC  C218 9858   4.082   5.861   3.902 -0.1169  0.3898 -0.2426
   99SAPC  H18R 9859   3.973   5.844   3.902 -0.2471  1.0028  1.3672
   99SAPC  H18S 9860   4.112   5.894   4.005  0.3633  0.6508 -0.4589
   99SAPC  C219 9861   4.162   5.743   3.860  0.5168 -0.8238 -0.6114
   99SAPC  H19R 9862   4.177   5.665   3.938  0.3099 -2.6744 -2.3580
   99SAPC  H19S 9863   4.261   5.789   3.838  0.1583 -0.0355 -0.6253
   99SAPC  C220 9864   4.107   5.677   3.738  0.6321  0.6628  0.8608
   99SAPC  H20R 9865   4.107   5.740   3.647 -2.3984 -0.8923 -0.3804
   99SAPC  H20S 9866   4.004   5.639   3.758  0.4778 -0.0194 -1.0413
   99SAPC  H20T 9867   4.176   5.591   3.722  1.2741  1.1636  0.9352
   99SAPC   C33 9868   3.421   6.363   2.683 -0.2706 -0.2111  0.2908
   99SAPC   H3X 9869   3.524   6.323   2.679 -0.6777 -1.2484 -0.4362
   99SAPC   H3Y 9870   3.362   6.271   2.700 -2.7245  0.8701 -1.6822
   99SAPC   C34 9871   3.400   6.440   2.806 -0.1277  0.0461  0.0534
   99SAPC   H4X 9872   3.292   6.462   2.817  0.1452  2.2425 -1.0712
   99SAPC   H4Y 9873   3.462   6.532   2.795  0.0705 -0.0022  0.7387
   99SAPC   C35 9874   3.441   6.373   2.940 -0.8462 -0.9043 -0.5388
   99SAPC   H5X 9875   3.552   6.361   2.944 -0.7913 -0.2137  1.7368
   99SAPC   H5Y 9876   3.403   6.268   2.938 -1.8115 -0.6033  0.8992
   99SAPC   C36 9877   3.397   6.436   3.072 -0.3031 -0.1877  0.6592
   99SAPC   H6X 9878   3.286   6.439   3.075 -0.3420  0.6541 -0.7056
   99SAPC   H6Y 9879   3.431   6.541   3.087 -3.6470  1.0820  0.0442
   99SAPC   C37 9880   3.452   6.355   3.195  0.1669 -0.3126  0.8855
   99SAPC   H7X 9881   3.562   6.347   3.199  0.2518  0.3505  0.0628
   99SAPC   H7Y 9882   3.402   6.257   3.178  0.0333  0.2400 -2.4501
   99SAPC   C38 9883   3.401   6.425   3.325  0.1079 -0.4349  0.0277
   99SAPC   H8X 9884   3.295   6.449   3.306  0.0501  0.1015  1.0054
   99SAPC   H8Y 9885   3.463   6.517   3.330  0.3111 -0.5021 -1.0351
   99SAPC   C39 9886   3.417   6.345   3.454  0.4143  0.0811 -0.6337
   99SAPC   H9X 9887   3.524   6.339   3.481  0.6875  1.7102 -1.2674
   99SAPC   H9Y 9888   3.394   6.238   3.433  2.4435 -0.6402  0.5256
   99SAPC  C310 9889   3.326   6.403   3.566 -0.0261 -0.1386  0.0642
   99SAPC  H10X 9890   3.223   6.363   3.553 -0.1831  0.0693  0.6219
   99SAPC  H10Y 9891   3.326   6.514   3.565 -0.0574 -0.0736  2.2023
   99SAPC  C311 9892   3.364   6.349   3.706 -0.3926  0.1005  0.4009
   99SAPC  H11X 9893   3.473   6.360   3.725 -0.1985  1.4893 -1.2249
   99SAPC  H11Y 9894   3.357   6.239   3.695  2.0738 -0.0675 -0.2008
   99SAPC  C312 9895   3.271   6.414   3.806  0.2696  0.1878  0.4594
   99SAPC  H12X 9896   3.166   6.403   3.773  0.9382  0.3179 -1.8356
   99SAPC  H12Y 9897   3.284   6.524   3.813 -0.6309  0.4415 -1.3544
   99SAPC  C313 9898   3.279   6.351   3.946 -0.0365  0.3818 -0.6490
   99SAPC  H13X 9899   3.379   6.322   3.985  0.4618  1.8581 -0.7719
   99SAPC  H13Y 9900   3.238   6.249   3.931 -0.6082  0.2079  1.7259
   99SAPC  C314 9901   3.190   6.420   4.055  0.2221  0.0247  0.2922
   99SAPC  H14X 9902   3.091   6.445   4.011  0.3969  0.6464  0.2479
   99SAPC  H14Y 9903   3.242   6.511   4.091  1.4932 -0.9249  0.9795
   99SAPC  C315 9904   3.159   6.331   4.175  0.4441 -0.2853 -0.2557
   99SAPC  H15X 9905   3.246   6.340   4.243  0.3699 -1.1061 -0.0516
   99SAPC  H15Y 9906   3.166   6.228   4.135  0.5647  0.0903 -1.2370
   99SAPC  C316 9907   3.035   6.359   4.255  1.0392 -0.4549  0.6080
   99SAPC  H16X 9908   2.943   6.349   4.193 -0.2276  0.8864  2.1655
   99SAPC  H16Y 9909   3.037   6.459   4.303  0.0563  0.5963 -1.3756
   99SAPC  C317 9910   3.017   6.251   4.359 -0.0026 -0.0411  0.2511
   99SAPC  H17X 9911   3.018   6.153   4.307 -0.0135  0.3926 -0.5729
   99SAPC  H17Y 9912   2.910   6.256   4.391 -0.9425 -0.4116 -2.5602
   99SAPC  C318 9913   3.115   6.234   4.478 -0.1244 -0.1732  0.7400
   99SAPC  H18X 9914   3.216   6.235   4.433 -0.0718  1.4666  0.8259
   99SAPC  H18Y 9915   3.096   6.141   4.535 -3.6012  0.5342  0.9658
   99SAPC  H18Z 9916   3.094   6.322   4.543  0.0150  0.7064 -0.3670
  100SAPC     N 9917   1.980   6.374   1.646 -0.0380 -0.9446 -0.4086
  100SAPC   C12 9918   1.852   6.439   1.601  0.2060 -0.2049 -0.2346
  100SAPC  H12A 9919   1.782   6.374   1.550 -0.7778  0.8411 -0.2682
  100SAPC  H12B 9920   1.880   6.515   1.530 -0.3413  0.1404 -0.0896
  100SAPC   C13 9921   2.052   6.465   1.741  0.0977  0.3669  0.7597
  100SAPC  H13A 9922   1.983   6.479   1.823  0.3045  1.5399  0.7511
  100SAPC  H13B 9923   2.138   6.419   1.786 -1.6445 -3.1958  0.7906
  100SAPC  H13C 9924   2.070   6.562   1.697 -3.9384 -0.0629 -2.4671
  100SAPC   C14 9925   1.937   6.244   1.708  0.1264  0.3906  0.3983
  100SAPC  H14A 9926   1.915   6.176   1.627  2.7520  2.4875 -2.3133
  100SAPC  H14B 9927   2.022   6.200   1.758 -0.0609  0.7067  1.0078
  100SAPC  H14C 9928   1.857   6.253   1.780 -0.6688 -0.0893 -0.3980
  100SAPC   C15 9929   2.078   6.353   1.533  0.6291  0.4185 -0.4685
  100SAPC  H15A 9930   2.172   6.318   1.572  1.0963  2.6524  0.5668
  100SAPC  H15B 9931   2.031   6.275   1.474 -1.4850  1.0107  0.3236
  100SAPC  H15C 9932   2.104   6.444   1.481  1.2996  0.0829 -0.7337
  100SAPC   C11 9933   1.765   6.517   1.706  0.0177 -0.6281 -0.5481
  100SAPC  H11A 9934   1.667   6.555   1.669 -0.6867  0.9237  2.5809
  100SAPC  H11B 9935   1.816   6.610   1.740 -0.9048 -0.3750  0.1980
  100SAPC     P 9936   1.737   6.468   1.968  0.1746 -0.2573 -0.1656
  100SAPC   O13 9937   1.681   6.356   2.051 -0.7057  0.3824  0.1593
  100SAPC   O14 9938   1.870   6.527   1.993  0.3476  0.0987  0.9170
  100SAPC   O12 9939   1.731   6.429   1.818 -0.2938  0.2568  0.6091
  100SAPC   O11 9940   1.627   6.586   1.974 -0.2667 -0.4426  1.0789
  100SAPC    C1 9941   1.655   6.708   2.035  0.1581  0.0289 -0.5550
  100SAPC    HA 9942   1.756   6.749   2.019  1.2790 -1.3384  2.3092
  100SAPC    HB 9943   1.578   6.773   1.987  1.6737  0.7144 -2.1260
  100SAPC    C2 9944   1.623   6.705   2.189 -0.6285 -0.1681 -0.3058
  100SAPC    HS 9945   1.631   6.812   2.219  1.8493 -1.0466  2.7124
  100SAPC   O21 9946   1.727   6.623   2.244  0.1985 -0.4459  0.3847
  100SAPC   C21 9947   1.847   6.681   2.268  0.4402  0.4976 -0.1257
  100SAPC   O22 9948   1.881   6.796   2.247  0.0140  0.0103  0.4341
  100SAPC   C22 9949   1.931   6.575   2.344 -0.1655  0.1626 -0.5806
  100SAPC   H2R 9950   1.947   6.487   2.279  0.5704  0.7340 -1.1911
  100SAPC   H2S 9951   2.027   6.621   2.375 -0.1969 -1.3306  1.9996
  100SAPC    C3 9952   1.479   6.649   2.219  0.1923  0.0824  0.1219
  100SAPC    HX 9953   1.470   6.540   2.202 -2.2467  0.2314  0.0711
  100SAPC    HY 9954   1.417   6.698   2.141  1.8968  3.0150  0.4337
  100SAPC   O31 9955   1.414   6.699   2.344  0.0496 -0.2819  0.1310
  100SAPC   C31 9956   1.417   6.615   2.443  0.4471 -0.0691 -0.0883
  100SAPC   O32 9957   1.473   6.504   2.445 -0.2289  0.4181 -0.1821
  100SAPC   C32 9958   1.336   6.673   2.566 -0.9717 -0.5049 -0.2679
  100SAPC   H2X 9959   1.228   6.649   2.557 -0.6092 -2.0607 -0.6525
  100SAPC   H2Y 9960   1.349   6.783   2.561 -1.2577 -0.4334  0.4781
  100SAPC   C23 9961   1.865   6.528   2.474  0.3353 -0.4474  0.2379
  100SAPC   H3R 9962   1.907   6.428   2.498 -0.0187 -0.5677  0.3526
  100SAPC   H3S 9963   1.764   6.497   2.440  0.8553  0.1252 -1.9717
  100SAPC   C24 9964   1.865   6.627   2.598 -0.0939  0.3868 -0.2493
  100SAPC   H4R 9965   1.792   6.710   2.584 -0.8897 -0.2748 -0.0781
  100SAPC   H4S 9966   1.958   6.687   2.603  0.0355  0.1716 -0.0581
  100SAPC   C25 9967   1.822   6.563   2.731 -0.0924 -0.3862  0.3118
  100SAPC   H5R 9968   1.731   6.504   2.715  0.6707 -1.3716 -0.5115
  100SAPC   C26 9969   1.873   6.586   2.855 -0.3721 -0.4189 -0.6718
  100SAPC   H6R 9970   1.823   6.530   2.936 -0.7202 -0.6767 -1.0664
  100SAPC   C27 9971   1.995   6.675   2.883 -0.2251 -0.2419 -0.2436
  100SAPC   H7R 9972   1.964   6.770   2.931  3.2402  1.0653 -0.3328
  100SAPC   H7S 9973   2.045   6.715   2.792 -1.7244  0.9647 -0.5836
  100SAPC   C28 9974   2.099   6.609   2.969 -0.4019  0.5371  0.3001
  100SAPC   H8R 9975   2.190   6.575   2.917 -1.0867 -0.3216 -0.3857
  100SAPC   C29 9976   2.103   6.615   3.099 -0.1549 -0.5090 -0.1270
  100SAPC   H9R 9977   2.193   6.572   3.146  0.3105  1.8631  1.2829
  100SAPC  C210 9978   2.018   6.683   3.203  0.3408 -0.0520 -0.6333
  100SAPC  H10R 9979   1.935   6.731   3.147 -1.1095 -2.0103 -0.2645
  100SAPC  H10S 9980   2.072   6.766   3.254 -0.9062  1.1566 -1.2461
  100SAPC  C211 9981   1.946   6.588   3.298 -0.2846 -0.2765 -0.0423
  100SAPC  H11R 9982   1.873   6.516   3.260 -2.6478 -0.1663  3.7631
  100SAPC  C212 9983   1.957   6.586   3.433  0.1444  0.0791  0.3165
  100SAPC  H12R 9984   1.876   6.534   3.487 -1.7063 -2.3198 -4.1832
  100SAPC  C213 9985   2.046   6.662   3.520 -1.2545  0.0511  0.1305
  100SAPC  H13R 9986   1.973   6.709   3.590 -2.1738 -1.7009  0.4021
  100SAPC  H13S 9987   2.093   6.744   3.462 -0.7505 -1.0526 -1.0777
  100SAPC  C214 9988   2.154   6.565   3.577  0.3530 -0.7884 -0.7022
  100SAPC  H14R 9989   2.110   6.469   3.606 -1.7719  0.2857 -0.1549
  100SAPC  C215 9990   2.291   6.584   3.579 -0.0823 -0.0955 -0.1366
  100SAPC  H15R 9991   2.345   6.508   3.636  1.5726  0.8740 -0.3528
  100SAPC  C216 9992   2.366   6.709   3.532 -0.5261 -0.5117  0.0508
  100SAPC  H16R 9993   2.416   6.761   3.617  1.7676 -1.5311 -0.5820
  100SAPC  H16S 9994   2.320   6.794   3.477  0.1186 -0.0379  0.2258
  100SAPC  C217 9995   2.496   6.679   3.449  0.8611 -0.4499 -0.4308
  100SAPC  H17R 9996   2.561   6.602   3.496 -0.2863 -1.0627  0.1934
  100SAPC  H17S 9997   2.563   6.767   3.440  0.3800  0.0107  0.4023
  100SAPC  C218 9998   2.454   6.624   3.307 -0.3932 -0.2356 -0.5112
  100SAPC  H18R 9999   2.378   6.694   3.267  0.3556 -0.6518 -2.7869
  100SAPC  H18S10000   2.396   6.530   3.319 -0.1907 -0.4037 -0.8318
  100SAPC  C21910001   2.574   6.605   3.209  0.5226 -0.3993 -0.6169
  100SAPC  H19R10002   2.627   6.701   3.200 -0.8663  0.9628  3.4274
  100SAPC  H19S10003   2.530   6.582   3.109 -0.1982 -0.5238 -0.2814
  100SAPC  C22010004   2.683   6.512   3.259 -0.2715  0.7670 -0.8376
  100SAPC  H20R10005   2.641   6.409   3.268  1.8026 -0.0134  0.9875
  100SAPC  H20S10006   2.730   6.549   3.353  0.2654 -2.7535  0.4448
  100SAPC  H20T10007   2.768   6.515   3.187 -1.0633  2.5377 -1.7524
  100SAPC   C3310008   1.382   6.627   2.704  0.3693 -0.7443  0.3385
  100SAPC   H3X10009   1.405   6.518   2.706 -0.4325 -0.9242  0.2343
  100SAPC   H3Y10010   1.297   6.649   2.773 -0.2465 -1.4052 -0.1953
  100SAPC   C3410011   1.502   6.690   2.777 -0.5589 -0.5348  0.8882
  100SAPC   H4X10012   1.487   6.800   2.784 -1.5395 -0.6572  0.9474
  100SAPC   H4Y10013   1.588   6.671   2.710 -0.3218  4.8597 -0.7547
  100SAPC   C3510014   1.514   6.659   2.925  0.2418  0.4881 -0.3313
  100SAPC   H5X10015   1.423   6.694   2.978  0.2121  1.1985 -0.8310
  100SAPC   H5Y10016   1.608   6.702   2.967 -0.2948  1.5714 -0.1880
  100SAPC   C3610017   1.516   6.506   2.944 -0.5194 -0.0147 -0.1816
  100SAPC   H6X10018   1.588   6.475   2.866 -0.9303  0.5310 -0.7933
  100SAPC   H6Y10019   1.419   6.457   2.917 -0.1472 -0.1514 -1.3467
  100SAPC   C3710020   1.551   6.465   3.086  0.3768  0.1119 -0.0212
  100SAPC   H7X10021   1.648   6.504   3.122  1.7939 -1.4756 -1.9143
  100SAPC   H7Y10022   1.573   6.356   3.092 -0.8827 -0.2343 -1.0280
  100SAPC   C3810023   1.440   6.503   3.187 -0.4632  1.2024  0.0930
  100SAPC   H8X10024   1.352   6.436   3.182 -1.4603  2.5626 -1.7665
  100SAPC   H8Y10025   1.413   6.610   3.174  0.1491  1.1533 -1.8690
  100SAPC   C3910026   1.495   6.499   3.332  0.3725 -0.2612  0.1790
  100SAPC   H9X10027   1.585   6.562   3.350 -0.2762  1.1625 -1.3068
  100SAPC   H9Y10028   1.526   6.393   3.349  0.1321 -0.4339 -0.4700
  100SAPC  C31010029   1.385   6.507   3.440 -0.2030  0.1034  0.0666
  100SAPC  H10X10030   1.325   6.414   3.426  0.3661 -0.0286 -1.7731
  100SAPC  H10Y10031   1.310   6.585   3.414  0.5545  0.3980 -1.3869
  100SAPC  C31110032   1.422   6.538   3.586 -0.3724 -0.4104  0.1590
  100SAPC  H11X10033   1.483   6.458   3.633  0.6035  1.3884  2.1392
  100SAPC  H11Y10034   1.327   6.536   3.642 -0.2131 -0.0226  0.4520
  100SAPC  C31210035   1.490   6.676   3.596  0.0326  0.1046  0.3950
  100SAPC  H12X10036   1.409   6.745   3.564 -0.4991 -0.3263  0.7990
  100SAPC  H12Y10037   1.579   6.670   3.530  0.6591 -2.9103  1.3392
  100SAPC  C31310038   1.538   6.701   3.734  0.2144  0.0306  0.3395
  100SAPC  H13X10039   1.448   6.714   3.797  0.9108  0.3311  1.3012
  100SAPC  H13Y10040   1.588   6.801   3.732  0.4280 -0.0715  0.5092
  100SAPC  C31410041   1.616   6.587   3.798 -0.2865  0.3188  0.1542
  100SAPC  H14X10042   1.662   6.529   3.715 -0.3854 -0.6635  0.7729
  100SAPC  H14Y10043   1.546   6.520   3.853 -0.6334 -1.5488 -2.4280
  100SAPC  C31510044   1.737   6.639   3.884 -0.2554 -0.5167  0.0597
  100SAPC  H15X10045   1.801   6.712   3.829 -0.0796 -1.2693 -0.7550
  100SAPC  H15Y10046   1.803   6.550   3.897  1.8604  0.9914  0.1409
  100SAPC  C31610047   1.693   6.696   4.017  0.8615  1.5680 -0.1221
  100SAPC  H16X10048   1.616   6.633   4.066  0.3513  0.2403 -2.4646
  100SAPC  H16Y10049   1.654   6.798   3.999 -0.6016  0.9807 -0.4047
  100SAPC  C31710050   1.812   6.724   4.114  0.8885 -0.3574  0.0513
  100SAPC  H17X10051   1.763   6.783   4.194  1.6010 -0.7579  0.7981
  100SAPC  H17Y10052   1.884   6.799   4.073  0.6591  1.2882  2.4058
  100SAPC  C31810053   1.875   6.596   4.175  0.5480  0.2575  0.1914
  100SAPC  H18X10054   1.791   6.553   4.234 -0.6621 -0.5562 -2.0199
  100SAPC  H18Y10055   1.969   6.616   4.231  0.5093  0.4178  0.1994
  100SAPC  H18Z10056   1.901   6.521   4.097 -0.6977 -0.3509  0.3266
  101OSM      N10057   3.618   2.680   6.464 -0.0333  0.6752 -0.5219
  101OSM    C1510058   3.601   2.532   6.498 -1.2510 -0.1959 -0.4209
  101OSM   H15A10059   3.650   2.502   6.589 -0.8332  0.6278 -0.3699
  101OSM   H15B10060   3.655   2.482   6.419 -0.9498 -0.1422 -0.2499
  101OSM   H15C10061   3.500   2.494   6.507 -0.7202 -1.2496  1.8279
  101OSM    C1410062   3.553   2.764   6.567  0.5610  0.0583 -0.3953
  101OSM   H14A10063   3.462   2.720   6.603  1.2823 -1.0136  0.1887
  101OSM   H14B10064   3.535   2.862   6.525  1.4938 -0.3551 -1.8399
  101OSM   H14C10065   3.616   2.785   6.652 -0.1185 -1.1534  0.4317
  101OSM    C1310066   3.760   2.713   6.466  0.1713 -0.1181 -0.5284
  101OSM   H13A10067   3.795   2.710   6.568 -1.3595 -2.0263 -0.0024
  101OSM   H13B10068   3.765   2.814   6.428 -0.8448 -0.5710 -1.9902
  101OSM   H13C10069   3.815   2.652   6.396 -0.9775  1.4163 -2.9050
  101OSM    C1210070   3.560   2.710   6.329 -0.3692  0.1457 -0.0222
  101OSM   H12A10071   3.455   2.685   6.332 -0.5899  0.7357 -1.7747
  101OSM   H12B10072   3.599   2.637   6.259  0.0343  0.2995  0.0408
  101OSM    C1110073   3.578   2.853   6.262  0.0952 -0.2156  0.7021
  101OSM   H11A10074   3.532   2.854   6.161  0.2141 -0.7277  0.6398
  101OSM   H11B10075   3.685   2.871   6.239  0.6093 -0.6455  2.5667
  101OSM      P10076   3.374   2.994   6.351 -0.0515  0.0019  0.2424
  101OSM    O1310077   3.291   2.872   6.359 -0.5141  0.0301  0.2561
  101OSM    O1410078   3.347   3.096   6.463 -0.4003  0.0376 -0.2554
  101OSM    O1110079   3.348   3.063   6.217  0.2053 -0.1280  0.4304
  101OSM    O1210080   3.528   2.957   6.347  0.2006 -0.1399  0.0431
  101OSM    C1S10081   3.422   3.169   6.158 -0.2694 -0.2059  0.0082
  101OSM    H1S10082   3.505   3.206   6.222  2.4284 -2.7371 -1.7316
  101OSM    H1T10083   3.362   3.259   6.132 -0.8423 -0.9513 -1.4155
  101OSM     NF10084   3.538   3.249   5.963  0.0829  0.1825 -0.6373
  101OSM    HNF10085   3.474   3.295   5.902  0.6669  0.7823 -0.8123
  101OSM    C2S10086   3.480   3.134   6.023  0.4086 -0.1001  0.4304
  101OSM    H2S10087   3.558   3.063   6.056 -1.2070 -0.3243  4.3126
  101OSM    C3S10088   3.378   3.063   5.931  0.4395  0.8856 -0.4772
  101OSM    H3S10089   3.297   3.137   5.915 -1.1140 -0.1193  2.1850
  101OSM     O310090   3.326   2.939   5.994 -0.9729  0.5438  0.5386
  101OSM    HO310091   3.331   2.963   6.086  1.2889 -0.7467  0.8218
  101OSM    C4S10092   3.444   3.021   5.797  0.4187  0.5442 -0.2463
  101OSM    H4S10093   3.549   2.992   5.812  0.2771 -0.1424 -0.5477
  101OSM    C5S10094   3.378   2.998   5.683 -0.7910 -0.3980  0.3415
  101OSM    H5S10095   3.276   3.030   5.659 -0.8365 -0.6049  0.2581
  101OSM    C6S10096   3.457   2.957   5.558 -0.7665 -0.4455  0.0170
  101OSM    H6S10097   3.430   2.859   5.516  0.3719 -1.1619  0.8760
  101OSM    H6T10098   3.567   2.951   5.578 -0.9823 -1.6059  0.9573
  101OSM    C7S10099   3.449   3.056   5.444 -0.2646  0.2105  0.1114
  101OSM    H7S10100   3.474   3.161   5.469 -0.7970  0.2804  0.3418
  101OSM    H7T10101   3.345   3.045   5.408 -0.1057 -0.2308 -0.2241
  101OSM    C8S10102   3.527   3.017   5.312 -0.1879 -0.4404 -0.1919
  101OSM    H8S10103   3.490   2.918   5.278  2.0449 -1.7293  0.9118
  101OSM    H8T10104   3.636   3.006   5.324 -0.1148  0.4360  0.0805
  101OSM    C9S10105   3.505   3.123   5.208  0.0213  0.8380 -0.2938
  101OSM    H9S10106   3.581   3.202   5.232  0.4784  0.4590 -0.4869
  101OSM    H9T10107   3.401   3.161   5.210  0.2946  1.6077  0.2382
  101OSM   C10S10108   3.537   3.074   5.068  0.0053 -0.3958 -0.2565
  101OSM   H10S10109   3.640   3.031   5.068  0.0535 -0.4545  2.4691
  101OSM   H10T10110   3.548   3.168   5.011 -1.4742  1.0137  1.6507
  101OSM   C11S10111   3.432   2.974   5.016 -0.2187  0.2316  0.1090
  101OSM   H11S10112   3.327   3.010   5.009 -1.0252 -2.1814 -1.3452
  101OSM   H11T10113   3.432   2.884   5.079 -0.6546 -2.9461 -3.9828
  101OSM   C12S10114   3.469   2.925   4.877  0.0052  0.5992  0.0871
  101OSM   H12S10115   3.397   2.846   4.849 -1.3721  1.6889  0.4215
  101OSM   H12T10116   3.569   2.875   4.881 -0.9004 -1.3532 -0.7089
  101OSM   C13S10117   3.424   3.029   4.768 -0.0202 -0.6115  0.6433
  101OSM   H13S10118   3.480   3.124   4.777  0.0965 -0.4440 -1.2828
  101OSM   H13T10119   3.314   3.044   4.781 -0.2256 -0.7719 -0.7448
  101OSM   C14S10120   3.445   2.981   4.620  0.1049  0.3106 -0.1617
  101OSM   H14S10121   3.381   3.042   4.552  0.5572 -0.2795 -1.1385
  101OSM   H14T10122   3.402   2.879   4.619 -1.2650  0.8212  1.6437
  101OSM   C15S10123   3.581   2.958   4.564  0.0244  0.1696  0.0282
  101OSM   H15S10124   3.633   2.888   4.634 -0.4199 -1.1857 -0.9679
  101OSM   H15T10125   3.644   3.050   4.567 -1.3367  1.1309 -0.0607
  101OSM   C16S10126   3.572   2.895   4.417  0.4368 -0.3022  0.0455
  101OSM   H16S10127   3.534   2.963   4.338  0.9026 -2.2305 -1.9090
  101OSM   H16T10128   3.487   2.823   4.421 -0.2511  0.4280 -0.8860
  101OSM   C17S10129   3.700   2.814   4.389  0.1972  0.6028  0.1777
  101OSM   H17S10130   3.707   2.743   4.474 -0.3742  1.7916  1.2552
  101OSM   H17T10131   3.788   2.880   4.397  0.3476  0.6886 -1.6156
  101OSM   C18S10132   3.713   2.746   4.247 -0.4526 -0.7539 -0.1165
  101OSM   H18S10133   3.783   2.660   4.251  0.8281  0.0867 -2.6851
  101OSM   H18T10134   3.732   2.812   4.160 -1.2566 -0.8403 -0.3744
  101OSM   H18U10135   3.619   2.688   4.233 -1.7364  0.5580  2.4140
  101OSM    C1F10136   3.645   3.310   6.022  0.4489 -0.1589  0.6613
  101OSM     OF10137   3.697   3.267   6.121  0.8884  0.1335 -0.3327
  101OSM    C2F10138   3.681   3.440   5.954 -0.0013 -0.3971 -0.1183
  101OSM    H2F10139   3.713   3.509   6.035  0.1696 -1.1177  0.4391
  101OSM    H2G10140   3.587   3.473   5.903 -1.1296 -4.0973 -0.7019
  101OSM    C3F10141   3.792   3.420   5.851 -0.4679  0.3428  0.1685
  101OSM    H3F10142   3.760   3.334   5.788 -0.3988  0.2918  0.2020
  101OSM    H3G10143   3.881   3.402   5.916 -1.9079  0.0284  2.1369
  101OSM    C4F10144   3.807   3.551   5.768 -0.1130 -0.1578  0.4767
  101OSM    H4F10145   3.823   3.638   5.835 -0.6667 -0.8413  1.5422
  101OSM    H4G10146   3.704   3.558   5.728 -0.5489 -1.5018  1.2599
  101OSM    C5F10147   3.919   3.553   5.659  0.1148 -0.5547 -0.4354
  101OSM    H5F10148   3.924   3.450   5.619  1.5769 -0.6423 -0.0702
  101OSM    H5G10149   4.013   3.592   5.704 -0.6270  0.1253  0.5700
  101OSM    C6F10150   3.901   3.655   5.550 -0.2110 -0.0171  0.0500
  101OSM    H6F10151   3.867   3.757   5.578  2.3231  1.1338 -0.8204
  101OSM    H6G10152   3.818   3.615   5.487 -1.7283 -2.4123  3.2418
  101OSM    C7F10153   4.038   3.673   5.477 -0.1299 -0.3374  0.1211
  101OSM    H7F10154   4.083   3.575   5.451  3.4912  0.9876  0.7705
  101OSM    H7G10155   4.113   3.718   5.545  2.0450 -0.6215 -1.9128
  101OSM    C8F10156   4.019   3.753   5.348  0.1868  0.4327 -0.1537
  101OSM    H8F10157   3.983   3.856   5.369 -0.8559 -0.0758  0.6614
  101OSM    H8G10158   3.944   3.699   5.287 -1.6331  1.1371  1.3762
  101OSM    C9F10159   4.159   3.757   5.280  0.4141 -0.7424 -1.1178
  101OSM    H9F10160   4.232   3.815   5.339  1.6914 -0.8841 -2.5047
  101OSM   C10F10161   4.204   3.705   5.166  0.2579  0.5229  0.0425
  101OSM   H10F10162   4.311   3.711   5.144  0.1594  1.0264 -0.3382
  101OSM   C11F10163   4.112   3.619   5.085 -0.5279  0.7664  0.2281
  101OSM   H11F10164   4.002   3.633   5.090 -1.0197 -2.2225 -0.2832
  101OSM   H11G10165   4.139   3.512   5.100  2.9014  1.1875 -1.6567
  101OSM   C12F10166   4.158   3.642   4.939  0.2229  0.2566  0.9025
  101OSM   H12F10167   4.262   3.607   4.921 -0.5389 -0.8990 -1.8409
  101OSM   H12G10168   4.134   3.743   4.898  1.6148  0.9740  1.7889
  101OSM   C13F10169   4.082   3.541   4.839  0.1109  0.2966 -0.5055
  101OSM   H13F10170   3.978   3.579   4.838  0.0568  0.2868  1.4160
  101OSM   H13G10171   4.090   3.441   4.887 -0.1706  1.1107  1.3278
  101OSM   C14F10172   4.137   3.533   4.698 -0.4072  0.0187  0.2727
  101OSM   H14F10173   4.236   3.483   4.706 -1.4096 -1.9421  1.0228
  101OSM   H14G10174   4.161   3.634   4.659  2.7983 -0.6375  0.2799
  101OSM   C15F10175   4.042   3.466   4.601  0.7272 -0.3865 -0.1159
  101OSM   H15F10176   3.944   3.517   4.588  0.5946 -0.6942 -0.3417
  101OSM   H15G10177   4.026   3.365   4.644 -1.2169 -0.2947 -0.5549
  101OSM   C16F10178   4.097   3.441   4.458  0.1750 -0.8033 -0.3542
  101OSM   H16F10179   4.040   3.360   4.407  1.1237 -0.9643 -1.1749
  101OSM   H16G10180   4.200   3.403   4.475  0.7669  1.3015  1.1398
  101OSM   C17F10181   4.104   3.554   4.355  0.3049 -0.1250  0.1866
  101OSM   H17F10182   4.157   3.644   4.391 -0.0225 -0.7892  2.5026
  101OSM   H17G10183   3.994   3.569   4.345  0.4963  0.1708 -1.8095
  101OSM   C18F10184   4.151   3.520   4.220 -0.5930  0.6606 -0.8150
  101OSM   H18F10185   4.103   3.429   4.179 -3.1244  1.9072 -0.8163
  101OSM   H18G10186   4.260   3.508   4.207 -0.4824 -0.2289  0.7345
  101OSM   H18H10187   4.123   3.605   4.153 -0.7422  1.2234 -0.0511
  102OSM      N10188   4.604   2.347   6.601  0.0958  0.6460 -0.4331
  102OSM    C1510189   4.741   2.334   6.555  0.1711 -0.1855  0.1463
  102OSM   H15A10190   4.801   2.295   6.636 -1.1195 -1.6957  0.4302
  102OSM   H15B10191   4.773   2.434   6.532  0.0069 -0.1762 -0.0462
  102OSM   H15C10192   4.770   2.265   6.477 -0.0046 -1.1315  0.9040
  102OSM    C1410193   4.525   2.405   6.488  0.3430 -0.2062  0.3887
  102OSM   H14A10194   4.523   2.335   6.406 -2.6177 -0.3975  0.5053
  102OSM   H14B10195   4.574   2.495   6.453 -2.6541  0.8017 -1.6263
  102OSM   H14C10196   4.424   2.426   6.518  0.2194 -1.8550  1.2073
  102OSM    C1310197   4.548   2.210   6.627 -0.4627 -0.4333  0.0562
  102OSM   H13A10198   4.619   2.162   6.692  0.6763  0.4725 -0.4615
  102OSM   H13B10199   4.561   2.153   6.536 -0.9519 -1.0706  0.3869
  102OSM   H13C10200   4.444   2.212   6.655  0.0910  1.2711  2.2930
  102OSM    C1210201   4.599   2.432   6.724 -0.2445  0.6659 -0.2392
  102OSM   H12A10202   4.652   2.525   6.706  0.2779  0.4177  0.0040
  102OSM   H12B10203   4.659   2.383   6.799 -1.1054 -0.5638 -0.3293
  102OSM    C1110204   4.463   2.464   6.777  0.3984 -0.9477  0.3036
  102OSM   H11A10205   4.468   2.510   6.878  0.4190  0.0357 -0.1340
  102OSM   H11B10206   4.412   2.373   6.816 -2.5381  1.5510  2.8881
  102OSM      P10207   4.388   2.698   6.672 -0.1947  0.1349 -0.1885
  102OSM    O1310208   4.313   2.748   6.788  0.1367 -0.2216  0.0492
  102OSM    O1410209   4.530   2.738   6.665  0.0493 -0.5596  0.4352
  102OSM    O1110210   4.318   2.743   6.542  0.1054 -0.4833  0.8995
  102OSM    O1210211   4.380   2.541   6.684  0.4587  0.5511 -0.0230
  102OSM    C1S10212   4.399   2.747   6.424 -0.1292 -0.0255  0.8706
  102OSM    H1S10213   4.460   2.654   6.420  0.0990  0.0933  1.4644
  102OSM    H1T10214   4.461   2.839   6.414  0.4811 -0.4180  0.9779
  102OSM     NF10215   4.391   2.761   6.167  0.0703 -0.1884 -0.5109
  102OSM    HNF10216   4.410   2.853   6.133 -2.4900  0.1688 -1.1888
  102OSM    C2S10217   4.309   2.748   6.291  0.2871 -0.3781  0.0393
  102OSM    H2S10218   4.258   2.650   6.291 -0.8780  0.1832  1.1720
  102OSM    C3S10219   4.213   2.867   6.300 -0.5947  0.1968 -0.7235
  102OSM    H3S10220   4.280   2.955   6.309  0.0058 -0.2020 -1.2460
  102OSM     O310221   4.124   2.862   6.411 -0.1694 -0.1684  0.8304
  102OSM    HO310222   4.158   2.803   6.478 -1.5946 -0.8016  1.0381
  102OSM    C4S10223   4.128   2.879   6.176 -0.4031 -0.2089  0.9454
  102OSM    H4S10224   4.168   2.952   6.103  2.2939 -0.7114  1.8276
  102OSM    C5S10225   4.012   2.817   6.140  0.2365 -0.0735 -0.7973
  102OSM    H5S10226   3.978   2.737   6.207 -0.1636  1.2236  0.5859
  102OSM    C6S10227   3.938   2.836   6.014  0.3630 -0.3254  0.4055
  102OSM    H6S10228   3.828   2.839   6.032  0.2023  0.1304 -0.6088
  102OSM    H6T10229   3.933   2.744   5.953 -1.6694 -0.6227  0.9422
  102OSM    C7S10230   3.972   2.959   5.923  0.0690  0.2552 -0.0203
  102OSM    H7S10231   4.079   2.944   5.899 -0.1603 -0.1192 -0.8741
  102OSM    H7T10232   3.970   3.052   5.982  1.3410 -0.1762  0.7457
  102OSM    C8S10233   3.907   2.972   5.786  0.0081 -0.2227  0.4565
  102OSM    H8S10234   3.800   3.002   5.794  0.2830  0.9286 -0.0218
  102OSM    H8T10235   3.906   2.869   5.746  0.4927  0.4407 -1.3307
  102OSM    C9S10236   3.972   3.069   5.692 -0.2530  0.6356 -0.2898
  102OSM    H9S10237   4.071   3.031   5.658  0.7438  2.5541  0.3084
  102OSM    H9T10238   3.992   3.164   5.747  0.1443  0.2401  0.2714
  102OSM   C10S10239   3.885   3.095   5.567 -0.5191  0.3772  0.1760
  102OSM   H10S10240   3.793   3.145   5.604 -0.5841  0.1051  0.3847
  102OSM   H10T10241   3.858   2.994   5.529  2.7567 -0.2385 -0.7802
  102OSM   C11S10242   3.945   3.178   5.458 -0.0612 -0.2742 -0.0410
  102OSM   H11S10243   4.053   3.149   5.453  0.7562  2.5418 -0.1697
  102OSM   H11T10244   3.941   3.286   5.481 -1.2362  0.0099 -1.4221
  102OSM   C12S10245   3.887   3.152   5.317  0.9090  0.0907  0.1890
  102OSM   H12S10246   3.776   3.162   5.319  0.7551 -1.2170 -0.3361
  102OSM   H12T10247   3.912   3.053   5.273  0.5480  0.0726  0.0121
  102OSM   C13S10248   3.945   3.251   5.210 -0.3802 -0.7458 -0.3761
  102OSM   H13S10249   4.052   3.221   5.200 -0.4627 -1.5115  0.8539
  102OSM   H13T10250   3.954   3.346   5.266  2.2269 -2.7611  3.0404
  102OSM   C14S10251   3.870   3.246   5.076 -0.6049  0.0751  0.0061
  102OSM   H14S10252   3.895   3.343   5.028 -0.4775  0.3110  0.5472
  102OSM   H14T10253   3.759   3.240   5.087 -0.5528  1.5284  1.8549
  102OSM   C15S10254   3.914   3.132   4.985 -0.0440 -0.6687 -0.8422
  102OSM   H15S10255   3.860   3.036   5.003 -0.5433  0.1083  2.5414
  102OSM   H15T10256   4.014   3.092   5.013  0.3138  0.3664 -0.6148
  102OSM   C16S10257   3.922   3.169   4.838 -0.2560 -0.1282 -0.6061
  102OSM   H16S10258   3.992   3.254   4.830 -1.2616  0.8234  0.4131
  102OSM   H16T10259   3.818   3.203   4.818  0.5188  1.7757 -1.5618
  102OSM   C17S10260   3.968   3.060   4.742 -0.9408  0.0227  0.6206
  102OSM   H17S10261   3.969   3.105   4.641 -0.3055 -0.5542  0.3624
  102OSM   H17T10262   3.892   2.979   4.747 -0.1551 -0.8354 -0.8847
  102OSM   C18S10263   4.109   3.008   4.777  0.4548  0.1040 -1.0400
  102OSM   H18S10264   4.161   2.973   4.686  2.0392  0.3562 -0.2675
  102OSM   H18T10265   4.104   2.921   4.845  0.5284  0.0144 -1.1497
  102OSM   H18U10266   4.166   3.088   4.830 -0.8680  1.0879 -1.0372
  102OSM    C1F10267   4.458   2.663   6.126 -0.7106  0.7257 -0.2613
  102OSM     OF10268   4.450   2.549   6.177 -0.0409  0.0921  0.5591
  102OSM    C2F10269   4.548   2.682   6.006 -0.5355 -0.1839 -0.6507
  102OSM    H2F10270   4.619   2.766   6.024  0.8766 -0.9034 -2.5474
  102OSM    H2G10271   4.478   2.714   5.926 -0.5666 -0.4009 -0.7103
  102OSM    C3F10272   4.624   2.564   5.965 -0.1110 -0.3442 -0.1135
  102OSM    H3F10273   4.569   2.468   5.961 -1.2322  0.2665  0.2081
  102OSM    H3G10274   4.713   2.554   6.032 -0.0103 -1.0739 -0.3488
  102OSM    C4F10275   4.698   2.586   5.829 -0.1966  0.1173 -0.0265
  102OSM    H4F10276   4.777   2.508   5.825  0.8694  1.1846 -0.4247
  102OSM    H4G10277   4.752   2.683   5.834 -1.4994  0.8319  0.8824
  102OSM    C5F10278   4.611   2.567   5.708  0.0841  0.2357  0.1839
  102OSM    H5F10279   4.546   2.656   5.699 -1.1949 -0.5918  0.9706
  102OSM    H5G10280   4.559   2.469   5.719  0.2504  0.1738  0.4389
  102OSM    C6F10281   4.690   2.566   5.576  0.4963  0.0970  0.4232
  102OSM    H6F10282   4.746   2.662   5.567 -1.8830  1.5081 -0.0150
  102OSM    H6G10283   4.619   2.575   5.491 -0.1970  0.3069  1.0241
  102OSM    C7F10284   4.787   2.444   5.557  0.2453  0.6718 -0.0985
  102OSM    H7F10285   4.826   2.416   5.657  0.2800  1.6944  0.1790
  102OSM    H7G10286   4.880   2.470   5.502  0.3018  0.4426 -0.1131
  102OSM    C8F10287   4.716   2.329   5.490  0.2251 -0.0698 -0.4473
  102OSM    H8F10288   4.712   2.355   5.382  1.7980  1.7344 -0.1335
  102OSM    H8G10289   4.617   2.328   5.541  0.5927  2.0927  0.4275
  102OSM    C9F10290   4.789   2.208   5.518 -0.5022  0.6197  0.4137
  102OSM    H9F10291   4.858   2.209   5.604 -0.6796 -1.5325  0.6553
  102OSM   C10F10292   4.809   2.100   5.437  0.3244  0.1763 -0.1433
  102OSM   H10F10293   4.860   2.009   5.473 -0.4464 -1.6966 -3.3970
  102OSM   C11F10294   4.749   2.088   5.295 -0.5242 -0.1818  0.0694
  102OSM   H11F10295   4.673   2.164   5.265 -2.6310 -1.5098  1.7393
  102OSM   H11G10296   4.706   1.986   5.291 -0.1551 -0.2837 -1.7415
  102OSM   C12F10297   4.863   2.095   5.191 -0.1491 -0.2481  0.1593
  102OSM   H12F10298   4.945   2.023   5.214  0.0829  0.2201  0.8507
  102OSM   H12G10299   4.903   2.195   5.164  0.5760 -0.9381 -1.4404
  102OSM   C13F10300   4.799   2.056   5.058  0.3442 -0.6530 -0.1098
  102OSM   H13F10301   4.717   2.129   5.038  0.5212  0.7770  3.6391
  102OSM   H13G10302   4.742   1.963   5.079 -1.0433  0.6066  2.0515
  102OSM   C14F10303   4.903   2.046   4.948 -0.5676 -0.1393 -0.5507
  102OSM   H14F10304   4.980   1.969   4.968  0.8496  1.2718 -0.3003
  102OSM   H14G10305   4.942   2.146   4.920 -0.0823 -0.1482  0.0631
  102OSM   C15F10306   4.835   2.004   4.814  0.2012  0.8957 -1.4247
  102OSM   H15F10307   4.749   2.072   4.797 -0.9296 -0.4792 -1.4226
  102OSM   H15G10308   4.782   1.907   4.830  1.8780 -0.0622 -1.3824
  102OSM   C16F10309   4.934   2.010   4.696  0.7765 -0.3107  0.8380
  102OSM   H16F10310   4.996   1.920   4.681 -0.0314 -0.6412 -0.6918
  102OSM   H16G10311   5.004   2.094   4.716  0.8925  0.4603 -2.3345
  102OSM   C17F10312   4.858   2.047   4.560 -0.6923 -0.2770  0.0230
  102OSM   H17F10313   4.813   2.148   4.569 -1.9968 -0.7687 -0.7343
  102OSM   H17G10314   4.775   1.978   4.534 -0.3801 -0.9762  0.8315
  102OSM   C18F10315   4.961   2.067   4.446  0.1732 -0.4115 -0.8480
  102OSM   H18F10316   5.061   2.022   4.463  1.2336  1.5778 -1.4761
  102OSM   H18G10317   4.975   2.177   4.434 -0.0030  0.2261  3.1119
  102OSM   H18H10318   4.925   2.032   4.347 -2.5614  0.0727 -0.1028
  103OSM      N10319   3.495   4.559   6.611 -0.6138  0.4127 -0.3470
  103OSM    C1510320   3.352   4.596   6.604  0.1222 -0.2951  0.1025
  103OSM   H15A10321   3.296   4.550   6.684  0.6380 -1.7813 -0.3433
  103OSM   H15B10322   3.309   4.547   6.518  0.8468 -1.3432  0.3086
  103OSM   H15C10323   3.333   4.701   6.591 -1.0447 -0.4803  0.2101
  103OSM    C1410324   3.563   4.592   6.482  0.1122  0.3407 -0.3015
  103OSM   H14A10325   3.670   4.575   6.489 -0.1157 -1.4351 -0.6268
  103OSM   H14B10326   3.540   4.690   6.443  0.1766  0.4025 -0.1841
  103OSM   H14C10327   3.523   4.523   6.409  0.3775 -0.6131  0.4385
  103OSM    C1310328   3.552   4.652   6.723 -0.3926 -0.1210  0.8528
  103OSM   H13A10329   3.531   4.754   6.695 -1.0618 -0.6618 -0.7346
  103OSM   H13B10330   3.658   4.635   6.736  0.3053  1.3402 -1.9795
  103OSM   H13C10331   3.491   4.628   6.808  0.0308  2.1520  1.8599
  103OSM    C1210332   3.507   4.412   6.660 -0.4498 -0.2233 -0.1085
  103OSM   H12A10333   3.473   4.415   6.762  1.0338  3.4163  0.4319
  103OSM   H12B10334   3.614   4.394   6.653 -0.5427 -0.3611 -1.3236
  103OSM    C1110335   3.442   4.304   6.580  0.3266  1.2404 -0.2179
  103OSM   H11A10336   3.476   4.203   6.609  1.2713  1.1170 -1.6662
  103OSM   H11B10337   3.451   4.317   6.470 -1.3550 -0.9861 -0.7011
  103OSM      P10338   3.191   4.273   6.500 -0.2213 -0.1298 -0.6198
  103OSM    O1310339   3.152   4.132   6.509 -0.3026 -0.1554  0.1037
  103OSM    O1410340   3.087   4.374   6.513  0.1810 -0.1844 -0.0944
  103OSM    O1110341   3.256   4.295   6.359 -0.5387 -0.2725 -0.4446
  103OSM    O1210342   3.301   4.304   6.614 -0.9321  0.2837  0.2473
  103OSM    C1S10343   3.223   4.198   6.259 -0.5102 -0.3040 -0.2288
  103OSM    H1S10344   3.116   4.169   6.264 -0.8437  1.0538  1.8617
  103OSM    H1T10345   3.279   4.102   6.262 -0.4653 -0.3343 -1.3678
  103OSM     NF10346   3.249   4.154   6.011  0.1823  0.3902 -0.5377
  103OSM    HNF10347   3.331   4.097   5.999 -0.4862 -0.2561 -2.3269
  103OSM    C2S10348   3.264   4.253   6.118 -0.0505 -0.3541 -0.2415
  103OSM    H2S10349   3.186   4.329   6.092 -0.0238  0.3399  1.5843
  103OSM    C3S10350   3.403   4.320   6.123 -0.1133 -0.2909  0.1946
  103OSM    H3S10351   3.474   4.258   6.182  2.4458 -0.4053 -2.7844
  103OSM     O310352   3.415   4.446   6.198 -0.2650  1.0042  0.1601
  103OSM    HO310353   3.350   4.426   6.265 -1.6437 -0.4513 -1.4944
  103OSM    C4S10354   3.458   4.342   5.988  0.1039 -0.4962  0.4134
  103OSM    H4S10355   3.504   4.248   5.957  1.3043 -0.1746  1.1469
  103OSM    C5S10356   3.465   4.451   5.904  0.8587  0.5257  0.3310
  103OSM    H5S10357   3.429   4.549   5.936 -1.5260 -0.5326  1.0927
  103OSM    C6S10358   3.534   4.442   5.774 -0.0238 -0.6096 -0.1840
  103OSM    H6S10359   3.589   4.352   5.740 -3.3000 -1.9737 -2.4597
  103OSM    H6T10360   3.606   4.526   5.779 -0.3289 -0.3326 -0.4565
  103OSM    C7S10361   3.440   4.472   5.652 -0.5197 -0.7622 -0.4981
  103OSM    H7S10362   3.382   4.565   5.670  1.7145  0.3337  1.7265
  103OSM    H7T10363   3.373   4.384   5.652  1.2106 -2.2166  1.6601
  103OSM    C8S10364   3.516   4.488   5.519 -0.2326 -0.4471 -0.4674
  103OSM    H8S10365   3.563   4.393   5.487 -1.3048 -1.5968  1.2055
  103OSM    H8T10366   3.595   4.565   5.535 -2.2728  1.4082  1.4231
  103OSM    C9S10367   3.432   4.545   5.405 -0.0766 -0.5293 -0.4826
  103OSM    H9S10368   3.389   4.640   5.445 -0.3939 -0.6812 -0.4544
  103OSM    H9T10369   3.349   4.475   5.382  0.2872 -0.2466 -2.8999
  103OSM   C10S10370   3.507   4.579   5.274 -0.0838  0.5907  0.4320
  103OSM   H10S10371   3.566   4.486   5.255 -0.6171  0.5024 -0.8588
  103OSM   H10T10372   3.582   4.656   5.300  0.0602  0.7371 -0.3828
  103OSM   C11S10373   3.425   4.634   5.159 -0.2442 -0.1253 -0.0045
  103OSM   H11S10374   3.381   4.728   5.198 -2.4655 -0.8991 -0.5284
  103OSM   H11T10375   3.337   4.571   5.134  0.1607 -1.0488  0.7901
  103OSM   C12S10376   3.509   4.677   5.034 -0.4702  0.1011  0.7971
  103OSM   H12S10377   3.447   4.741   4.968 -0.1889  0.7292  1.1350
  103OSM   H12T10378   3.523   4.593   4.963  0.1285  1.7833 -1.1385
  103OSM   C13S10379   3.647   4.741   5.058  0.0412  0.4225  0.2748
  103OSM   H13S10380   3.709   4.672   5.119 -1.2037 -1.0443 -0.0705
  103OSM   H13T10381   3.638   4.830   5.124  0.9206 -0.1884  1.2602
  103OSM   C14S10382   3.710   4.776   4.926 -0.6272 -0.2210  0.3338
  103OSM   H14S10383   3.636   4.814   4.853 -1.5022 -1.4348  0.5605
  103OSM   H14T10384   3.754   4.689   4.873 -1.7215  0.9676 -2.7707
  103OSM   C15S10385   3.833   4.865   4.951  0.5710  0.2694  0.6112
  103OSM   H15S10386   3.894   4.803   5.021  1.7346  1.7692  0.9819
  103OSM   H15T10387   3.789   4.946   5.013 -2.5858 -2.4427  2.2556
  103OSM   C16S10388   3.895   4.923   4.828 -0.5152 -0.2296 -0.1163
  103OSM   H16S10389   3.950   4.841   4.777 -1.3290  0.2763 -1.9013
  103OSM   H16T10390   3.958   5.006   4.866 -3.0717  2.4899 -1.4167
  103OSM   C17S10391   3.802   4.991   4.728  0.2293 -0.0037  0.3256
  103OSM   H17S10392   3.751   5.069   4.788  2.8245 -1.1586  4.4163
  103OSM   H17T10393   3.725   4.920   4.690  0.0579  0.0268  0.6178
  103OSM   C18S10394   3.882   5.051   4.620 -0.2651  0.5300  0.5522
  103OSM   H18S10395   3.920   4.966   4.560 -1.8060  0.8130 -0.9027
  103OSM   H18T10396   3.967   5.105   4.667 -1.0598 -0.0498  2.7895
  103OSM   H18U10397   3.825   5.120   4.554 -0.5092  0.8590  1.1000
  103OSM    C1F10398   3.128   4.108   5.972 -0.4719  0.0927 -0.3610
  103OSM     OF10399   3.023   4.162   6.008  0.1793  0.2526  0.0759
  103OSM    C2F10400   3.138   3.976   5.908  1.0607 -0.7336 -0.5573
  103OSM    H2F10401   3.090   3.903   5.976  0.0065 -0.0032 -0.4910
  103OSM    H2G10402   3.243   3.943   5.889  1.2336  1.1248 -3.4021
  103OSM    C3F10403   3.075   3.967   5.769  0.2067  0.0409  0.1490
  103OSM    H3F10404   2.968   3.998   5.772  0.6865  2.0334 -0.9954
  103OSM    H3G10405   3.081   3.859   5.744  2.7210 -0.0819  1.0043
  103OSM    C4F10406   3.141   4.063   5.665  0.6485  0.0843 -0.6632
  103OSM    H4F10407   3.251   4.042   5.663  0.3199 -2.1236  0.7114
  103OSM    H4G10408   3.123   4.165   5.705 -0.8250 -0.7466  0.9038
  103OSM    C5F10409   3.085   4.052   5.527  0.8066 -0.1570  0.1507
  103OSM    H5F10410   2.975   4.069   5.522  0.8451 -0.1428 -0.7649
  103OSM    H5G10411   3.105   3.959   5.471  2.6006  0.5565 -0.4590
  103OSM    C6F10412   3.140   4.163   5.434  0.2468  0.4959  0.2605
  103OSM    H6F10413   3.098   4.258   5.473 -0.2418 -0.8748  3.3289
  103OSM    H6G10414   3.089   4.140   5.338  1.5064 -1.9782  0.0956
  103OSM    C7F10415   3.290   4.144   5.421 -0.4868  0.3532 -0.5923
  103OSM    H7F10416   3.324   4.038   5.429 -0.9118  0.1938 -0.8467
  103OSM    H7G10417   3.339   4.202   5.502 -0.3962 -0.7934  0.1920
  103OSM    C8F10418   3.342   4.220   5.296 -0.2287 -0.3943  0.0959
  103OSM    H8F10419   3.452   4.238   5.306 -0.0677  0.4574 -2.3668
  103OSM    H8G10420   3.294   4.318   5.276  1.6678  0.3970 -0.8458
  103OSM    C9F10421   3.345   4.132   5.177  0.4756 -0.3519  0.2047
  103OSM    H9F10422   3.407   4.044   5.199 -1.5305 -1.6757  0.8684
  103OSM   C10F10423   3.273   4.125   5.067  0.4278 -0.5588  0.6075
  103OSM   H10F10424   3.296   4.051   4.988 -0.6890  0.1221 -0.3878
  103OSM   C11F10425   3.177   4.224   5.026 -0.0163  0.3398 -0.0158
  103OSM   H11F10426   3.158   4.309   5.096 -0.1841 -0.0145  0.3681
  103OSM   H11G10427   3.078   4.179   5.002  0.5950 -0.7473 -0.5222
  103OSM   C12F10428   3.244   4.284   4.894  0.3083  0.1466  0.0653
  103OSM   H12F10429   3.167   4.347   4.845  0.8472 -1.0307 -2.4522
  103OSM   H12G10430   3.271   4.203   4.822 -0.6512  0.1900 -0.3597
  103OSM   C13F10431   3.366   4.368   4.919  0.5792  0.8360  0.4554
  103OSM   H13F10432   3.428   4.327   5.002  1.9618  1.5358 -0.1803
  103OSM   H13G10433   3.326   4.464   4.960  0.0214  0.9331 -0.2973
  103OSM   C14F10434   3.437   4.403   4.791  0.2822 -0.3488  0.3419
  103OSM   H14F10435   3.481   4.315   4.740  0.5414  0.8243 -1.5408
  103OSM   H14G10436   3.523   4.465   4.822 -1.2024  1.4149  1.1796
  103OSM   C15F10437   3.351   4.492   4.693  0.4673 -0.3894 -0.1530
  103OSM   H15F10438   3.302   4.560   4.767 -0.2793 -0.6726 -0.3786
  103OSM   H15G10439   3.274   4.429   4.644  0.3388  0.6948 -1.3854
  103OSM   C16F10440   3.424   4.565   4.584  0.1498  0.3398 -0.1069
  103OSM   H16F10441   3.504   4.625   4.631 -0.6104  1.8098 -0.6352
  103OSM   H16G10442   3.349   4.630   4.535 -2.5820 -0.6277  2.5172
  103OSM   C17F10443   3.508   4.482   4.482  0.7636  0.3131  0.4079
  103OSM   H17F10444   3.440   4.423   4.418  0.2491  1.8052 -0.4658
  103OSM   H17G10445   3.586   4.412   4.519  1.3748 -0.3740 -2.0319
  103OSM   C18F10446   3.577   4.577   4.383  0.2579  0.8011 -0.2276
  103OSM   H18F10447   3.656   4.528   4.322 -0.4815 -0.7280 -0.0106
  103OSM   H18G10448   3.625   4.660   4.440  2.3749 -1.5765  1.7347
  103OSM   H18H10449   3.497   4.620   4.319 -1.8237 -1.2996  0.8172
  104OSM      N10450   4.750   4.335   6.581  0.2799  0.2824  0.7789
  104OSM    C1510451   4.875   4.411   6.552 -0.3160  0.0867  0.2470
  104OSM   H15A10452   4.936   4.399   6.641 -1.7748  0.3044  1.3196
  104OSM   H15B10453   4.857   4.517   6.539  1.3916  0.2509 -1.1290
  104OSM   H15C10454   4.942   4.375   6.475 -0.2880  1.5179 -0.4413
  104OSM    C1410455   4.792   4.202   6.627  0.1493  0.1668  0.0634
  104OSM   H14A10456   4.715   4.127   6.620  0.4319 -0.4750  2.7521
  104OSM   H14B10457   4.807   4.207   6.733 -0.0852 -0.1486  0.1158
  104OSM   H14C10458   4.879   4.164   6.575  0.7285  2.0545 -0.4268
  104OSM    C1310459   4.679   4.401   6.694  0.1993 -0.3258  0.3799
  104OSM   H13A10460   4.586   4.356   6.726 -0.4995  0.9772  0.2453
  104OSM   H13B10461   4.659   4.505   6.673 -0.0796 -0.5940 -0.7610
  104OSM   H13C10462   4.743   4.394   6.781  2.8431  0.9097 -1.3302
  104OSM    C1210463   4.660   4.313   6.456  0.1294  0.4329 -0.5944
  104OSM   H12A10464   4.570   4.264   6.490  0.6520 -0.1405 -0.0203
  104OSM   H12B10465   4.711   4.249   6.385  0.8396  2.0849 -1.6513
  104OSM    C1110466   4.608   4.438   6.372 -0.1790 -0.3743 -0.0658
  104OSM   H11A10467   4.543   4.402   6.289  0.6367  0.7171 -1.2146
  104OSM   H11B10468   4.696   4.462   6.309 -0.2661 -0.2897 -0.1558
  104OSM      P10469   4.420   4.564   6.489 -0.5699  0.2701  0.0438
  104OSM    O1310470   4.352   4.437   6.498  0.9125  0.4428  0.5635
  104OSM    O1410471   4.429   4.641   6.619  0.0888 -0.1264 -0.1887
  104OSM    O1110472   4.348   4.658   6.378 -0.4179  0.1157 -0.1232
  104OSM    O1210473   4.560   4.550   6.440  0.0198 -0.0911  0.2768
  104OSM    C1S10474   4.413   4.655   6.249 -0.3373  1.0014 -0.3909
  104OSM    H1S10475   4.414   4.549   6.214  0.3951  0.7695  0.2976
  104OSM    H1T10476   4.515   4.697   6.252 -1.2737  3.4006  1.3166
  104OSM     NF10477   4.410   4.737   6.020  0.0956 -0.4484 -1.1004
  104OSM    HNF10478   4.451   4.821   5.986 -0.0223  1.8990  3.7646
  104OSM    C2S10479   4.340   4.741   6.151  0.2780 -0.2426 -0.0374
  104OSM    H2S10480   4.239   4.699   6.132  0.8750 -1.3452 -0.8802
  104OSM    C3S10481   4.323   4.885   6.210  0.7377 -0.3177 -0.4826
  104OSM    H3S10482   4.414   4.941   6.242  0.4403  0.3471 -0.7711
  104OSM     O310483   4.242   4.901   6.327 -0.6137 -0.0913 -0.0918
  104OSM    HO310484   4.245   4.813   6.366 -0.0933  1.1596  2.8658
  104OSM    C4S10485   4.260   4.975   6.096 -0.0247  0.8921  0.2313
  104OSM    H4S10486   4.341   5.008   6.029 -1.2018 -0.1212 -1.7883
  104OSM    C5S10487   4.132   4.997   6.067 -0.4650  0.7791 -0.2531
  104OSM    H5S10488   4.050   4.967   6.133  0.2734  1.3788  0.9927
  104OSM    C6S10489   4.082   5.078   5.945 -0.1995 -0.4648  0.1792
  104OSM    H6S10490   4.055   5.179   5.979  0.5221  0.4294 -1.7365
  104OSM    H6T10491   3.991   5.022   5.912 -0.5068 -0.2980  0.7448
  104OSM    C7S10492   4.170   5.100   5.818 -0.2544 -0.3896  0.5768
  104OSM    H7S10493   4.263   5.149   5.854  0.0681  0.6331 -1.4928
  104OSM    H7T10494   4.118   5.171   5.750  1.8858 -1.7353 -2.7400
  104OSM    C8S10495   4.201   4.975   5.738 -0.8663  0.1561  0.6617
  104OSM    H8S10496   4.101   4.940   5.704 -1.1100  0.6553  0.8583
  104OSM    H8T10497   4.250   4.894   5.795  0.2826 -1.3409 -2.2645
  104OSM    C9S10498   4.293   4.992   5.617 -0.0771 -0.3445  0.3792
  104OSM    H9S10499   4.396   5.020   5.648 -0.0763 -1.9127  1.9279
  104OSM    H9T10500   4.258   5.075   5.551  0.0015 -0.3795  0.2934
  104OSM   C10S10501   4.299   4.862   5.552 -0.0961 -0.3609  0.8127
  104OSM   H10S10502   4.203   4.845   5.499  0.1788 -0.3398  0.3105
  104OSM   H10T10503   4.318   4.770   5.612 -0.7462 -1.2478 -0.3078
  104OSM   C11S10504   4.397   4.862   5.436 -0.6803 -0.5515 -0.7022
  104OSM   H11S10505   4.497   4.858   5.483 -1.7273 -0.0399  1.7085
  104OSM   H11T10506   4.386   4.956   5.378  1.1430  0.2313  0.1368
  104OSM   C12S10507   4.397   4.745   5.335 -0.4542 -0.0933 -0.1519
  104OSM   H12S10508   4.290   4.729   5.310 -0.3922 -1.1848  0.2573
  104OSM   H12T10509   4.432   4.659   5.396  2.9461 -0.2725 -2.1089
  104OSM   C13S10510   4.481   4.750   5.208 -0.0911  0.3829 -0.9844
  104OSM   H13S10511   4.481   4.647   5.168  3.4069 -0.8235  1.5720
  104OSM   H13T10512   4.586   4.778   5.232  0.4748 -1.1765 -1.4992
  104OSM   C14S10513   4.437   4.846   5.105  0.0310 -0.6976 -0.0434
  104OSM   H14S10514   4.448   4.946   5.150 -0.2471 -0.5877 -0.2177
  104OSM   H14T10515   4.328   4.843   5.085  0.3119 -0.4117 -1.7604
  104OSM   C15S10516   4.522   4.833   4.977  0.3789  0.2085  0.2715
  104OSM   H15S10517   4.601   4.757   4.996 -1.8897 -2.6711 -1.0523
  104OSM   H15T10518   4.573   4.929   4.953 -1.4360  0.7186 -1.7590
  104OSM   C16S10519   4.437   4.803   4.852 -0.9812  0.8348 -1.0582
  104OSM   H16S10520   4.374   4.713   4.867 -0.3311  0.1716 -2.1179
  104OSM   H16T10521   4.512   4.787   4.771  0.3128  0.7722  0.1010
  104OSM   C17S10522   4.340   4.910   4.812 -0.2759 -0.3098  0.1474
  104OSM   H17S10523   4.384   5.011   4.820  1.3636 -0.9155 -0.5805
  104OSM   H17T10524   4.262   4.895   4.890  0.1060 -0.7717  0.4496
  104OSM   C18S10525   4.284   4.892   4.672 -0.3672  0.4653 -0.3104
  104OSM   H18S10526   4.257   4.786   4.652 -0.7400  0.5255 -0.1358
  104OSM   H18T10527   4.349   4.924   4.587  0.2781  1.0029  0.3786
  104OSM   H18U10528   4.193   4.954   4.659  0.2430  1.3335 -0.4880
  104OSM    C1F10529   4.410   4.624   5.947  0.5971 -0.7939  0.0238
  104OSM     OF10530   4.353   4.525   5.993  0.2818 -0.0829  0.3738
  104OSM    C2F10531   4.479   4.633   5.811  0.2542 -0.1483 -0.2535
  104OSM    H2F10532   4.586   4.632   5.840 -0.2019 -0.9344  1.5695
  104OSM    H2G10533   4.466   4.735   5.769 -0.8588 -0.5779 -1.0115
  104OSM    C3F10534   4.444   4.531   5.711  0.0551  0.1952 -0.0019
  104OSM    H3F10535   4.360   4.562   5.646 -0.3287 -0.6035  0.0980
  104OSM    H3G10536   4.400   4.444   5.764  0.7236 -0.6390 -0.7937
  104OSM    C4F10537   4.561   4.489   5.626  0.2020  0.6956 -0.1419
  104OSM    H4F10538   4.644   4.450   5.688  0.7841  0.4237 -1.0856
  104OSM    H4G10539   4.585   4.587   5.579  0.7153  1.3740  1.4434
  104OSM    C5F10540   4.534   4.391   5.516 -0.2128  0.0034  0.3144
  104OSM    H5F10541   4.456   4.437   5.453  0.3988  0.4224 -0.1430
  104OSM    H5G10542   4.495   4.295   5.556  0.3618 -0.9138 -1.2187
  104OSM    C6F10543   4.651   4.378   5.420 -0.1805  1.2175  0.4387
  104OSM    H6F10544   4.748   4.361   5.473 -0.4912 -2.6127  0.0501
  104OSM    H6G10545   4.655   4.467   5.353 -0.9355  1.6251  0.9235
  104OSM    C7F10546   4.622   4.255   5.343  0.1706  0.1882  0.5593
  104OSM    H7F10547   4.522   4.262   5.296  1.3246 -2.6200 -2.8179
  104OSM    H7G10548   4.616   4.168   5.411 -0.8369  0.5424  0.9434
  104OSM    C8F10549   4.723   4.233   5.221  0.4797  0.7627  0.7611
  104OSM    H8F10550   4.705   4.128   5.193 -2.8919  1.5610 -0.4571
  104OSM    H8G10551   4.823   4.239   5.270  0.8189 -1.7917  0.5071
  104OSM    C9F10552   4.695   4.338   5.114 -0.1289  0.0871 -0.2956
  104OSM    H9F10553   4.628   4.418   5.149  0.5540  0.6411 -0.2421
  104OSM   C10F10554   4.723   4.330   4.988  0.4363 -0.0517 -0.2572
  104OSM   H10F10555   4.686   4.404   4.915 -1.6432 -0.1038  0.6803
  104OSM   C11F10556   4.808   4.221   4.940 -1.1103 -0.2263 -0.7804
  104OSM   H11F10557   4.747   4.159   4.871  0.7495 -2.4868 -0.5182
  104OSM   H11G10558   4.859   4.171   5.025  1.9266  2.2825 -0.9476
  104OSM   C12F10559   4.926   4.283   4.861  0.0096  0.4241  0.0345
  104OSM   H12F10560   4.884   4.325   4.767 -1.1741  0.0140  0.3636
  104OSM   H12G10561   4.997   4.201   4.834  1.2210  1.5650 -0.3725
  104OSM   C13F10562   5.005   4.396   4.930 -0.8310  0.0421  1.4204
  104OSM   H13F10563   4.934   4.479   4.950 -1.8542 -0.4301 -0.0888
  104OSM   H13G10564   5.083   4.430   4.858 -1.1998 -3.5333 -0.9570
  104OSM   C14F10565   5.086   4.345   5.050 -0.0343  0.1665  0.0152
  104OSM   H14F10566   5.181   4.294   5.020 -0.1447  0.2423 -0.4717
  104OSM   H14G10567   5.022   4.262   5.087  0.7508  0.6780  2.7698
  104OSM   C15F10568   5.102   4.441   5.170 -0.2155 -0.0335 -0.3361
  104OSM   H15F10569   5.003   4.472   5.207  1.0355  3.0307  0.7737
  104OSM   H15G10570   5.152   4.531   5.127 -0.6524 -0.0937 -0.9780
  104OSM   C16F10571   5.178   4.383   5.293  0.7496  0.1415 -0.3405
  104OSM   H16F10572   5.118   4.295   5.325 -1.1909  0.7889 -1.9466
  104OSM   H16G10573   5.180   4.458   5.374 -0.9885 -0.7442  0.5803
  104OSM   C17F10574   5.319   4.342   5.259 -0.1263  0.7312 -0.1057
  104OSM   H17F10575   5.325   4.277   5.169  0.3359 -0.0576  0.4818
  104OSM   H17G10576   5.362   4.282   5.342  3.0024  1.2457 -1.2022
  104OSM   C18F10577   5.412   4.464   5.223  0.1715  0.4959  0.2823
  104OSM   H18F10578   5.398   4.500   5.118 -0.5214 -0.0704  0.1753
  104OSM   H18G10579   5.512   4.416   5.223 -0.6184 -1.2309 -0.8090
  104OSM   H18H10580   5.418   4.546   5.298 -1.1145  1.4872 -0.6365
  105OSM      N10581   5.307   4.827   7.238 -0.0663 -0.1804  0.3262
  105OSM    C1510582   5.382   4.701   7.284  0.2297 -0.2260  0.7113
  105OSM   H15A10583   5.364   4.640   7.196  0.9890  2.6536 -1.5717
  105OSM   H15B10584   5.333   4.656   7.369 -0.2144 -2.0755 -0.4622
  105OSM   H15C10585   5.488   4.713   7.303 -0.0370  4.0842  0.2779
  105OSM    C1410586   5.157   4.795   7.212 -0.5441 -0.2217 -0.1399
  105OSM   H14A10587   5.154   4.703   7.155 -0.0134 -0.2621 -0.1060
  105OSM   H14B10588   5.110   4.880   7.166  1.9528  1.4936  0.2562
  105OSM   H14C10589   5.103   4.775   7.303 -1.6658  0.2949 -0.6716
  105OSM    C1310590   5.316   4.917   7.351 -0.5287  0.8515  0.0726
  105OSM   H13A10591   5.420   4.933   7.373 -0.7671  0.3258  1.7603
  105OSM   H13B10592   5.282   4.854   7.432  0.2769  1.2167  0.6984
  105OSM   H13C10593   5.268   5.012   7.336  2.2253  1.8232 -4.0145
  105OSM    C1210594   5.371   4.887   7.115  0.4191 -0.2125 -0.6259
  105OSM   H12A10595   5.473   4.915   7.136 -0.5752  4.2978 -0.8057
  105OSM   H12B10596   5.325   4.983   7.099 -1.2773 -0.0472  3.7987
  105OSM    C1110597   5.376   4.811   6.982  0.3322 -0.8186  0.0129
  105OSM   H11A10598   5.421   4.881   6.909  0.9843 -0.3849  0.8123
  105OSM   H11B10599   5.281   4.784   6.932  0.4866 -0.7407 -0.3214
  105OSM      P10600   5.611   4.701   7.004 -0.0474 -0.5783  0.1128
  105OSM    O1310601   5.653   4.802   7.111  0.1617  0.3402  0.2564
  105OSM    O1410602   5.656   4.563   7.028 -0.2149  0.3105  0.7447
  105OSM    O1110603   5.657   4.755   6.861  0.4729 -0.7708 -0.1063
  105OSM    O1210604   5.454   4.694   6.989 -0.5814  0.1179  0.2539
  105OSM    C1S10605   5.599   4.678   6.754 -0.2469 -0.2490  0.1291
  105OSM    H1S10606   5.503   4.626   6.773  0.5464 -1.1777  1.8544
  105OSM    H1T10607   5.677   4.603   6.727 -1.5391 -1.0773 -1.4954
  105OSM     NF10608   5.504   4.699   6.527  0.3112 -0.6553 -0.3627
  105OSM    HNF10609   5.565   4.652   6.465  0.0020 -0.3486 -0.9081
  105OSM    C2S10610   5.566   4.772   6.632 -0.4685  0.3463  0.9705
  105OSM    H2S10611   5.497   4.853   6.666 -0.9892  0.1592  0.3865
  105OSM    C3S10612   5.693   4.845   6.578 -0.1401  0.1568 -0.4125
  105OSM    H3S10613   5.781   4.780   6.558  0.1385  0.8119 -1.3799
  105OSM     O310614   5.738   4.927   6.686  0.1043  0.0206  0.1746
  105OSM    HO310615   5.692   4.887   6.761 -0.7699 -1.1280 -0.9309
  105OSM    C4S10616   5.663   4.925   6.450  0.4382 -0.3487 -0.5915
  105OSM    H4S10617   5.592   5.007   6.472 -0.4905 -1.3854  0.4086
  105OSM    C5S10618   5.734   4.912   6.333 -0.5186 -0.2570 -0.0386
  105OSM    H5S10619   5.820   4.844   6.330  0.6766  1.2253 -1.4129
  105OSM    C6S10620   5.704   4.999   6.210 -0.3834  0.5265 -0.1493
  105OSM    H6S10621   5.758   5.096   6.217 -0.0219  0.2440  1.2069
  105OSM    H6T10622   5.594   5.015   6.217 -0.4139 -0.3426  2.5273
  105OSM    C7S10623   5.719   4.922   6.081 -0.1051 -0.1855 -0.0945
  105OSM    H7S10624   5.634   4.851   6.067 -1.2491  1.2996 -1.0208
  105OSM    H7T10625   5.821   4.877   6.081 -0.7414 -1.7247  1.0089
  105OSM    C8S10626   5.715   5.016   5.954  0.1689  0.3555 -0.7716
  105OSM    H8S10627   5.779   5.105   5.973  3.0221 -1.5830 -0.7147
  105OSM    H8T10628   5.614   5.056   5.933  0.6746  1.9624 -0.3255
  105OSM    C9S10629   5.754   4.944   5.829  1.0868 -0.4345  0.7463
  105OSM    H9S10630   5.671   4.873   5.810  1.8988 -1.2730  0.2756
  105OSM    H9T10631   5.848   4.885   5.823  1.2570 -0.0422 -2.0447
  105OSM   C10S10632   5.757   5.042   5.705 -0.8817  0.1358  0.3074
  105OSM   H10S10633   5.841   5.112   5.722 -1.1918  0.9788 -1.3793
  105OSM   H10T10634   5.661   5.097   5.699 -0.7610  0.1906 -2.8376
  105OSM   C11S10635   5.770   4.965   5.575 -0.2491  0.6022 -0.1340
  105OSM   H11S10636   5.674   4.919   5.544 -1.3723  2.3196  0.6284
  105OSM   H11T10637   5.846   4.886   5.593  1.1937  1.9282 -0.1832
  105OSM   C12S10638   5.820   5.053   5.468 -0.1532 -0.3585  0.2848
  105OSM   H12S10639   5.907   5.109   5.508 -0.6639  0.0878  0.7900
  105OSM   H12T10640   5.742   5.128   5.444 -2.2999 -1.2320  3.8148
  105OSM   C13S10641   5.867   4.977   5.336  0.1167  0.0066  0.6104
  105OSM   H13S10642   5.787   4.900   5.326  1.5987 -1.6860  1.0699
  105OSM   H13T10643   5.965   4.931   5.363  0.6759  1.4265  1.0566
  105OSM   C14S10644   5.887   5.050   5.200 -0.0203 -0.6089 -0.2835
  105OSM   H14S10645   5.926   4.978   5.125 -0.2936  1.0977 -2.1474
  105OSM   H14T10646   5.961   5.127   5.231 -1.0626 -0.6781  2.7705
  105OSM   C15S10647   5.764   5.126   5.151 -0.0955  0.1988  0.4809
  105OSM   H15S10648   5.721   5.202   5.220  0.3950 -0.4472  1.5349
  105OSM   H15T10649   5.687   5.050   5.127  2.0840 -1.6829 -0.9817
  105OSM   C16S10650   5.807   5.204   5.021 -0.1488 -0.1109  0.0410
  105OSM   H16S10651   5.882   5.284   5.041  0.4734 -0.5940 -0.3364
  105OSM   H16T10652   5.712   5.256   4.994 -1.5016 -1.4336  1.9634
  105OSM   C17S10653   5.848   5.109   4.901  0.1706 -0.0951  0.5242
  105OSM   H17S10654   5.781   5.021   4.899 -0.7795  0.6187 -0.1172
  105OSM   H17T10655   5.956   5.081   4.906  0.0820 -1.0459 -1.9514
  105OSM   C18S10656   5.821   5.186   4.777 -1.2380 -0.1585  0.3464
  105OSM   H18S10657   5.912   5.247   4.756  0.9045 -3.5124 -0.9236
  105OSM   H18T10658   5.739   5.260   4.787 -1.7033 -0.6248  0.0253
  105OSM   H18U10659   5.815   5.134   4.679  2.7055 -1.8856  0.8249
  105OSM    C1F10660   5.371   4.670   6.531 -0.0409  0.0682  0.4229
  105OSM     OF10661   5.299   4.736   6.603  0.6025  0.1451  0.0226
  105OSM    C2F10662   5.327   4.546   6.454  0.1981  0.3012  0.0403
  105OSM    H2F10663   5.238   4.505   6.506 -0.9634  2.1535 -0.4160
  105OSM    H2G10664   5.409   4.473   6.472  1.3677  1.3094 -0.9925
  105OSM    C3F10665   5.330   4.571   6.302 -1.0091 -0.4751  0.4900
  105OSM    H3F10666   5.428   4.617   6.276 -1.8327 -0.2948 -2.7495
  105OSM    H3G10667   5.264   4.652   6.266  1.1397  1.8713  1.5219
  105OSM    C4F10668   5.298   4.447   6.216 -0.1125 -0.1497  0.1477
  105OSM    H4F10669   5.376   4.371   6.238  0.8637 -0.0115 -2.4469
  105OSM    H4G10670   5.318   4.471   6.109 -2.4390 -0.8813 -0.5041
  105OSM    C5F10671   5.156   4.397   6.224 -0.6745  0.3130  0.5305
  105OSM    H5F10672   5.122   4.399   6.329  0.0860  0.7099  0.7789
  105OSM    H5G10673   5.166   4.292   6.190  2.1003  1.1361 -1.6075
  105OSM    C6F10674   5.060   4.468   6.136  0.4144 -0.2486  0.2160
  105OSM    H6F10675   5.100   4.470   6.033 -2.0280 -0.1321 -0.8123
  105OSM    H6G10676   5.044   4.572   6.171 -1.0815 -0.5097  0.4018
  105OSM    C7F10677   4.924   4.394   6.117  0.1601 -0.4452  0.6501
  105OSM    H7F10678   4.861   4.402   6.208  1.3407 -2.6075  1.7261
  105OSM    H7G10679   4.960   4.289   6.116  0.9580 -0.1814 -0.7147
  105OSM    C8F10680   4.861   4.425   5.983  0.0113 -0.9590  0.4314
  105OSM    H8F10681   4.920   4.393   5.895 -1.5090 -2.9840  0.0579
  105OSM    H8G10682   4.858   4.536   5.979  1.6601 -0.9177 -0.1774
  105OSM    C9F10683   4.718   4.374   5.983 -0.0759  0.3184  0.1525
  105OSM    H9F10684   4.639   4.439   6.025  1.9409  3.1604 -0.1489
  105OSM   C10F10685   4.666   4.260   5.944 -0.1064  0.7814 -0.6337
  105OSM   H10F10686   4.562   4.226   5.953  0.4096 -0.3564  1.7009
  105OSM   C11F10687   4.760   4.153   5.891 -0.8701  0.6644  0.0023
  105OSM   H11F10688   4.714   4.054   5.913 -1.6112  0.5668 -1.7962
  105OSM   H11G10689   4.861   4.153   5.936 -1.0971  0.1349  0.5255
  105OSM   C12F10690   4.775   4.165   5.736 -0.1936  0.1639  0.2123
  105OSM   H12F10691   4.818   4.261   5.700  1.2100 -1.2557 -2.1196
  105OSM   H12G10692   4.669   4.171   5.704 -0.3278 -0.6173  0.5017
  105OSM   C13F10693   4.842   4.042   5.671 -0.4214 -0.1304 -0.5556
  105OSM   H13F10694   4.792   3.944   5.690 -2.2281  0.7985 -0.2088
  105OSM   H13G10695   4.937   4.034   5.728 -0.6970  0.3800 -0.0039
  105OSM   C14F10696   4.895   4.065   5.532 -0.1663 -0.3533  0.5326
  105OSM   H14F10697   4.932   4.169   5.517 -0.0022 -0.5697 -0.6617
  105OSM   H14G10698   4.815   4.056   5.455  0.1779  3.3470 -0.4358
  105OSM   C15F10699   5.014   3.972   5.478 -0.2211 -0.1522 -0.2108
  105OSM   H15F10700   4.964   3.874   5.490 -1.0508  0.3975  0.9988
  105OSM   H15G10701   5.106   3.990   5.536 -0.5497  0.6036  0.0935
  105OSM   C16F10702   5.048   3.999   5.324 -0.1518  0.6172 -0.1997
  105OSM   H16F10703   5.150   4.042   5.335 -0.6356  2.2280 -1.5385
  105OSM   H16G10704   4.989   4.086   5.289 -0.7804  0.3518  0.1900
  105OSM   C17F10705   5.057   3.874   5.248  0.1482 -0.1766  0.6335
  105OSM   H17F10706   4.980   3.799   5.275 -1.7567  0.3693 -2.7656
  105OSM   H17G10707   5.155   3.830   5.278  1.3226  3.4010  2.6561
  105OSM   C18F10708   5.052   3.893   5.093  0.3217 -0.5016  0.0728
  105OSM   H18F10709   4.947   3.926   5.074 -1.7773 -5.7590  0.8103
  105OSM   H18G10710   5.058   3.793   5.045 -0.6365  0.5981 -2.5249
  105OSM   H18H10711   5.134   3.961   5.061  0.3402 -0.1579  0.8119
  106OSM      N10712   2.712   1.363   6.652 -0.1706  0.2980  0.1845
  106OSM    C1510713   2.775   1.388   6.790  0.3727  0.0523 -0.2701
  106OSM   H15A10714   2.861   1.323   6.806  0.6123  0.7223  1.3262
  106OSM   H15B10715   2.703   1.362   6.866  1.7084 -0.1284  1.0004
  106OSM   H15C10716   2.809   1.489   6.808  1.8457 -0.5396  0.4535
  106OSM    C1410717   2.646   1.223   6.666  0.4984  0.1402  0.0382
  106OSM   H14A10718   2.720   1.144   6.678  1.4173  0.8824 -0.5718
  106OSM   H14B10719   2.575   1.209   6.586 -0.3635 -0.1266  0.8305
  106OSM   H14C10720   2.583   1.220   6.753 -1.0305  0.8767 -1.0117
  106OSM    C1310721   2.600   1.464   6.625  0.2361  0.0284 -0.1259
  106OSM   H13A10722   2.547   1.458   6.530  0.1152  2.6546 -0.2929
  106OSM   H13B10723   2.644   1.562   6.620 -0.2741  0.2837  0.3507
  106OSM   H13C10724   2.525   1.467   6.702 -0.1131  2.2141 -0.5063
  106OSM    C1210725   2.819   1.371   6.545  0.4050 -0.8051 -0.0807
  106OSM   H12A10726   2.791   1.309   6.461  1.6450 -2.4890  0.6703
  106OSM   H12B10727   2.909   1.317   6.573  0.8839  0.3535  0.6823
  106OSM    C1110728   2.861   1.508   6.491  0.0770 -0.0722  0.1959
  106OSM   H11A10729   2.783   1.568   6.441  0.8004 -1.0445 -2.2564
  106OSM   H11B10730   2.932   1.501   6.405 -1.0517  1.9276 -0.9737
  106OSM      P10731   3.060   1.587   6.638 -0.0469  0.3377 -0.3503
  106OSM    O1310732   3.072   1.700   6.736  0.3319  0.4464  0.7098
  106OSM    O1410733   3.086   1.450   6.682 -0.4664  0.1847  0.0139
  106OSM    O1110734   3.144   1.620   6.515  0.4327  0.6300 -0.5626
  106OSM    O1210735   2.914   1.590   6.593 -0.1318 -0.1967  0.3129
  106OSM    C1S10736   3.117   1.736   6.434 -0.2363 -0.0694  0.4697
  106OSM    H1S10737   3.132   1.827   6.496 -3.2725  0.7386  0.1723
  106OSM    H1T10738   3.013   1.747   6.399  0.4670  0.1019 -1.7359
  106OSM     NF10739   3.218   1.868   6.248 -0.1037 -0.2613  0.6695
  106OSM    HNF10740   3.157   1.881   6.170 -1.9052 -3.0236  1.4582
  106OSM    C2S10741   3.214   1.736   6.308  0.4804  0.0256 -0.2731
  106OSM    H2S10742   3.312   1.706   6.352  0.4059  2.8936  2.2064
  106OSM    C3S10743   3.161   1.628   6.215 -0.8771  0.6555 -0.3356
  106OSM    H3S10744   3.052   1.643   6.204 -0.6993  1.5515 -0.9146
  106OSM     O310745   3.168   1.495   6.274 -0.7350  0.1111  0.5349
  106OSM    HO310746   3.191   1.512   6.366  2.1979 -1.8865  0.3020
  106OSM    C4S10747   3.216   1.635   6.075  0.3387  0.7757 -0.1090
  106OSM    H4S10748   3.151   1.676   5.996  1.6334  0.2601 -1.5052
  106OSM    C5S10749   3.331   1.602   6.022 -0.1400  0.2284 -0.2105
  106OSM    H5S10750   3.407   1.550   6.082 -0.9053 -1.1679 -0.4277
  106OSM    C6S10751   3.366   1.613   5.878  0.3127  0.0816  0.0581
  106OSM    H6S10752   3.371   1.507   5.844 -2.5219 -0.6784  1.6186
  106OSM    H6T10753   3.464   1.664   5.866  1.0320 -1.1171  0.6184
  106OSM    C7S10754   3.281   1.684   5.774 -0.1864 -0.0334  0.1659
  106OSM    H7S10755   3.281   1.790   5.809 -0.7355 -0.5288  1.7791
  106OSM    H7T10756   3.174   1.653   5.779  0.0265 -0.9360 -0.6532
  106OSM    C8S10757   3.325   1.675   5.631 -0.2649 -0.2252 -0.1086
  106OSM    H8S10758   3.240   1.699   5.564 -0.4863 -0.8707 -0.0752
  106OSM    H8T10759   3.365   1.573   5.612  2.4642  0.7551 -0.1175
  106OSM    C9S10760   3.439   1.773   5.603 -0.0128 -0.1843  0.3926
  106OSM    H9S10761   3.535   1.738   5.647  2.1676 -0.3914 -3.9765
  106OSM    H9T10762   3.419   1.877   5.636  1.0925 -0.0052  0.5306
  106OSM   C10S10763   3.479   1.777   5.456 -0.0302  0.1056 -0.0729
  106OSM   H10S10764   3.573   1.835   5.447  0.0954  0.4183  2.4608
  106OSM   H10T10765   3.402   1.840   5.407  0.5150  1.9725  1.3512
  106OSM   C11S10766   3.505   1.634   5.401  0.1579  0.4878 -0.4943
  106OSM   H11S10767   3.405   1.587   5.390  0.7436 -0.6236 -1.2371
  106OSM   H11T10768   3.572   1.584   5.475 -1.0959  0.7999  0.9019
  106OSM   C12S10769   3.568   1.630   5.263  0.6503 -0.6751  0.4627
  106OSM   H12S10770   3.592   1.525   5.234 -0.5237 -0.4892 -1.4056
  106OSM   H12T10771   3.662   1.688   5.270 -0.5408  1.3201  0.8890
  106OSM   C13S10772   3.495   1.695   5.144  0.0272  0.0996  0.3966
  106OSM   H13S10773   3.462   1.799   5.167 -2.1542  0.3971 -3.1953
  106OSM   H13T10774   3.408   1.631   5.118 -0.1419 -0.2484  1.7469
  106OSM   C14S10775   3.596   1.725   5.021  0.0518  0.1519 -0.7028
  106OSM   H14S10776   3.685   1.783   5.055  0.2247  1.4396 -3.1561
  106OSM   H14T10777   3.541   1.793   4.953 -1.5839  0.5418  0.9408
  106OSM   C15S10778   3.648   1.597   4.956 -0.0917 -0.2988  0.0740
  106OSM   H15S10779   3.570   1.531   4.912  1.3271 -0.8962 -1.6714
  106OSM   H15T10780   3.708   1.540   5.030 -1.6734 -1.0407  0.8254
  106OSM   C16S10781   3.750   1.621   4.839 -0.0807  0.0160  0.3491
  106OSM   H16S10782   3.827   1.692   4.875 -0.5809  0.9799 -0.4405
  106OSM   H16T10783   3.700   1.667   4.751 -0.4014 -0.1663  0.4369
  106OSM   C17S10784   3.833   1.494   4.812  0.1265  0.1772 -0.0037
  106OSM   H17S10785   3.755   1.421   4.783  0.0212  0.4883 -0.5160
  106OSM   H17T10786   3.882   1.459   4.905 -0.8162 -0.1337  0.3819
  106OSM   C18S10787   3.938   1.504   4.698 -0.3246 -0.3537  0.4357
  106OSM   H18S10788   3.884   1.551   4.612 -0.2903 -3.1502 -1.2361
  106OSM   H18T10789   3.967   1.405   4.658  1.6746 -0.6020  2.3519
  106OSM   H18U10790   4.019   1.564   4.744 -1.5269  2.2785 -0.6433
  106OSM    C1F10791   3.287   1.968   6.306  0.0116  0.5564 -0.3432
  106OSM     OF10792   3.366   1.938   6.397  0.6931  0.1074 -0.0088
  106OSM    C2F10793   3.273   2.100   6.234 -0.6570 -0.0326  0.4280
  106OSM    H2F10794   3.166   2.129   6.243 -0.4873  1.4377 -1.5351
  106OSM    H2G10795   3.293   2.085   6.125 -3.8943  1.5723 -0.5409
  106OSM    C3F10796   3.356   2.209   6.287  0.7475 -0.4894 -0.8206
  106OSM    H3F10797   3.458   2.165   6.292  0.7287 -0.4271  0.8186
  106OSM    H3G10798   3.332   2.234   6.393 -0.7302 -0.4975 -1.1325
  106OSM    C4F10799   3.361   2.332   6.198  0.3048  0.5604  0.6473
  106OSM    H4F10800   3.364   2.425   6.259  0.6999  0.7590  0.3320
  106OSM    H4G10801   3.274   2.333   6.129  0.3303  1.1754  0.6231
  106OSM    C5F10802   3.482   2.332   6.102  0.1926 -0.3528  0.3282
  106OSM    H5F10803   3.468   2.259   6.019  0.3771 -0.9983  0.8588
  106OSM    H5G10804   3.570   2.308   6.166  0.3821  1.4837  0.7968
  106OSM    C6F10805   3.522   2.468   6.033  0.2953 -0.3022 -0.4534
  106OSM    H6F10806   3.547   2.542   6.112 -0.2554  1.2021 -1.6384
  106OSM    H6G10807   3.430   2.504   5.981 -0.7494 -1.5193  0.4733
  106OSM    C7F10808   3.636   2.446   5.938 -0.0353 -0.4937  0.0394
  106OSM    H7F10809   3.613   2.360   5.872  2.4088  0.0646 -1.6467
  106OSM    H7G10810   3.727   2.422   5.996 -0.1934 -3.6162 -0.8596
  106OSM    C8F10811   3.676   2.570   5.852  0.5029  0.4881 -0.6708
  106OSM    H8F10812   3.762   2.544   5.785  0.4834  1.9268 -1.2853
  106OSM    H8G10813   3.733   2.640   5.917  1.0368 -1.0370  0.5945
  106OSM    C9F10814   3.561   2.632   5.776 -0.2791  0.4310 -0.4708
  106OSM    H9F10815   3.503   2.697   5.843  0.6081  0.1105  0.6452
  106OSM   C10F10816   3.518   2.604   5.650  0.8795 -0.0316 -0.3968
  106OSM   H10F10817   3.443   2.671   5.605 -0.5840 -1.9315 -0.9007
  106OSM   C11F10818   3.601   2.528   5.551 -0.1525  0.0810  0.2096
  106OSM   H11F10819   3.546   2.468   5.475 -0.0746 -0.1119  0.3046
  106OSM   H11G10820   3.676   2.465   5.603  0.8692  0.4433 -0.7735
  106OSM   C12F10821   3.689   2.627   5.469 -0.0140  0.1132  0.3736
  106OSM   H12F10822   3.750   2.703   5.523 -1.0996  2.0325 -0.9825
  106OSM   H12G10823   3.616   2.685   5.409  0.3526  1.7727  1.4459
  106OSM   C13F10824   3.771   2.547   5.372  0.2822  0.1185  0.6100
  106OSM   H13F10825   3.700   2.486   5.312  0.8280 -0.9223  1.0113
  106OSM   H13G10826   3.843   2.484   5.428 -0.0811  0.6791  1.7259
  106OSM   C14F10827   3.841   2.640   5.263 -0.4831  0.8633 -0.3641
  106OSM   H14F10828   3.928   2.589   5.217 -1.1345 -0.3049 -0.3480
  106OSM   H14G10829   3.892   2.718   5.323  1.6453 -0.2524 -0.6192
  106OSM   C15F10830   3.748   2.711   5.162  0.3832  0.3519 -0.0106
  106OSM   H15F10831   3.667   2.775   5.203  1.1334  0.9601  0.5548
  106OSM   H15G10832   3.701   2.630   5.102  2.6866 -1.0932  0.0311
  106OSM   C16F10833   3.821   2.799   5.060  0.0848 -0.4773 -0.3832
  106OSM   H16F10834   3.896   2.856   5.120  0.4251  0.8142 -1.9712
  106OSM   H16G10835   3.746   2.863   5.009  0.0400 -1.4952 -1.6414
  106OSM   C17F10836   3.899   2.714   4.965 -0.1966  0.0779  0.4258
  106OSM   H17F10837   3.946   2.637   5.031  1.0440  0.5249  0.0928
  106OSM   H17G10838   3.983   2.767   4.915  0.6488 -1.0597  0.5850
  106OSM   C18F10839   3.825   2.644   4.848  0.2945  0.7604  0.5538
  106OSM   H18F10840   3.767   2.710   4.780  1.9624  1.2853 -0.4143
  106OSM   H18G10841   3.758   2.563   4.885 -0.4352  1.5241  0.9421
  106OSM   H18H10842   3.895   2.593   4.779 -0.5207  0.2283  0.1030
  107OSM      N10843   4.468   6.500   6.481  0.2127 -0.0277  0.0466
  107OSM    C1510844   4.507   6.595   6.588 -0.2364  0.1238 -0.2466
  107OSM   H15A10845   4.510   6.700   6.564  1.5736  0.3473  0.7315
  107OSM   H15B10846   4.612   6.582   6.610  0.1790  3.2956  0.2080
  107OSM   H15C10847   4.452   6.584   6.681 -1.0312  0.5067 -0.6634
  107OSM    C1410848   4.568   6.507   6.367 -1.2363  0.3977  0.0820
  107OSM   H14A10849   4.577   6.607   6.327  1.3205  0.7739  1.3678
  107OSM   H14B10850   4.539   6.444   6.285 -0.6048 -1.7982  1.4458
  107OSM   H14C10851   4.669   6.480   6.393 -1.0753  0.1184 -0.8073
  107OSM    C1310852   4.477   6.359   6.534 -0.8992 -0.2244 -0.1097
  107OSM   H13A10853   4.418   6.289   6.477 -0.8887 -1.6789  1.5684
  107OSM   H13B10854   4.436   6.353   6.634 -1.2111 -0.6928 -0.2605
  107OSM   H13C10855   4.578   6.323   6.548 -0.7453  0.2697  0.0700
  107OSM    C1210856   4.321   6.529   6.444 -0.5247  0.5000  0.6384
  107OSM   H12A10857   4.258   6.502   6.528 -0.4885 -3.1675 -0.3403
  107OSM   H12B10858   4.287   6.463   6.365  0.9248  0.0456  0.3676
  107OSM    C1110859   4.276   6.669   6.400  0.0063 -0.5800 -0.7166
  107OSM   H11A10860   4.181   6.658   6.343  0.7447 -1.9556 -1.7247
  107OSM   H11B10861   4.353   6.705   6.329 -1.3517  1.7080 -1.1348
  107OSM      P10862   4.138   6.756   6.602  0.0830  0.1482 -0.3248
  107OSM    O1310863   4.141   6.621   6.661  0.1251  0.1093  0.1235
  107OSM    O1410864   4.149   6.873   6.691 -0.1184  0.5716 -0.3655
  107OSM    O1110865   4.012   6.765   6.499 -0.0299  0.7024  0.1976
  107OSM    O1210866   4.264   6.768   6.510  0.1661  0.6626 -0.5848
  107OSM    C1S10867   4.006   6.881   6.411 -0.0714 -0.8220  0.6984
  107OSM    H1S10868   4.095   6.946   6.422  1.0890 -2.4611  1.4260
  107OSM    H1T10869   3.912   6.937   6.430  1.1848  2.0153 -0.9007
  107OSM     NF10870   3.989   6.944   6.151 -0.0604 -0.0798  0.0234
  107OSM    HNF10871   3.901   6.969   6.111 -1.1845 -1.3629  1.5405
  107OSM    C2S10872   3.985   6.837   6.253  0.0289 -0.4012 -0.2941
  107OSM    H2S10873   4.073   6.774   6.229 -0.9565 -1.6340 -0.7904
  107OSM    C3S10874   3.866   6.740   6.238 -0.1545  0.5441  0.1375
  107OSM    H3S10875   3.774   6.802   6.226 -1.3978 -1.2688 -0.0568
  107OSM     O310876   3.852   6.632   6.333  0.3010  0.3944 -0.0887
  107OSM    HO310877   3.914   6.657   6.402  1.5120 -1.1041 -0.5864
  107OSM    C4S10878   3.881   6.672   6.105  0.0190 -0.9461 -0.3399
  107OSM    H4S10879   3.976   6.621   6.082 -0.3120 -1.9059  0.3376
  107OSM    C5S10880   3.785   6.686   6.017 -0.2177  0.6661  0.4231
  107OSM    H5S10881   3.693   6.740   6.044 -0.6891  0.6912 -1.1543
  107OSM    C6S10882   3.793   6.641   5.872 -0.4768 -0.8512 -0.2054
  107OSM    H6S10883   3.735   6.546   5.861 -1.9029  0.1875 -2.3722
  107OSM    H6T10884   3.893   6.604   5.841 -0.2977 -0.2334 -0.3783
  107OSM    C7S10885   3.746   6.737   5.755  0.2048 -0.0950  0.5068
  107OSM    H7S10886   3.809   6.828   5.762 -1.9460  1.4340  0.9840
  107OSM    H7T10887   3.642   6.773   5.769  0.3590  0.7408 -0.3886
  107OSM    C8S10888   3.766   6.672   5.615  0.5641  0.1754 -0.1568
  107OSM    H8S10889   3.697   6.585   5.624 -3.5094  3.2271  1.0228
  107OSM    H8T10890   3.871   6.637   5.605  0.3941 -0.0413 -1.3197
  107OSM    C9S10891   3.728   6.757   5.497  0.7076  0.0468 -0.1421
  107OSM    H9S10892   3.770   6.859   5.500  0.1280  0.2889 -0.1119
  107OSM    H9T10893   3.617   6.763   5.494  0.4663 -0.9713  3.0885
  107OSM   C10S10894   3.782   6.707   5.366 -0.4112  0.1851  0.0097
  107OSM   H10S10895   3.757   6.599   5.364  0.2763  0.0293 -1.6260
  107OSM   H10T10896   3.893   6.713   5.362 -0.3375 -1.0612 -0.1073
  107OSM   C11S10897   3.720   6.770   5.243  0.1886 -0.2116  0.4228
  107OSM   H11S10898   3.775   6.865   5.231  0.9150 -0.5606  0.9098
  107OSM   H11T10899   3.609   6.773   5.243  0.1623 -0.7173 -0.5986
  107OSM   C12S10900   3.757   6.689   5.111 -0.5270 -0.2545  0.6179
  107OSM   H12S10901   3.697   6.595   5.121 -1.1778  0.0261 -0.4309
  107OSM   H12T10902   3.865   6.664   5.104 -0.3186  0.9580 -1.3996
  107OSM   C13S10903   3.716   6.746   4.973  0.2117 -0.3758 -0.4278
  107OSM   H13S10904   3.775   6.837   4.948 -0.1707  0.1635  0.5871
  107OSM   H13T10905   3.610   6.778   4.960 -0.4899 -0.8564  3.0539
  107OSM   C14S10906   3.737   6.644   4.857 -0.3654 -0.3898 -0.7240
  107OSM   H14S10907   3.697   6.544   4.882 -2.2003 -0.1598 -2.4721
  107OSM   H14T10908   3.839   6.638   4.812 -0.5777 -3.3135 -0.9948
  107OSM   C15S10909   3.658   6.697   4.736  0.3684  0.5819 -0.8331
  107OSM   H15S10910   3.691   6.794   4.693 -3.1621  1.2125 -2.5286
  107OSM   H15T10911   3.554   6.712   4.772 -0.0730  0.1532 -1.9015
  107OSM   C16S10912   3.647   6.599   4.615 -0.0050 -0.1358 -0.1829
  107OSM   H16S10913   3.619   6.495   4.645 -1.3873  0.0515 -0.7578
  107OSM   H16T10914   3.749   6.585   4.573  0.5309  2.4503  0.1150
  107OSM   C17S10915   3.551   6.648   4.510 -0.6376 -0.1161 -0.0159
  107OSM   H17S10916   3.578   6.751   4.482  2.4478 -0.4717  1.3007
  107OSM   H17T10917   3.452   6.658   4.561  0.2776  0.0718  1.8069
  107OSM   C18S10918   3.520   6.541   4.412 -0.3522 -0.4033  0.5752
  107OSM   H18S10919   3.476   6.593   4.324  1.8419  0.1410 -0.2918
  107OSM   H18T10920   3.454   6.457   4.442  0.4165 -1.3704 -0.3628
  107OSM   H18U10921   3.614   6.497   4.372 -0.4656 -1.7527  1.7380
  107OSM    C1F10922   4.095   7.024   6.141 -0.8578  0.6938  0.5945
  107OSM     OF10923   4.204   6.991   6.188 -0.1421 -0.4379 -0.3674
  107OSM    C2F10924   4.083   7.162   6.083  0.4796  0.0147  0.3243
  107OSM    H2F10925   4.117   7.231   6.163  0.7206  1.6336 -1.1324
  107OSM    H2G10926   3.979   7.177   6.047  0.5612 -1.7578 -0.8051
  107OSM    C3F10927   4.177   7.175   5.956  0.4426  0.2234  0.1795
  107OSM    H3F10928   4.278   7.160   6.000  0.0167 -1.5093  0.6380
  107OSM    H3G10929   4.156   7.277   5.916 -0.4618 -0.3172 -0.7606
  107OSM    C4F10930   4.134   7.079   5.845 -0.1386 -0.1222 -0.4890
  107OSM    H4F10931   4.152   6.975   5.879 -0.2601 -0.0944 -0.3390
  107OSM    H4G10932   4.196   7.092   5.754 -0.3796  2.1622 -0.3879
  107OSM    C5F10933   3.989   7.088   5.795 -0.6194 -0.2264  0.0869
  107OSM    H5F10934   3.961   7.196   5.796 -0.1224 -0.0683 -1.2519
  107OSM    H5G10935   3.920   7.041   5.868 -1.1297 -0.3669 -0.4767
  107OSM    C6F10936   3.974   7.022   5.651  0.2686 -0.3106 -0.1918
  107OSM    H6F10937   3.867   7.043   5.629 -0.4130 -0.6168  2.4793
  107OSM    H6G10938   3.988   6.912   5.659  0.3595 -0.3058 -0.2833
  107OSM    C7F10939   4.062   7.084   5.538 -0.0608 -0.0414 -0.3985
  107OSM    H7F10940   4.167   7.048   5.545  0.0428  0.0116 -1.5060
  107OSM    H7G10941   4.067   7.194   5.551 -0.7811  0.2543 -2.2706
  107OSM    C8F10942   4.010   7.059   5.396  0.4093 -0.2140 -0.4499
  107OSM    H8F10943   3.961   6.959   5.392 -1.9650  0.8806 -0.6585
  107OSM    H8G10944   4.098   7.068   5.329  0.9305  0.4700  0.3145
  107OSM    C9F10945   3.906   7.171   5.357 -0.6461 -0.2174 -0.9509
  107OSM    H9F10946   3.841   7.197   5.442  1.0118  1.8818 -0.2103
  107OSM   C10F10947   3.882   7.237   5.240 -0.4687  0.5434 -0.4543
  107OSM   H10F10948   3.805   7.315   5.246 -0.3750  0.5113  2.9988
  107OSM   C11F10949   3.954   7.204   5.108 -0.4489 -0.3627  0.7773
  107OSM   H11F10950   4.039   7.136   5.131 -0.3241 -0.8903 -1.1159
  107OSM   H11G10951   3.982   7.303   5.066 -0.4828  0.0266  1.6493
  107OSM   C12F10952   3.863   7.127   5.008 -0.3310  1.1555 -0.6497
  107OSM   H12F10953   3.785   7.202   4.985 -0.9741  1.0139  0.9480
  107OSM   H12G10954   3.811   7.046   5.063  2.3942 -0.6899 -0.5881
  107OSM   C13F10955   3.941   7.074   4.884 -0.1333  0.0729 -0.9401
  107OSM   H13F10956   3.989   6.976   4.905  1.8405  0.9729 -1.0616
  107OSM   H13G10957   4.026   7.143   4.869 -0.7255  1.0363 -0.0736
  107OSM   C14F10958   3.856   7.070   4.755 -0.1266 -0.5101  0.7745
  107OSM   H14F10959   3.797   7.161   4.733 -0.2246 -0.4623  1.2388
  107OSM   H14G10960   3.776   6.998   4.782 -0.2274 -0.0826  1.6200
  107OSM   C15F10961   3.932   7.041   4.626 -0.6674 -0.2292 -0.8094
  107OSM   H15F10962   4.008   6.961   4.636 -0.7078 -0.6361 -3.1870
  107OSM   H15G10963   3.992   7.132   4.603 -1.0250  1.0156  2.6167
  107OSM   C16F10964   3.844   7.005   4.503 -0.3995 -0.2439  0.0788
  107OSM   H16F10965   3.775   7.078   4.456 -0.4494  0.0041  0.5309
  107OSM   H16G10966   3.780   6.923   4.543 -0.7197 -1.0918 -2.0377
  107OSM   C17F10967   3.933   6.948   4.388  0.4571 -0.2482  0.0130
  107OSM   H17F10968   4.002   6.870   4.428 -2.3168 -2.3903  1.0321
  107OSM   H17G10969   3.987   7.033   4.343  1.4433 -0.8318  0.0671
  107OSM   C18F10970   3.841   6.892   4.285  0.0240 -0.3940  0.5908
  107OSM   H18F10971   3.782   6.977   4.245  0.1399 -0.7761 -0.4133
  107OSM   H18G10972   3.781   6.804   4.316  0.3548 -1.8682 -2.5912
  107OSM   H18H10973   3.892   6.857   4.193  0.7329 -0.8031  1.1265
  108OSM      N10974   6.707   0.347   6.484 -0.3536  0.2111  0.2663
  108OSM    C1510975   6.805   0.442   6.531 -1.1089 -0.5709 -0.2785
  108OSM   H15A10976   6.804   0.465   6.636  2.6339 -1.7674  0.1622
  108OSM   H15B10977   6.806   0.535   6.475  0.9842 -1.5314 -2.0174
  108OSM   H15C10978   6.906   0.411   6.508 -0.9495 -0.3410  0.0943
  108OSM    C1410979   6.752   0.304   6.347 -0.1188 -0.0304  0.8295
  108OSM   H14A10980   6.769   0.386   6.279  3.5572 -2.4393 -1.5610
  108OSM   H14B10981   6.681   0.249   6.287  1.0558  2.4128 -3.1689
  108OSM   H14C10982   6.850   0.260   6.348  1.3007  2.8401 -0.7006
  108OSM    C1310983   6.722   0.223   6.564 -0.9101  0.0552 -0.8282
  108OSM   H13A10984   6.709   0.252   6.668 -0.7500  0.1304 -0.8294
  108OSM   H13B10985   6.824   0.190   6.562 -1.0755 -0.7741  1.2591
  108OSM   H13C10986   6.650   0.145   6.545  0.9946 -1.3542 -2.5931
  108OSM    C1210987   6.571   0.402   6.484  0.7019 -0.6505 -0.6901
  108OSM   H12A10988   6.547   0.439   6.582 -0.0495 -2.2792 -0.2275
  108OSM   H12B10989   6.497   0.328   6.458 -0.4132 -0.2575  1.1936
  108OSM    C1110990   6.543   0.517   6.381 -0.7736 -0.7022  0.0137
  108OSM   H11A10991   6.434   0.539   6.375 -1.0047 -1.5758  0.7558
  108OSM   H11B10992   6.565   0.498   6.274 -3.6015  0.7996 -0.9348
  108OSM      P10993   6.583   0.713   6.537 -0.1784 -0.0881 -0.3672
  108OSM    O1310994   6.520   0.636   6.646  0.0204 -0.6561 -0.0135
  108OSM    O1410995   6.702   0.794   6.580 -0.4072 -0.3278  0.2411
  108OSM    O1110996   6.482   0.818   6.468 -0.0545  0.4244 -0.3410
  108OSM    O1210997   6.624   0.624   6.421 -0.3897 -0.3890 -0.0806
  108OSM    C1S10998   6.532   0.929   6.392  0.2162  0.2172 -0.3514
  108OSM    H1S10999   6.643   0.922   6.383  0.2872 -1.8985  1.4429
  108OSM    H1T11000   6.522   1.022   6.453 -0.3819 -0.7715  1.1280
  108OSM     NF11001   6.582   0.997   6.161 -1.1042  0.4871 -0.2801
  108OSM    HNF11002   6.590   1.096   6.162  0.8449  0.3572 -0.0380
  108OSM    C2S11003   6.489   0.933   6.246  0.1765  0.3952  0.4713
  108OSM    H2S11004   6.477   0.824   6.227 -1.4250  0.4333  1.1245
  108OSM    C3S11005   6.342   0.990   6.246  0.8995  0.0612 -0.6847
  108OSM    H3S11006   6.353   1.096   6.278 -0.6469  0.0388 -0.0138
  108OSM     O311007   6.249   0.931   6.344 -0.0693  0.2502 -0.0121
  108OSM    HO311008   6.315   0.891   6.400  0.2536  1.0212  0.1674
  108OSM    C4S11009   6.288   0.993   6.108  0.6865  0.0467  0.4686
  108OSM    H4S11010   6.302   1.090   6.058  1.7559  1.1295  2.7219
  108OSM    C5S11011   6.231   0.897   6.036  0.5475 -0.5721  0.1719
  108OSM    H5S11012   6.224   0.803   6.093  3.0098 -0.9631 -0.0714
  108OSM    C6S11013   6.183   0.894   5.898 -0.5264 -0.1541  0.8824
  108OSM    H6S11014   6.263   0.868   5.825 -1.2126 -0.4011  0.2039
  108OSM    H6T11015   6.139   0.993   5.873 -1.8548 -0.9874 -0.1917
  108OSM    C7S11016   6.070   0.788   5.894  0.5390 -0.2717  0.4111
  108OSM    H7S11017   5.990   0.824   5.961  1.2696  2.6358 -0.1316
  108OSM    H7T11018   6.093   0.686   5.933 -0.1333 -0.3398  0.6310
  108OSM    C8S11019   6.011   0.769   5.751  0.6665  0.5786  0.0343
  108OSM    H8S11020   5.944   0.856   5.731 -1.9146 -1.0963  0.8373
  108OSM    H8T11021   5.931   0.693   5.760  0.6873  0.5999  0.4306
  108OSM    C9S11022   6.120   0.751   5.649  1.0817  0.2317  0.1607
  108OSM    H9S11023   6.197   0.675   5.672  2.3756  1.3120 -0.4464
  108OSM    H9T11024   6.185   0.841   5.648 -0.2351  1.2067  0.2230
  108OSM   C10S11025   6.062   0.721   5.506 -0.8226 -0.2179  0.6320
  108OSM   H10S11026   5.994   0.633   5.512  0.2662 -1.0525  1.2854
  108OSM   H10T11027   6.142   0.684   5.437 -0.6452  1.0922  0.1218
  108OSM   C11S11028   5.980   0.833   5.441 -0.3144 -0.3647  0.0430
  108OSM   H11S11029   6.043   0.924   5.440 -0.6448 -0.1273 -1.1226
  108OSM   H11T11030   5.889   0.852   5.501 -1.3755  1.0108 -1.8914
  108OSM   C12S11031   5.923   0.803   5.297  0.1134  0.0133 -0.0778
  108OSM   H12S11032   5.863   0.892   5.270  0.9805 -0.1304 -2.7206
  108OSM   H12T11033   5.856   0.715   5.304 -0.3967  0.3875 -0.2096
  108OSM   C13S11034   6.035   0.804   5.190 -0.0850  0.1457  0.1400
  108OSM   H13S11035   6.092   0.709   5.199  1.9109  1.4223  1.8831
  108OSM   H13T11036   6.101   0.886   5.224 -1.1764  1.3102 -0.4879
  108OSM   C14S11037   5.990   0.817   5.049  0.4111  1.1922  0.3441
  108OSM   H14S11038   5.930   0.909   5.032 -1.0807  0.1153 -0.3836
  108OSM   H14T11039   5.930   0.732   5.012 -0.5202  1.8591  0.2741
  108OSM   C15S11040   6.110   0.813   4.948 -0.0507  0.0498  0.8419
  108OSM   H15S11041   6.137   0.707   4.932  1.9621  0.7677 -1.0028
  108OSM   H15T11042   6.194   0.876   4.985  0.6278 -0.3010 -0.0662
  108OSM   C16S11043   6.073   0.884   4.813  0.2529  0.3476  0.4729
  108OSM   H16S11044   6.017   0.979   4.828 -0.8858 -0.5924  2.7071
  108OSM   H16T11045   6.009   0.806   4.767 -0.4518  1.9137 -1.2971
  108OSM   C17S11046   6.192   0.909   4.727 -0.3589 -0.1007  0.2401
  108OSM   H17S11047   6.156   0.959   4.635  0.8607 -1.3990 -0.9890
  108OSM   H17T11048   6.256   0.820   4.712 -0.3510 -0.1561  0.5779
  108OSM   C18S11049   6.280   1.016   4.787 -0.3045  0.6320 -0.4124
  108OSM   H18S11050   6.353   1.059   4.715  1.1937  1.2952  1.4207
  108OSM   H18T11051   6.338   0.979   4.875 -1.2272  0.0397 -0.0424
  108OSM   H18U11052   6.214   1.101   4.817 -2.4161 -0.8932 -0.5416
  108OSM    C1F11053   6.675   0.929   6.089  0.5493  0.7268  0.4100
  108OSM     OF11054   6.674   0.805   6.098  0.3859 -0.1599  0.2180
  108OSM    C2F11055   6.773   1.001   6.009 -0.5787 -0.3506  0.1183
  108OSM    H2F11056   6.859   1.013   6.079 -0.1588  1.3697 -0.6319
  108OSM    H2G11057   6.740   1.100   5.970  1.1016 -0.5684 -2.0179
  108OSM    C3F11058   6.811   0.920   5.883  0.3444 -0.2288 -0.2607
  108OSM    H3F11059   6.725   0.932   5.813  0.2031 -0.0612 -0.0589
  108OSM    H3G11060   6.827   0.812   5.902  1.1785 -0.1276 -0.3637
  108OSM    C4F11061   6.932   0.986   5.813  0.2129 -0.0528 -0.5234
  108OSM    H4F11062   7.007   1.030   5.883 -2.2560  2.7192  0.6088
  108OSM    H4G11063   6.883   1.071   5.762 -1.5845 -0.5847  0.2231
  108OSM    C5F11064   6.997   0.886   5.715  0.6295 -0.0549 -0.1590
  108OSM    H5F11065   7.071   0.939   5.651  0.2902 -0.8577 -1.2548
  108OSM    H5G11066   6.926   0.858   5.634  3.1613  0.2684 -2.6650
  108OSM    C6F11067   7.049   0.759   5.778 -0.2643 -0.6174  0.2726
  108OSM    H6F11068   6.977   0.692   5.831 -0.9902  0.5264  0.7546
  108OSM    H6G11069   7.114   0.795   5.860 -0.8309  0.4032  0.2850
  108OSM    C7F11070   7.128   0.672   5.680  0.2288  0.1182  0.5979
  108OSM    H7F11071   7.064   0.619   5.607  0.1514 -0.0015  0.7509
  108OSM    H7G11072   7.166   0.583   5.735  0.3292  0.2661  0.7699
  108OSM    C8F11073   7.243   0.751   5.610  0.0618  0.5462  0.0239
  108OSM    H8F11074   7.282   0.816   5.691  0.1238 -0.8789  1.1901
  108OSM    H8G11075   7.195   0.812   5.531  0.4112  1.4051  0.4660
  108OSM    C9F11076   7.334   0.656   5.541 -0.3545 -0.2100 -0.8104
  108OSM    H9F11077   7.384   0.602   5.623 -0.3670  0.7661 -0.1458
  108OSM   C10F11078   7.380   0.651   5.411  0.2835  0.5713 -0.3369
  108OSM   H10F11079   7.435   0.562   5.377  0.6017  2.1088 -4.3406
  108OSM   C11F11080   7.340   0.742   5.304  0.2014  0.0922  0.0763
  108OSM   H11F11081   7.278   0.820   5.352  2.2690  1.7662  0.1639
  108OSM   H11G11082   7.298   0.680   5.221  1.3731 -1.1835  0.3880
  108OSM   C12F11083   7.462   0.824   5.251  0.1042  0.2638 -0.0601
  108OSM   H12F11084   7.555   0.765   5.260  0.0628  0.4070  1.5683
  108OSM   H12G11085   7.476   0.911   5.319 -2.3936 -1.8745  3.5656
  108OSM   C13F11086   7.447   0.886   5.112 -0.0266 -0.1903  0.7763
  108OSM   H13F11087   7.376   0.971   5.120  0.1793  0.1836 -0.9876
  108OSM   H13G11088   7.418   0.810   5.037 -0.0640 -0.5875  1.1850
  108OSM   C14F11089   7.586   0.934   5.066  0.2262  0.2923 -0.5225
  108OSM   H14F11090   7.661   0.856   5.045 -1.0877 -1.0798 -0.2814
  108OSM   H14G11091   7.628   0.975   5.160  0.4194 -2.1007  0.4954
  108OSM   C15F11092   7.585   1.030   4.946  0.3169  0.5783 -0.3071
  108OSM   H15F11093   7.682   1.084   4.951  0.3768  0.4342  0.1233
  108OSM   H15G11094   7.517   1.112   4.978  0.9120  0.8772  0.2128
  108OSM   C16F11095   7.554   0.964   4.805 -0.3567 -0.0122 -0.2471
  108OSM   H16F11096   7.496   1.034   4.740  2.2072  1.9849 -0.5382
  108OSM   H16G11097   7.498   0.871   4.826  0.7855 -0.5433  0.5666
  108OSM   C17F11098   7.682   0.947   4.721 -0.4082  0.2480  0.4274
  108OSM   H17F11099   7.734   1.046   4.716 -0.0695  0.1669  1.7776
  108OSM   H17G11100   7.655   0.910   4.620  1.6176 -1.6808  0.5211
  108OSM   C18F11101   7.787   0.841   4.767  0.1043 -0.0974 -0.2056
  108OSM   H18F11102   7.792   0.829   4.877  1.1988 -0.2958 -0.2653
  108OSM   H18G11103   7.889   0.852   4.724 -0.0465 -1.0105 -0.8212
  108OSM   H18H11104   7.752   0.739   4.743 -0.3641  0.2805 -1.1543
  109OSM      N11105   2.814   2.372   6.736  0.3170 -0.6188  0.2312
  109OSM    C1511106   2.850   2.230   6.768 -0.0780  0.3484 -0.1243
  109OSM   H15A11107   2.772   2.158   6.788  0.5831 -0.4845 -0.4941
  109OSM   H15B11108   2.916   2.229   6.853  1.1548  1.2700 -1.0381
  109OSM   H15C11109   2.907   2.190   6.685  0.1067 -0.8828  0.5724
  109OSM    C1411110   2.724   2.425   6.840 -0.0390 -0.4421  0.5220
  109OSM   H14A11111   2.636   2.367   6.861  1.2160 -1.7663  2.4359
  109OSM   H14B11112   2.696   2.529   6.833  0.1824 -0.2992  1.6735
  109OSM   H14C11113   2.778   2.423   6.934 -1.1632  2.9650  1.3864
  109OSM    C1311114   2.942   2.458   6.743  0.3755 -0.2085  0.5976
  109OSM   H13A11115   2.987   2.463   6.841  2.0783  0.9935 -0.1999
  109OSM   H13B11116   2.928   2.555   6.698  0.1787 -0.7997 -0.6740
  109OSM   H13C11117   3.024   2.408   6.694  1.0353  2.9024 -1.7927
  109OSM    C1211118   2.740   2.379   6.604  0.2873  0.0059 -0.5576
  109OSM   H12A11119   2.692   2.476   6.595  1.7513  0.9908  1.4165
  109OSM   H12B11120   2.653   2.316   6.610  0.5147 -0.1599  1.9089
  109OSM    C1111121   2.805   2.341   6.472 -0.2610  0.2115 -0.0141
  109OSM   H11A11122   2.891   2.411   6.460  0.8508 -0.6582  2.2352
  109OSM   H11B11123   2.740   2.356   6.384  1.3198 -3.7325 -2.1075
  109OSM      P11124   2.763   2.092   6.455 -0.1623 -0.0276  0.3480
  109OSM    O1311125   2.813   1.977   6.534  0.4497  0.1549 -0.3955
  109OSM    O1411126   2.626   2.134   6.482 -0.2948 -0.3360  0.5592
  109OSM    O1111127   2.776   2.055   6.304  0.4221  0.7740  0.0805
  109OSM    O1211128   2.863   2.210   6.475 -0.0507  0.1930  0.5628
  109OSM    C1S11129   2.881   2.107   6.218 -0.0480  0.0559 -0.2565
  109OSM    H1S11130   2.967   2.038   6.234 -1.0531 -0.8173  1.7361
  109OSM    H1T11131   2.910   2.213   6.237  1.6096 -0.6201  1.3303
  109OSM     NF11132   2.943   2.147   5.973 -0.3221  0.9983  0.1780
  109OSM    HNF11133   2.925   2.240   5.944 -0.0517  1.1807  0.5872
  109OSM    C2S11134   2.843   2.096   6.067  0.2887 -0.0654 -0.9200
  109OSM    H2S11135   2.827   1.990   6.038 -1.3133  0.7698 -3.3225
  109OSM    C3S11136   2.703   2.164   6.049 -0.2910  0.0016 -0.3559
  109OSM    H3S11137   2.694   2.256   6.112 -1.6361 -0.2908 -0.1040
  109OSM     O311138   2.596   2.078   6.082 -0.0150 -0.0249 -0.3256
  109OSM    HO311139   2.630   2.015   6.145 -0.5703  0.1382  0.1496
  109OSM    C4S11140   2.677   2.211   5.907  0.7242  0.9325 -0.0885
  109OSM    H4S11141   2.654   2.129   5.837 -0.2084 -0.4306  1.7379
  109OSM    C5S11142   2.684   2.338   5.856 -0.9281  0.7653 -0.1116
  109OSM    H5S11143   2.738   2.413   5.915 -0.5160  0.5628 -0.2235
  109OSM    C6S11144   2.660   2.363   5.713  0.4905  0.4399  0.0250
  109OSM    H6S11145   2.679   2.471   5.695  1.7420  0.4599  1.2367
  109OSM    H6T11146   2.562   2.323   5.678  0.8803  0.8084 -1.5737
  109OSM    C7S11147   2.770   2.293   5.621  0.0219  0.8912 -0.1967
  109OSM    H7S11148   2.764   2.184   5.641 -0.4714  0.7153 -1.2134
  109OSM    H7T11149   2.874   2.318   5.650  0.1380  0.2136 -0.0201
  109OSM    C8S11150   2.745   2.297   5.467  0.2306 -1.1996 -0.1470
  109OSM    H8S11151   2.744   2.400   5.425 -0.0182 -0.2193  2.1128
  109OSM    H8T11152   2.644   2.256   5.442  0.3008 -0.3012 -2.0849
  109OSM    C9S11153   2.841   2.209   5.395 -0.8102  0.6126 -0.1151
  109OSM    H9S11154   2.855   2.117   5.456 -3.8808  0.7406  0.9822
  109OSM    H9T11155   2.942   2.251   5.378 -0.3856 -1.3110 -2.8810
  109OSM   C10S11156   2.793   2.154   5.260 -0.3156 -0.2335  0.8190
  109OSM   H10S11157   2.687   2.124   5.271 -0.2614 -0.2191  1.3835
  109OSM   H10T11158   2.851   2.062   5.236 -0.0696 -0.0943  0.8745
  109OSM   C11S11159   2.800   2.247   5.139  0.3870  0.1879  0.0955
  109OSM   H11S11160   2.904   2.264   5.105  0.1911  0.2178 -0.5004
  109OSM   H11T11161   2.750   2.343   5.165 -1.0811 -0.2881 -0.8720
  109OSM   C12S11162   2.719   2.191   5.015  0.0519 -0.4678 -0.0922
  109OSM   H12S11163   2.612   2.174   5.039  0.4588 -0.7442  1.6370
  109OSM   H12T11164   2.769   2.100   4.975 -0.7392  0.3821 -3.3131
  109OSM   C13S11165   2.728   2.284   4.889 -0.3286  0.7445 -0.1246
  109OSM   H13S11166   2.830   2.323   4.871  1.1072 -2.4903  0.2900
  109OSM   H13T11167   2.651   2.363   4.904 -1.7323 -0.8245  1.5515
  109OSM   C14S11168   2.682   2.222   4.754  0.1909 -0.6066  0.3562
  109OSM   H14S11169   2.574   2.197   4.757  0.1360 -0.5103 -0.6112
  109OSM   H14T11170   2.732   2.125   4.731  0.2696 -0.0436 -2.1527
  109OSM   C15S11171   2.721   2.309   4.636  0.1916 -0.3858 -0.4222
  109OSM   H15S11172   2.825   2.347   4.647 -0.4017  1.3345 -0.5011
  109OSM   H15T11173   2.653   2.394   4.614 -0.7855  0.0753  3.5808
  109OSM   C16S11174   2.732   2.218   4.508  0.1453 -0.2414  0.8277
  109OSM   H16S11175   2.645   2.150   4.490 -0.2594  0.4424  0.1193
  109OSM   H16T11176   2.815   2.149   4.534 -0.0152 -0.7973 -0.0871
  109OSM   C17S11177   2.771   2.286   4.372  0.2483  0.0644 -0.7203
  109OSM   H17S11178   2.779   2.215   4.287 -1.7222  0.7683 -1.5493
  109OSM   H17T11179   2.864   2.343   4.391  0.7510 -1.5917  2.7698
  109OSM   C18S11180   2.673   2.390   4.327  0.0927 -0.1071 -0.1392
  109OSM   H18S11181   2.699   2.424   4.225  1.8735  0.7642  0.5719
  109OSM   H18T11182   2.665   2.474   4.399  0.7861 -0.7090  0.6636
  109OSM   H18U11183   2.576   2.338   4.307  0.6985 -1.5139  0.4184
  109OSM    C1F11184   3.057   2.080   5.945  0.1643  0.0548  0.1272
  109OSM     OF11185   3.080   1.964   5.983 -0.3401 -0.6267  0.2768
  109OSM    C2F11186   3.157   2.136   5.867  0.0851 -0.2112 -0.1867
  109OSM    H2F11187   3.252   2.107   5.916 -0.6076 -0.5939  0.9592
  109OSM    H2G11188   3.154   2.247   5.865  0.5432 -0.1983 -0.5008
  109OSM    C3F11189   3.150   2.074   5.722 -0.5426 -0.1767  0.7320
  109OSM    H3F11190   3.056   2.095   5.667  0.3095  0.3793 -0.5607
  109OSM    H3G11191   3.169   1.965   5.726 -0.5300 -0.2332 -0.4927
  109OSM    C4F11192   3.263   2.142   5.642  0.3847 -0.4196  0.1425
  109OSM    H4F11193   3.359   2.093   5.670  0.3171 -1.2911 -1.0743
  109OSM    H4G11194   3.283   2.247   5.670  0.9916 -0.4175 -0.2872
  109OSM    C5F11195   3.247   2.129   5.490  0.0315  0.0871 -0.1199
  109OSM    H5F11196   3.167   2.198   5.455  2.3694  2.7649 -0.6031
  109OSM    H5G11197   3.217   2.026   5.462  0.1236 -0.0281  0.2001
  109OSM    C6F11198   3.361   2.166   5.412  0.0007  0.3482 -0.5416
  109OSM    H6F11199   3.452   2.110   5.443 -0.6315  0.6421  2.0925
  109OSM    H6G11200   3.375   2.274   5.429  1.3664 -0.1917  2.4313
  109OSM    C7F11201   3.350   2.145   5.257  0.0954  0.8280 -0.0017
  109OSM    H7F11202   3.257   2.192   5.219 -1.1286 -1.0439  0.5511
  109OSM    H7G11203   3.340   2.036   5.240  2.7225  0.7678 -1.7054
  109OSM    C8F11204   3.478   2.185   5.188  0.1963 -0.4617 -0.1309
  109OSM    H8F11205   3.563   2.131   5.235  1.5055  1.3392 -0.3217
  109OSM    H8G11206   3.487   2.296   5.196 -0.0669 -0.1969 -2.6042
  109OSM    C9F11207   3.474   2.145   5.049 -0.3772 -0.2642  0.7028
  109OSM    H9F11208   3.452   2.039   5.029 -5.2729  0.7251 -0.6922
  109OSM   C10F11209   3.518   2.221   4.945 -0.1337 -0.3605  0.0673
  109OSM   H10F11210   3.500   2.201   4.838 -1.8064  0.0638  0.2320
  109OSM   C11F11211   3.572   2.361   4.961  1.3433  0.4411  0.6706
  109OSM   H11F11212   3.671   2.368   4.910  0.3429  1.0854 -1.2938
  109OSM   H11G11213   3.581   2.396   5.066 -2.2294  1.0988  0.8772
  109OSM   C12F11214   3.478   2.458   4.884 -0.3155  0.5318  0.3744
  109OSM   H12F11215   3.490   2.553   4.941  1.5630 -0.0913  1.1053
  109OSM   H12G11216   3.371   2.430   4.896 -0.5879  1.8337  1.3235
  109OSM   C13F11217   3.522   2.458   4.732  0.2379  0.4305 -0.1008
  109OSM   H13F11218   3.511   2.355   4.691 -0.4260  0.6198 -0.4192
  109OSM   H13G11219   3.631   2.475   4.722  0.5281  0.7665  2.9304
  109OSM   C14F11220   3.436   2.549   4.649 -0.2485  0.4059 -0.2519
  109OSM   H14F11221   3.458   2.654   4.679  0.6549 -0.0406  0.7411
  109OSM   H14G11222   3.326   2.538   4.663 -0.2991 -0.6105 -1.3708
  109OSM   C15F11223   3.456   2.548   4.498 -0.6914  0.3851  0.4732
  109OSM   H15F11224   3.561   2.557   4.464 -0.5946  0.1412  0.7044
  109OSM   H15G11225   3.395   2.617   4.437 -0.8598 -1.1666 -1.2023
  109OSM   C16F11226   3.423   2.421   4.427  0.9761  0.1232  0.0148
  109OSM   H16F11227   3.317   2.399   4.450  0.9207  0.1294 -0.2296
  109OSM   H16G11228   3.486   2.337   4.463  1.3240  0.8431  1.1610
  109OSM   C17F11229   3.439   2.426   4.270 -0.0236 -0.1942 -0.0545
  109OSM   H17F11230   3.431   2.536   4.256  0.8496 -0.0142  0.7821
  109OSM   H17G11231   3.356   2.371   4.221  0.7010  0.5608 -2.2866
  109OSM   C18F11232   3.568   2.384   4.225 -0.8092  0.3678 -0.3372
  109OSM   H18F11233   3.580   2.274   4.234  0.4238  0.5819  0.8614
  109OSM   H18G11234   3.652   2.423   4.286 -0.5786  1.0163 -1.0425
  109OSM   H18H11235   3.595   2.410   4.120 -0.0465  0.5859 -0.0919
  110OSM      N11236   5.362   6.275   6.792 -0.1037 -0.0921  0.0190
  110OSM    C1511237   5.408   6.170   6.894 -0.3886 -0.4761  0.2495
  110OSM   H15A11238   5.514   6.153   6.903 -0.4510 -0.8326  0.3071
  110OSM   H15B11239   5.374   6.071   6.871  0.4824 -1.7400  3.7820
  110OSM   H15C11240   5.363   6.193   6.989 -0.9141 -2.5181  0.5288
  110OSM    C1411241   5.216   6.308   6.802 -0.4615 -0.7484 -0.1339
  110OSM   H14A11242   5.199   6.388   6.732 -0.7042 -2.8302 -2.6225
  110OSM   H14B11243   5.189   6.335   6.903 -0.2276  0.6585 -0.4264
  110OSM   H14C11244   5.151   6.231   6.763 -2.5624  0.8215  0.1054
  110OSM    C1311245   5.437   6.404   6.819  0.2051  0.4076 -0.2973
  110OSM   H13A11246   5.543   6.388   6.819  0.3290  1.0181  1.3767
  110OSM   H13B11247   5.411   6.441   6.917 -0.3128  1.0082 -0.6481
  110OSM   H13C11248   5.415   6.477   6.742 -0.9617 -0.1268 -0.4991
  110OSM    C1211249   5.405   6.232   6.651  0.2387  0.0003  0.3526
  110OSM   H12A11250   5.378   6.127   6.643  1.2772 -0.2277 -0.3229
  110OSM   H12B11251   5.512   6.244   6.646  0.2299 -0.3754 -1.8748
  110OSM    C1111252   5.339   6.313   6.532  0.5216 -1.0065  0.6033
  110OSM   H11A11253   5.228   6.313   6.539  0.5273 -1.3727  0.7304
  110OSM   H11B11254   5.367   6.248   6.446  1.0331  0.2168 -0.1806
  110OSM      P11255   5.508   6.506   6.468 -0.4928 -0.2554  0.2963
  110OSM    O1311256   5.516   6.650   6.508  0.2086  0.4679  0.6256
  110OSM    O1411257   5.624   6.430   6.513  0.1990  0.1243  0.2278
  110OSM    O1111258   5.493   6.489   6.314 -0.0125 -0.8661 -0.1218
  110OSM    O1211259   5.379   6.455   6.529 -0.1288  0.0421 -0.0533
  110OSM    C1S11260   5.368   6.501   6.244  0.2310 -0.0797 -0.8542
  110OSM    H1S11261   5.347   6.609   6.227 -0.4268  0.3500  2.0683
  110OSM    H1T11262   5.281   6.459   6.298 -0.3189  1.2840 -0.6433
  110OSM     NF11263   5.248   6.449   6.038 -0.2086 -0.0211  0.4368
  110OSM    HNF11264   5.227   6.369   5.981  0.5209  1.0661 -1.4350
  110OSM    C2S11265   5.371   6.431   6.111 -0.0257  0.1461  0.3358
  110OSM    H2S11266   5.451   6.490   6.060  0.5010 -0.2048  0.7459
  110OSM    C3S11267   5.420   6.286   6.120  0.1172  0.1179 -0.0532
  110OSM    H3S11268   5.349   6.236   6.189 -0.1005 -1.2847 -1.2491
  110OSM     O311269   5.549   6.264   6.180  0.0525 -0.0065 -0.2410
  110OSM    HO311270   5.564   6.333   6.245 -0.4499  1.4925 -1.6626
  110OSM    C4S11271   5.400   6.212   5.988 -0.1719  0.0618 -0.1690
  110OSM    H4S11272   5.313   6.145   5.980 -2.0085  2.4119 -1.3716
  110OSM    C5S11273   5.472   6.222   5.873  0.1148 -0.0417  0.3864
  110OSM    H5S11274   5.546   6.303   5.872  0.8990 -0.7183 -1.7086
  110OSM    C6S11275   5.441   6.170   5.733 -0.3686 -0.6258  0.4773
  110OSM    H6S11276   5.368   6.087   5.741 -1.1643 -0.0816 -0.9353
  110OSM    H6T11277   5.534   6.133   5.685 -1.5561 -1.9803 -0.8828
  110OSM    C7S11278   5.368   6.286   5.656  0.6970  0.4879 -1.1573
  110OSM    H7S11279   5.436   6.373   5.647  1.2712  0.0081 -1.5489
  110OSM    H7T11280   5.283   6.314   5.720  0.7857 -2.3778  0.3667
  110OSM    C8S11281   5.300   6.243   5.523 -0.0466  0.5405 -0.8369
  110OSM    H8S11282   5.272   6.338   5.472  0.5573  2.0279  1.4122
  110OSM    H8T11283   5.209   6.183   5.546 -0.1064  0.9280 -0.0297
  110OSM    C9S11284   5.399   6.168   5.431  0.3308 -0.5271  0.1605
  110OSM    H9S11285   5.418   6.066   5.473 -1.2417 -0.5137  0.9885
  110OSM    H9T11286   5.489   6.232   5.421 -0.6068  0.5664 -1.8500
  110OSM   C10S11287   5.349   6.142   5.291  0.4083  0.6379  0.7596
  110OSM   H10S11288   5.327   6.236   5.237  0.2091 -0.8719 -1.9703
  110OSM   H10T11289   5.258   6.079   5.295  0.7957  0.0976  1.4345
  110OSM   C11S11290   5.454   6.057   5.209  0.9950  0.7479  0.1290
  110OSM   H11S11291   5.486   5.962   5.258  1.1011  1.4779  1.5274
  110OSM   H11T11292   5.539   6.127   5.194  1.0557  1.4798  3.1112
  110OSM   C12S11293   5.407   6.031   5.072  0.1438  0.0638  0.7271
  110OSM   H12S11294   5.371   6.127   5.030  0.2863  0.1646  0.8337
  110OSM   H12T11295   5.326   5.955   5.063  3.3167 -3.6084  0.2706
  110OSM   C13S11296   5.517   5.979   4.977  0.5481  0.0483  0.7618
  110OSM   H13S11297   5.546   5.880   5.018 -1.3781  0.1876  2.6197
  110OSM   H13T11298   5.601   6.052   4.975  2.0579 -1.6344 -0.1740
  110OSM   C14S11299   5.474   5.955   4.833 -0.4549  0.8892 -0.0942
  110OSM   H14S11300   5.424   5.856   4.824 -0.2087  0.7784 -0.2601
  110OSM   H14T11301   5.557   5.961   4.759 -1.1069 -0.5192 -0.9691
  110OSM   C15S11302   5.384   6.074   4.783 -0.7679  0.5278  0.6372
  110OSM   H15S11303   5.450   6.160   4.804 -0.2894 -0.1207  1.9079
  110OSM   H15T11304   5.282   6.066   4.827 -1.0238 -0.6347 -0.1021
  110OSM   C16S11305   5.352   6.061   4.629  0.2456 -0.1112  0.4256
  110OSM   H16S11306   5.267   6.119   4.588  1.8961  0.1338 -3.0354
  110OSM   H16T11307   5.317   5.956   4.622  1.2990 -0.5912  1.8611
  110OSM   C17S11308   5.472   6.089   4.534  0.2815  0.0450  0.4923
  110OSM   H17S11309   5.550   6.014   4.558  0.9029  1.1876  2.2567
  110OSM   H17T11310   5.521   6.186   4.553  0.5128 -0.0095  0.1730
  110OSM   C18S11311   5.440   6.080   4.388 -0.1398  0.2242  0.2176
  110OSM   H18S11312   5.397   5.981   4.363 -0.7512  0.6034 -0.2488
  110OSM   H18T11313   5.537   6.093   4.335  0.5755 -1.1032  1.1460
  110OSM   H18U11314   5.372   6.165   4.364  0.3186  0.6184  0.2853
  110OSM    C1F11315   5.164   6.553   6.022  0.6726  0.2603  0.9102
  110OSM     OF11316   5.179   6.654   6.087  0.4049 -0.2082 -0.1478
  110OSM    C2F11317   5.054   6.542   5.914 -0.8340  0.1543 -0.3167
  110OSM    H2F11318   4.955   6.511   5.952 -0.3159 -0.2681  0.7202
  110OSM    H2G11319   5.079   6.466   5.837 -3.3343 -1.2143  0.1298
  110OSM    C3F11320   5.040   6.679   5.842 -0.3055  0.3163 -0.0730
  110OSM    H3F11321   5.139   6.716   5.807  0.0788 -0.6022 -0.0015
  110OSM    H3G11322   5.008   6.751   5.920  0.3243  2.2844 -1.5658
  110OSM    C4F11323   4.947   6.685   5.724 -0.5863  0.0137 -0.4140
  110OSM    H4F11324   4.930   6.790   5.693  0.0048  0.1789 -0.1921
  110OSM    H4G11325   4.848   6.651   5.761 -2.2530  4.8302  0.2468
  110OSM    C5F11326   5.007   6.604   5.606 -0.1052  0.0650 -0.3955
  110OSM    H5F11327   5.025   6.503   5.648  0.3622 -0.0040 -0.7519
  110OSM    H5G11328   5.105   6.633   5.560 -0.6108  1.6747 -0.5301
  110OSM    C6F11329   4.915   6.583   5.484 -0.3411 -0.8967  0.0522
  110OSM    H6F11330   4.814   6.556   5.521  0.2274 -0.5393  1.9761
  110OSM    H6G11331   4.960   6.503   5.422 -1.5449 -0.1670 -1.8540
  110OSM    C7F11332   4.898   6.717   5.410 -0.2635 -0.3731 -0.4469
  110OSM    H7F11333   4.967   6.724   5.324 -0.8212  1.2848 -0.8136
  110OSM    H7G11334   4.908   6.801   5.482 -0.8323 -0.6169 -0.0770
  110OSM    C8F11335   4.754   6.727   5.348  0.3599 -0.5231  0.3014
  110OSM    H8F11336   4.684   6.708   5.432  0.4107  0.1489  0.5015
  110OSM    H8G11337   4.733   6.651   5.270  1.8870  1.5357 -2.2741
  110OSM    C9F11338   4.728   6.864   5.290  0.3033 -0.1536  0.5182
  110OSM    H9F11339   4.718   6.945   5.363  1.6306  0.2250  0.2904
  110OSM   C10F11340   4.732   6.890   5.158  0.8339  0.8300  0.1640
  110OSM   H10F11341   4.701   6.989   5.121 -0.2461  1.0679  1.6000
  110OSM   C11F11342   4.766   6.794   5.047 -0.5902 -0.0071 -0.2194
  110OSM   H11F11343   4.807   6.700   5.090 -0.3935 -0.0152 -0.4263
  110OSM   H11G11344   4.848   6.828   4.981  2.5070 -1.7410  2.4617
  110OSM   C12F11345   4.654   6.748   4.943  0.5521 -0.6083  0.2665
  110OSM   H12F11346   4.618   6.837   4.888  1.0322  0.6514  1.9001
  110OSM   H12G11347   4.567   6.722   5.007  0.7065 -2.3055 -0.1563
  110OSM   C13F11348   4.705   6.639   4.847 -0.2740 -0.4672  1.0005
  110OSM   H13F11349   4.611   6.599   4.805  0.2926 -0.3338 -0.4915
  110OSM   H13G11350   4.758   6.551   4.889 -0.1262 -0.4925  0.7649
  110OSM   C14F11351   4.775   6.688   4.720 -0.5130 -0.7430 -0.0750
  110OSM   H14F11352   4.881   6.698   4.752 -0.8426  3.5278  0.2082
  110OSM   H14G11353   4.741   6.792   4.699  1.5342  0.4633  2.0615
  110OSM   C15F11354   4.767   6.586   4.605  0.7060 -0.1008 -0.7897
  110OSM   H15F11355   4.665   6.544   4.588  0.6688  0.0832 -1.0175
  110OSM   H15G11356   4.827   6.494   4.622 -0.9907 -0.8336  1.9497
  110OSM   C16F11357   4.823   6.642   4.476  0.1178 -0.4947 -0.0527
  110OSM   H16F11358   4.926   6.677   4.496  1.1870 -2.4016 -1.8030
  110OSM   H16G11359   4.780   6.743   4.457  1.1047 -0.2240 -0.9202
  110OSM   C17F11360   4.836   6.540   4.366 -0.3231 -0.0982 -0.1756
  110OSM   H17F11361   4.736   6.502   4.339 -0.4586  0.2056 -0.1083
  110OSM   H17G11362   4.901   6.454   4.391 -0.1837 -0.2099 -0.9121
  110OSM   C18F11363   4.903   6.598   4.238  0.6475 -0.0249  0.5707
  110OSM   H18F11364   4.997   6.651   4.261  1.4933 -0.8291 -0.8621
  110OSM   H18G11365   4.826   6.667   4.198  0.5641  0.7496  2.0294
  110OSM   H18H11366   4.928   6.512   4.171  0.4043 -0.1595  0.6503
  111OSM      N11367   1.247   4.657   6.842 -0.5072  0.8408  0.0495
  111OSM    C1511368   1.318   4.531   6.900 -0.4527  0.3733 -0.0553
  111OSM   H15A11369   1.260   4.440   6.897  0.8046 -0.4519  0.0798
  111OSM   H15B11370   1.348   4.559   7.000  0.4263 -0.1083 -0.1787
  111OSM   H15C11371   1.405   4.509   6.840 -1.2221  1.8996 -1.8259
  111OSM    C1411372   1.120   4.673   6.917  0.1064  0.1443 -0.5678
  111OSM   H14A11373   1.067   4.761   6.883  1.6755  0.8188 -1.3786
  111OSM   H14B11374   1.128   4.693   7.023 -1.6570 -1.9352  0.0375
  111OSM   H14C11375   1.053   4.588   6.918 -1.1964  1.0735  2.3166
  111OSM    C1311376   1.339   4.776   6.855 -0.6403 -0.7546 -0.4062
  111OSM   H13A11377   1.288   4.862   6.814 -1.2812 -1.0296 -0.1869
  111OSM   H13B11378   1.430   4.775   6.795  0.0869  2.4079  0.4752
  111OSM   H13C11379   1.368   4.804   6.955  1.5874 -3.1037 -0.2888
  111OSM    C1211380   1.215   4.619   6.700 -0.7664 -0.4307  0.0860
  111OSM   H12A11381   1.160   4.526   6.697 -2.1852  0.3958 -2.1532
  111OSM   H12B11382   1.308   4.579   6.662 -0.7963 -2.9600  2.4011
  111OSM    C1111383   1.139   4.719   6.607  0.5661  0.1232  0.8633
  111OSM   H11A11384   1.149   4.689   6.500  1.0673  0.7971  0.7135
  111OSM   H11B11385   1.182   4.821   6.606 -2.0839  1.3151  0.1566
  111OSM      P11386   0.904   4.598   6.616 -0.0329 -0.0091  0.1044
  111OSM    O1311387   0.968   4.465   6.627  0.4286 -0.5874  0.2673
  111OSM    O1411388   0.780   4.612   6.690  0.1361 -0.3041 -0.4347
  111OSM    O1111389   0.875   4.627   6.464 -0.4425 -0.6166  0.1523
  111OSM    O1211390   1.002   4.715   6.653  0.2034  0.5076 -0.1479
  111OSM    C1S11391   0.895   4.757   6.400  0.1197  0.2584 -0.3455
  111OSM    H1S11392   0.998   4.797   6.396 -0.0722  0.7803 -0.2060
  111OSM    H1T11393   0.826   4.823   6.458 -0.3895 -0.8425  0.3240
  111OSM     NF11394   0.866   4.893   6.199 -0.5838 -0.1817  0.2880
  111OSM    HNF11395   0.784   4.949   6.201 -0.1154  0.5886 -0.9346
  111OSM    C2S11396   0.845   4.755   6.253  0.9655  0.1150  0.2066
  111OSM    H2S11397   0.913   4.689   6.196  0.7088  0.0367 -0.0144
  111OSM    C3S11398   0.693   4.707   6.251 -0.1574 -0.6476  0.0978
  111OSM    H3S11399   0.641   4.778   6.319  1.6561  0.2955  0.5577
  111OSM     O311400   0.664   4.588   6.324 -0.6410  0.2470 -0.6140
  111OSM    HO311401   0.748   4.576   6.370 -0.9060 -1.8738 -0.5659
  111OSM    C4S11402   0.645   4.696   6.109 -0.1479 -0.2160  0.1708
  111OSM    H4S11403   0.687   4.610   6.055  0.6342 -0.4621  1.1441
  111OSM    C5S11404   0.543   4.762   6.054  0.3316  0.2498  0.4833
  111OSM    H5S11405   0.481   4.824   6.121 -0.0075  0.1038  0.3119
  111OSM    C6S11406   0.480   4.741   5.921 -0.5160 -0.5484 -0.7096
  111OSM    H6S11407   0.376   4.781   5.925 -0.2589  0.1990 -1.1947
  111OSM    H6T11408   0.451   4.635   5.910 -1.2757 -0.5643  1.0500
  111OSM    C7S11409   0.568   4.789   5.804  0.2859 -0.3293  0.3911
  111OSM    H7S11410   0.648   4.715   5.784  1.0449  0.9729 -1.8376
  111OSM    H7T11411   0.608   4.891   5.824  0.8743 -0.1713 -1.4245
  111OSM    C8S11412   0.492   4.793   5.672 -0.1105  0.2984 -0.1484
  111OSM    H8S11413   0.415   4.872   5.673 -0.4221  0.0563  2.2264
  111OSM    H8T11414   0.447   4.695   5.644  0.0734 -0.1150  0.9395
  111OSM    C9S11415   0.577   4.824   5.544 -0.1180  0.3295  0.1954
  111OSM    H9S11416   0.660   4.750   5.542 -1.0631 -0.7600 -2.3144
  111OSM    H9T11417   0.623   4.924   5.561  1.9919 -0.4880 -0.2944
  111OSM   C10S11418   0.494   4.811   5.421 -0.3922 -0.2656  0.7634
  111OSM   H10S11419   0.408   4.881   5.434  1.3315  2.1381  0.0955
  111OSM   H10T11420   0.465   4.705   5.408 -0.6540  0.1643 -4.4060
  111OSM   C11S11421   0.560   4.861   5.282  0.0267 -0.5015  0.2532
  111OSM   H11S11422   0.635   4.784   5.257 -1.5493 -1.6046 -1.3791
  111OSM   H11T11423   0.608   4.959   5.302  2.1980 -1.4131 -0.2433
  111OSM   C12S11424   0.459   4.868   5.165 -0.6474  0.8963  0.5110
  111OSM   H12S11425   0.377   4.940   5.184 -0.6453  1.2411 -0.6903
  111OSM   H12T11426   0.421   4.765   5.148  0.6402  0.3524  0.8280
  111OSM   C13S11427   0.534   4.916   5.039  0.1560 -0.0832 -0.3477
  111OSM   H13S11428   0.633   4.873   5.013  0.9873 -0.2914  2.7380
  111OSM   H13T11429   0.549   5.026   5.048  0.6753 -0.1791  0.0052
  111OSM   C14S11430   0.455   4.898   4.908 -0.2008  0.0511 -0.5121
  111OSM   H14S11431   0.517   4.938   4.825  1.3708  2.5212  1.6739
  111OSM   H14T11432   0.368   4.967   4.911 -1.5656 -1.6474 -0.0942
  111OSM   C15S11433   0.409   4.751   4.882 -0.2620 -0.0207 -0.4788
  111OSM   H15S11434   0.310   4.733   4.928 -0.9029  4.4351  0.3034
  111OSM   H15T11435   0.484   4.685   4.931  0.4532 -0.2491 -1.8079
  111OSM   C16S11436   0.406   4.717   4.732 -0.6520 -0.5299 -0.2929
  111OSM   H16S11437   0.495   4.768   4.689 -0.1051 -1.5992 -0.4590
  111OSM   H16T11438   0.320   4.764   4.680  0.8700  1.3041 -1.2616
  111OSM   C17S11439   0.395   4.570   4.684  0.1960 -0.2342 -0.6584
  111OSM   H17S11440   0.305   4.528   4.734  1.3045 -0.0674  1.5806
  111OSM   H17T11441   0.488   4.509   4.684 -1.5009 -2.9889 -1.6419
  111OSM   C18S11442   0.344   4.562   4.542  0.1559  0.6733  0.3534
  111OSM   H18S11443   0.271   4.644   4.524 -0.7267  0.2049  1.6901
  111OSM   H18T11444   0.292   4.467   4.517  0.8191  0.3260  0.2774
  111OSM   H18U11445   0.430   4.571   4.471 -0.4110  0.3003 -0.4024
  111OSM    C1F11446   0.995   4.940   6.164  0.3263  0.2283  0.5321
  111OSM     OF11447   1.094   4.869   6.191  0.1841  0.0030  0.0478
  111OSM    C2F11448   0.995   5.091   6.117 -0.5961 -0.1319  0.0797
  111OSM    H2F11449   1.016   5.164   6.198 -0.0288 -0.2125  0.0119
  111OSM    H2G11450   0.894   5.116   6.078 -0.3410 -1.5961 -1.7005
  111OSM    C3F11451   1.111   5.109   6.008  0.6107 -0.2684 -0.4313
  111OSM    H3F11452   1.200   5.061   6.055  0.2732 -0.4459  0.0306
  111OSM    H3G11453   1.137   5.216   5.995  0.7007 -0.2519 -0.1211
  111OSM    C4F11454   1.075   5.051   5.870 -0.7539 -0.0225  0.1768
  111OSM    H4F11455   1.068   4.940   5.881  1.6219 -0.0687  1.8956
  111OSM    H4G11456   1.169   5.071   5.814 -1.5109 -1.3751 -1.7238
  111OSM    C5F11457   0.959   5.101   5.794  0.6872 -0.3975  0.0150
  111OSM    H5F11458   0.969   5.212   5.801  1.3337 -0.4609  0.1979
  111OSM    H5G11459   0.860   5.083   5.840  0.7670 -0.8183  0.0192
  111OSM    C6F11460   0.951   5.035   5.654 -0.0242  0.1195  0.5069
  111OSM    H6F11461   0.845   5.045   5.621  0.3581  1.8352 -0.3471
  111OSM    H6G11462   0.953   4.925   5.664  0.4647  0.2217  1.6092
  111OSM    C7F11463   1.050   5.090   5.554  0.1236 -0.9552 -0.2923
  111OSM    H7F11464   1.155   5.073   5.586  0.9212  1.2889 -1.4861
  111OSM    H7G11465   1.032   5.199   5.556 -0.9256 -1.1269  1.2400
  111OSM    C8F11466   1.034   5.031   5.411  0.0260 -0.5600 -0.9229
  111OSM    H8F11467   1.046   4.925   5.439 -1.5822 -0.1548  1.5615
  111OSM    H8G11468   1.118   5.074   5.351 -1.2878  0.8577 -1.8236
  111OSM    C9F11469   0.897   5.038   5.346 -0.1105 -0.5399  0.1262
  111OSM    H9F11470   0.808   5.006   5.402 -2.1805 -2.7648 -3.9551
  111OSM   C10F11471   0.870   5.063   5.214  0.2663 -0.3070 -0.0599
  111OSM   H10F11472   0.764   5.069   5.185  0.1360 -0.4451  0.3745
  111OSM   C11F11473   0.982   5.090   5.113  0.4164  0.3883 -0.7133
  111OSM   H11F11474   0.997   4.999   5.051 -1.2681 -0.9581  0.7240
  111OSM   H11G11475   1.081   5.101   5.161 -0.2491  0.1060  0.8007
  111OSM   C12F11476   0.959   5.220   5.032  0.3940  0.2862 -0.5046
  111OSM   H12F11477   1.042   5.228   4.958  0.3245 -2.2090 -0.9491
  111OSM   H12G11478   0.940   5.310   5.094  1.1778  2.0712 -2.6998
  111OSM   C13F11479   0.840   5.210   4.942  0.1135  0.0946  0.0259
  111OSM   H13F11480   0.820   5.311   4.900 -2.3546 -0.2884  0.1252
  111OSM   H13G11481   0.748   5.173   4.991 -0.4429  1.3184 -0.0517
  111OSM   C14F11482   0.866   5.100   4.829  0.1834 -0.5294  0.4272
  111OSM   H14F11483   0.869   4.998   4.873 -1.1191 -1.2412 -1.0412
  111OSM   H14G11484   0.965   5.116   4.781  0.7135 -0.2842  1.5768
  111OSM   C15F11485   0.747   5.096   4.728 -0.7144 -0.5772 -0.4489
  111OSM   H15F11486   0.758   5.191   4.671  3.3736  0.3440  1.5085
  111OSM   H15G11487   0.645   5.103   4.772 -0.5988  2.1610 -0.4011
  111OSM   C16F11488   0.754   4.975   4.632  0.0453  0.5837 -0.5747
  111OSM   H16F11489   0.741   4.880   4.687 -0.8826  2.0758  1.9295
  111OSM   H16G11490   0.856   4.986   4.587 -0.0366  1.8270 -0.4983
  111OSM   C17F11491   0.644   4.993   4.528  0.3908  0.4171 -0.2480
  111OSM   H17F11492   0.670   5.090   4.481  1.0073  0.7480  0.7563
  111OSM   H17G11493   0.548   5.003   4.583  0.3655  2.7519 -0.6381
  111OSM   C18F11494   0.644   4.872   4.431 -0.2826 -0.4479  1.0272
  111OSM   H18F11495   0.739   4.873   4.373 -0.6566  2.1688  0.3448
  111OSM   H18G11496   0.564   4.882   4.355  1.4909 -0.2936 -0.9138
  111OSM   H18H11497   0.629   4.770   4.473 -0.5341 -0.7506  0.2009
  112OSM      N11498   4.068   1.930   6.673 -1.0085 -0.2570  0.0857
  112OSM    C1511499   4.166   2.049   6.711  0.6256  0.5958 -0.2460
  112OSM   H15A11500   4.146   2.071   6.815  0.6158 -2.2755  0.4557
  112OSM   H15B11501   4.154   2.133   6.645 -0.0010 -0.7632 -1.9527
  112OSM   H15C11502   4.267   2.012   6.721  1.4409  3.1946  2.4396
  112OSM    C1411503   4.085   1.825   6.774  0.1440  0.6304 -0.3989
  112OSM   H14A11504   4.035   1.735   6.742 -1.5228  1.5337 -0.4864
  112OSM   H14B11505   4.057   1.846   6.877  0.7965 -1.4554  0.2587
  112OSM   H14C11506   4.190   1.811   6.790  0.3222 -0.3686 -2.2428
  112OSM    C1311507   3.929   1.977   6.663 -0.7346 -0.6257 -0.1128
  112OSM   H13A11508   3.866   1.891   6.645  0.0734 -1.1512 -0.4520
  112OSM   H13B11509   3.926   2.047   6.580 -1.1566  0.2155  0.6006
  112OSM   H13C11510   3.885   2.029   6.747 -0.0504 -0.5780  0.2167
  112OSM    C1211511   4.110   1.865   6.536 -0.0475  0.0708  0.5677
  112OSM   H12A11512   4.215   1.842   6.542 -0.3380 -1.8453 -0.8028
  112OSM   H12B11513   4.090   1.945   6.466 -0.9307 -0.5646  0.0648
  112OSM    C1111514   4.026   1.745   6.481  0.3190 -0.0179  0.5295
  112OSM   H11A11515   4.070   1.729   6.380  0.7213  2.0564  0.3383
  112OSM   H11B11516   3.920   1.775   6.487  0.1902 -0.1321 -0.8942
  112OSM      P11517   4.169   1.540   6.546  0.3006  0.3041  0.1896
  112OSM    O1311518   4.282   1.632   6.540 -0.2364  0.2451 -0.4698
  112OSM    O1411519   4.163   1.438   6.660  0.2400 -0.5457  0.2839
  112OSM    O1111520   4.148   1.469   6.406  0.1335  0.4751  0.6057
  112OSM    O1211521   4.032   1.622   6.554  0.4631 -0.6131 -0.5108
  112OSM    C1S11522   4.039   1.370   6.387 -0.1279 -0.1600 -0.0907
  112OSM    H1S11523   3.965   1.369   6.471 -0.3925 -0.5131 -0.3217
  112OSM    H1T11524   4.097   1.276   6.373  0.0201  0.0832 -1.2217
  112OSM     NF11525   3.885   1.290   6.209 -0.1213  0.0387  0.0872
  112OSM    HNF11526   3.909   1.236   6.129  0.5946  0.0324  0.2966
  112OSM    C2S11527   3.973   1.396   6.249  0.0524  0.2060 -0.5767
  112OSM    H2S11528   3.913   1.488   6.269 -0.5265 -0.3775  0.4577
  112OSM    C3S11529   4.074   1.441   6.140 -0.1655  0.3947 -0.9183
  112OSM    H3S11530   4.154   1.365   6.134  0.9741  1.4885  0.0570
  112OSM     O311531   4.144   1.560   6.172 -0.1048  0.0842 -0.0756
  112OSM    HO311532   4.116   1.588   6.260  1.9732  0.1756  0.6093
  112OSM    C4S11533   4.004   1.456   6.002  0.2902 -0.6380 -0.3723
  112OSM    H4S11534   3.989   1.360   5.951  0.2701  0.7211 -3.0999
  112OSM    C5S11535   3.972   1.575   5.938  0.2534 -0.2046  0.4764
  112OSM    H5S11536   3.985   1.668   5.995  0.1935 -1.3635  2.4640
  112OSM    C6S11537   3.894   1.583   5.812 -0.2597  0.9341 -0.2609
  112OSM    H6S11538   3.795   1.635   5.814  0.0115  1.5267 -1.3700
  112OSM    H6T11539   3.863   1.486   5.768 -3.6833  2.3164 -1.2215
  112OSM    C7S11540   3.978   1.645   5.704 -0.6211  0.4486  0.5321
  112OSM    H7S11541   4.070   1.583   5.696 -0.4816  0.7467 -0.2242
  112OSM    H7T11542   4.022   1.742   5.736 -0.8289  0.9640 -0.6963
  112OSM    C8S11543   3.923   1.663   5.559 -0.1017 -0.3020  0.2958
  112OSM    H8S11544   3.843   1.739   5.570  0.1197 -0.0869  0.4194
  112OSM    H8T11545   3.871   1.575   5.514  0.4043 -0.1799 -0.5451
  112OSM    C9S11546   4.040   1.700   5.466  0.2678  0.1285 -0.8571
  112OSM    H9S11547   4.100   1.608   5.446  0.8581  0.3122 -0.0101
  112OSM    H9T11548   4.098   1.759   5.540  0.3074 -0.7390 -0.1618
  112OSM   C10S11549   3.981   1.768   5.340  0.6407  0.1068 -0.4448
  112OSM   H10S11550   4.058   1.847   5.330  0.1385  0.5382 -0.9759
  112OSM   H10T11551   3.885   1.820   5.362 -0.5771 -2.4560  0.7086
  112OSM   C11S11552   3.973   1.675   5.218 -0.4438  0.1699  0.0956
  112OSM   H11S11553   3.919   1.733   5.140  1.9663  4.7784  1.4979
  112OSM   H11T11554   3.913   1.584   5.242  0.4135 -1.1171 -2.3231
  112OSM   C12S11555   4.105   1.612   5.161 -0.3176 -0.0676 -0.3535
  112OSM   H12S11556   4.178   1.616   5.245 -0.4815 -0.8250 -0.1638
  112OSM   H12T11557   4.136   1.673   5.074  1.8981 -0.5513  0.0432
  112OSM   C13S11558   4.090   1.465   5.114 -0.5135 -0.1249  0.0062
  112OSM   H13S11559   3.991   1.455   5.065 -1.4730 -1.4020  2.1069
  112OSM   H13T11560   4.071   1.398   5.200  1.1763 -1.0538 -0.3008
  112OSM   C14S11561   4.214   1.395   5.051  0.1840  0.0561 -0.3679
  112OSM   H14S11562   4.305   1.420   5.111  0.6350 -1.2532 -0.4699
  112OSM   H14T11563   4.228   1.435   4.948 -0.5437  1.0986 -0.0760
  112OSM   C15S11564   4.194   1.246   5.034 -0.1007 -0.3005  0.1595
  112OSM   H15S11565   4.089   1.232   5.001 -1.0618 -2.2944  3.6151
  112OSM   H15T11566   4.190   1.196   5.132 -0.4408 -0.3017  0.1446
  112OSM   C16S11567   4.302   1.197   4.940  0.1403  0.5395  0.2677
  112OSM   H16S11568   4.315   1.089   4.963  1.5941  1.1206  2.4179
  112OSM   H16T11569   4.389   1.264   4.956 -0.1032  1.1858 -0.9771
  112OSM   C17S11570   4.264   1.224   4.790 -0.1882  0.3869 -0.4719
  112OSM   H17S11571   4.354   1.213   4.726  1.1813 -0.5005  1.5185
  112OSM   H17T11572   4.236   1.330   4.774 -0.1097  0.7140  1.4381
  112OSM   C18S11573   4.142   1.142   4.737 -0.3546 -0.3271 -0.2858
  112OSM   H18S11574   4.055   1.155   4.804 -0.0604 -0.6319  0.1637
  112OSM   H18T11575   4.170   1.034   4.731 -2.3286 -0.8114 -3.2639
  112OSM   H18U11576   4.125   1.187   4.637  0.0459  1.3158  0.3568
  112OSM    C1F11577   3.778   1.269   6.274 -0.5121  0.2800 -0.1448
  112OSM     OF11578   3.734   1.352   6.357 -0.1955  0.1430 -0.0165
  112OSM    C2F11579   3.710   1.139   6.260  0.1134 -0.6412  0.4958
  112OSM    H2F11580   3.705   1.089   6.359 -0.9528 -2.3528 -0.3550
  112OSM    H2G11581   3.782   1.079   6.200 -0.6162  0.8217 -1.9553
  112OSM    C3F11582   3.576   1.145   6.192 -0.0065 -0.0823  0.7597
  112OSM    H3F11583   3.507   1.199   6.261  1.4892  0.1561  2.1425
  112OSM    H3G11584   3.534   1.043   6.182 -3.5174  1.2788  0.3518
  112OSM    C4F11585   3.591   1.208   6.054 -0.2029  0.1062  0.0291
  112OSM    H4F11586   3.684   1.269   6.042  1.3522 -1.4870  2.9236
  112OSM    H4G11587   3.500   1.271   6.037 -0.6383 -0.4233  0.3883
  112OSM    C5F11588   3.582   1.104   5.942 -0.2366  0.3356 -0.0826
  112OSM    H5F11589   3.489   1.052   5.974  0.2938 -2.4047 -2.6083
  112OSM    H5G11590   3.668   1.034   5.941 -0.7875 -0.4961 -3.7143
  112OSM    C6F11591   3.569   1.171   5.809  0.5425  0.0714 -0.0981
  112OSM    H6F11592   3.525   1.273   5.814  1.2428  0.5062 -1.9020
  112OSM    H6G11593   3.507   1.106   5.744  0.3371 -0.9228  1.0592
  112OSM    C7F11594   3.702   1.190   5.742 -0.6947 -0.4167 -0.0057
  112OSM    H7F11595   3.745   1.090   5.717  0.1136  0.6418 -3.2886
  112OSM    H7G11596   3.768   1.249   5.809  1.2096 -0.9456 -1.3331
  112OSM    C8F11597   3.692   1.282   5.618  0.3995  0.2494 -0.3099
  112OSM    H8F11598   3.677   1.387   5.651  0.3608  0.2243 -0.2474
  112OSM    H8G11599   3.600   1.237   5.574 -0.2339 -0.5222  1.7028
  112OSM    C9F11600   3.810   1.280   5.532  0.0425  0.5029  0.2679
  112OSM    H9F11601   3.871   1.370   5.552 -0.6776  1.3902 -1.3048
  112OSM   C10F11602   3.815   1.210   5.417  0.1575 -0.2227 -0.2283
  112OSM   H10F11603   3.914   1.218   5.369  2.0357 -2.7845  2.7963
  112OSM   C11F11604   3.718   1.115   5.362  0.2382  0.3789  0.2487
  112OSM   H11F11605   3.628   1.107   5.426  0.4249 -0.3796  0.4218
  112OSM   H11G11606   3.769   1.018   5.344  0.8298  0.9669 -1.5010
  112OSM   C12F11607   3.644   1.172   5.237  0.6681 -0.0202  0.5660
  112OSM   H12F11608   3.621   1.281   5.244  0.1977 -0.2000  2.3881
  112OSM   H12G11609   3.552   1.112   5.220  0.9868 -0.4673  0.4225
  112OSM   C13F11610   3.720   1.153   5.111  0.2900 -0.9940  0.0604
  112OSM   H13F11611   3.755   1.048   5.119  0.9957 -0.9779 -2.1167
  112OSM   H13G11612   3.816   1.209   5.112 -0.6781  0.7432  0.3163
  112OSM   C14F11613   3.649   1.206   4.985 -0.2238 -0.5364  0.2778
  112OSM   H14F11614   3.665   1.315   4.972  2.8540 -0.8994  0.3997
  112OSM   H14G11615   3.543   1.174   4.991 -0.0188 -1.4206 -0.5738
  112OSM   C15F11616   3.722   1.146   4.866 -0.2085  0.6194 -0.2169
  112OSM   H15F11617   3.736   1.036   4.880 -0.6244 -0.1056 -4.2958
  112OSM   H15G11618   3.823   1.190   4.876  1.0668 -2.1614  0.1047
  112OSM   C16F11619   3.651   1.165   4.725 -0.1086 -0.6029 -0.7405
  112OSM   H16F11620   3.720   1.133   4.644  0.4690 -0.7464 -0.2067
  112OSM   H16G11621   3.627   1.270   4.698 -1.6682 -0.9666 -0.8684
  112OSM   C17F11622   3.518   1.090   4.711 -0.4366  0.1975 -0.5247
  112OSM   H17F11623   3.457   1.119   4.800 -0.2068 -1.7152  0.2988
  112OSM   H17G11624   3.537   0.985   4.740  1.3498  0.2822 -1.2798
  112OSM   C18F11625   3.448   1.107   4.576 -0.5121 -0.4619 -0.0226
  112OSM   H18F11626   3.350   1.060   4.556 -1.9411  1.7399  1.4626
  112OSM   H18G11627   3.516   1.069   4.497 -0.8134 -1.6239  0.2643
  112OSM   H18H11628   3.429   1.213   4.549  1.2448 -0.4532 -1.4255
  113OSM      N11629   0.761   3.191   6.495 -0.8752  0.0346  0.1952
  113OSM    C1511630   0.756   3.321   6.573 -0.3109  0.4476 -0.6382
  113OSM   H15A11631   0.740   3.293   6.676 -0.5585  0.9329 -0.5435
  113OSM   H15B11632   0.678   3.382   6.531  0.1267  2.1773  0.9303
  113OSM   H15C11633   0.846   3.380   6.565 -0.2084  0.5292  0.8430
  113OSM    C1411634   0.874   3.103   6.543  0.4249  0.1387  0.2035
  113OSM   H14A11635   0.880   3.016   6.481 -2.3860 -0.0299  0.0305
  113OSM   H14B11636   0.854   3.067   6.642 -0.3158 -0.4289 -0.1491
  113OSM   H14C11637   0.972   3.149   6.541  1.5189 -2.0882 -0.6372
  113OSM    C1311638   0.633   3.135   6.533  0.2296  0.1307 -0.7737
  113OSM   H13A11639   0.610   3.041   6.484  0.0995 -0.7930  0.9895
  113OSM   H13B11640   0.553   3.195   6.492 -0.5472  0.0825  0.6201
  113OSM   H13C11641   0.619   3.124   6.640  0.4577 -0.3170 -0.7876
  113OSM    C1211642   0.770   3.218   6.342 -0.3209 -0.9852 -0.3905
  113OSM   H12A11643   0.744   3.126   6.292  2.5237 -1.5745 -0.9233
  113OSM   H12B11644   0.873   3.238   6.320 -0.8466  1.9516 -0.6152
  113OSM    C1111645   0.686   3.327   6.276  0.5477 -0.2389 -0.0225
  113OSM   H11A11646   0.716   3.323   6.169  0.8067 -0.3710  0.0520
  113OSM   H11B11647   0.711   3.423   6.327 -0.9419 -0.5538  1.4049
  113OSM      P11648   0.443   3.363   6.207 -0.0431  0.1505  0.1211
  113OSM    O1311649   0.334   3.420   6.289 -0.4823 -0.0903 -0.4046
  113OSM    O1411650   0.514   3.461   6.116  0.7565 -0.6215  0.3810
  113OSM    O1111651   0.380   3.246   6.124  0.0046  0.0005  0.1721
  113OSM    O1211652   0.547   3.304   6.307 -0.1114  0.1509 -0.0152
  113OSM    C1S11653   0.469   3.160   6.054  0.2423  0.2673  0.7305
  113OSM    H1S11654   0.513   3.086   6.124  0.8736 -0.5401 -0.4736
  113OSM    H1T11655   0.558   3.216   6.020  0.7084  0.4321  2.1659
  113OSM     NF11656   0.506   3.005   5.863 -0.3462 -0.6330 -0.8299
  113OSM    HNF11657   0.558   3.033   5.783 -0.7666 -1.5902 -1.4462
  113OSM    C2S11658   0.417   3.103   5.916  0.4342  0.3486 -0.0994
  113OSM    H2S11659   0.329   3.044   5.948  0.0200  1.7915  1.6439
  113OSM    C3S11660   0.361   3.200   5.812  0.9669 -0.0371 -0.9131
  113OSM    H3S11661   0.448   3.265   5.788  2.8135 -1.9635  0.1515
  113OSM     O311662   0.267   3.293   5.871  0.4568  0.6922 -0.2894
  113OSM    HO311663   0.279   3.293   5.966  1.8972 -0.0679 -0.4473
  113OSM    C4S11664   0.311   3.146   5.686  0.7840  0.2130  0.1398
  113OSM    H4S11665   0.389   3.095   5.628  0.2128 -0.6703  0.1135
  113OSM    C5S11666   0.178   3.138   5.646 -0.4825  0.1847  0.7053
  113OSM    H5S11667   0.095   3.178   5.705 -2.2790 -1.5666 -0.4704
  113OSM    C6S11668   0.152   3.060   5.517  0.0165  0.2888 -0.2965
  113OSM    H6S11669   0.042   3.061   5.503 -0.1114 -1.5622  0.3735
  113OSM    H6T11670   0.172   2.952   5.535 -1.1852  0.2812  1.1191
  113OSM    C7S11671   0.231   3.117   5.401 -0.8071  0.0028  0.3472
  113OSM    H7S11672   0.335   3.079   5.409 -0.8330 -0.0529  0.4213
  113OSM    H7T11673   0.246   3.227   5.400  1.9485 -0.2390  2.2157
  113OSM    C8S11674   0.184   3.083   5.257 -0.3854  0.1035  0.5396
  113OSM    H8S11675   0.082   3.122   5.237 -1.1310 -2.1676 -0.4011
  113OSM    H8T11676   0.169   2.973   5.248 -3.0797  0.5309 -2.4274
  113OSM    C9S11677   0.291   3.121   5.152  0.6183  0.1315  0.6702
  113OSM    H9S11678   0.387   3.072   5.183  0.4730 -0.0774  0.7936
  113OSM    H9T11679   0.302   3.231   5.150  0.5929  0.1472  1.3347
  113OSM   C10S11680   0.255   3.086   5.008  0.6295 -0.0402  0.5927
  113OSM   H10S11681   0.165   3.145   4.979  1.5176  1.0649  0.0238
  113OSM   H10T11682   0.248   2.975   5.012  2.8788 -0.8325 -5.8401
  113OSM   C11S11683   0.365   3.113   4.901  0.6789 -0.2806  0.4112
  113OSM   H11S11684   0.466   3.087   4.942  0.7810 -0.4546  0.0577
  113OSM   H11T11685   0.369   3.219   4.870  1.1465 -0.8448 -1.6201
  113OSM   C12S11686   0.345   3.037   4.766  0.3034  0.1024  0.6384
  113OSM   H12S11687   0.239   3.057   4.739  0.0607 -0.5437  1.1032
  113OSM   H12T11688   0.338   2.929   4.791  0.2625 -0.5100 -1.7604
  113OSM   C13S11689   0.436   3.079   4.650 -0.0720  0.6444 -0.0028
  113OSM   H13S11690   0.541   3.058   4.677 -0.4057  0.0843  0.8695
  113OSM   H13T11691   0.440   3.190   4.640  2.1956  0.4915 -1.3333
  113OSM   C14S11692   0.404   3.021   4.514 -0.2264 -0.0236 -0.8856
  113OSM   H14S11693   0.297   3.039   4.489 -0.8280  0.0007  1.4547
  113OSM   H14T11694   0.437   2.916   4.505  1.2321  0.2193  1.0551
  113OSM   C15S11695   0.488   3.099   4.402 -0.2861  0.5025 -0.9431
  113OSM   H15S11696   0.498   3.045   4.305  0.2580  0.9810 -1.1632
  113OSM   H15T11697   0.591   3.102   4.443  0.4120 -0.7963 -2.4605
  113OSM   C16S11698   0.448   3.247   4.374 -0.1951  0.2955  0.1198
  113OSM   H16S11699   0.463   3.314   4.461 -0.3575  0.0110  0.3659
  113OSM   H16T11700   0.340   3.240   4.350 -1.0298 -3.2751  3.9072
  113OSM   C17S11701   0.535   3.302   4.266  0.0319  0.3571 -0.1927
  113OSM   H17S11702   0.549   3.230   4.183 -0.8958 -0.7002  0.5376
  113OSM   H17T11703   0.637   3.317   4.307  0.5561  1.5087 -1.7922
  113OSM   C18S11704   0.491   3.429   4.198 -0.1196  0.4511  0.0707
  113OSM   H18S11705   0.384   3.409   4.177  0.5748  0.2214 -4.0503
  113OSM   H18T11706   0.542   3.432   4.099 -2.3536  0.4940 -1.1274
  113OSM   H18U11707   0.510   3.520   4.259  1.1194 -1.1015  2.1294
  113OSM    C1F11708   0.559   2.901   5.933 -0.3372 -0.0422  0.3224
  113OSM     OF11709   0.507   2.873   6.036  0.8781  0.4881  0.1675
  113OSM    C2F11710   0.678   2.822   5.882 -0.1532 -0.2872 -0.1738
  113OSM    H2F11711   0.706   2.866   5.783 -0.2141 -1.0203 -0.5226
  113OSM    H2G11712   0.637   2.719   5.872 -2.4033  0.4061  1.2274
  113OSM    C3F11713   0.788   2.834   5.981 -0.4964 -0.1965  0.2967
  113OSM    H3F11714   0.755   2.790   6.078  0.0426  1.1795  1.1256
  113OSM    H3G11715   0.807   2.941   6.005  0.4516 -0.5588  1.2259
  113OSM    C4F11716   0.926   2.773   5.944  0.1114  0.6922 -0.2817
  113OSM    H4F11717   0.911   2.663   5.937  2.0425  0.4343 -0.9219
  113OSM    H4G11718   0.985   2.800   6.034 -2.9171  3.5526  1.1045
  113OSM    C5F11719   0.991   2.837   5.815 -0.8169 -0.1216 -0.0356
  113OSM    H5F11720   1.102   2.827   5.816 -0.6130  1.6479 -0.7109
  113OSM    H5G11721   0.961   2.941   5.839 -2.6915 -1.1942  2.7305
  113OSM    C6F11722   0.942   2.773   5.686 -0.4914 -0.4818  0.1577
  113OSM    H6F11723   0.866   2.836   5.635  0.3297 -0.0429 -0.5396
  113OSM    H6G11724   0.897   2.677   5.717  1.7419 -1.7144 -0.2404
  113OSM    C7F11725   1.054   2.722   5.590 -0.3316  0.5094 -0.0252
  113OSM    H7F11726   1.112   2.640   5.638 -1.2807 -0.0276  0.2126
  113OSM    H7G11727   1.137   2.792   5.564  1.4329 -1.4206  0.1142
  113OSM    C8F11728   1.002   2.665   5.460  0.8642  0.1077  0.2451
  113OSM    H8F11729   0.957   2.740   5.392  1.4673  1.5395  1.3948
  113OSM    H8G11730   0.914   2.602   5.484  0.8440  0.6403  1.6202
  113OSM    C9F11731   1.114   2.591   5.392  0.0154  0.7749  0.4018
  113OSM    H9F11732   1.157   2.505   5.446  1.5911  1.4389  0.2643
  113OSM   C10F11733   1.184   2.638   5.283  0.4761  0.5755 -0.4868
  113OSM   H10F11734   1.285   2.596   5.274 -1.0108 -3.6275  0.1441
  113OSM   C11F11735   1.161   2.766   5.202  0.3598 -0.0674 -0.5672
  113OSM   H11F11736   1.258   2.809   5.168  1.0379  0.6837  2.0920
  113OSM   H11G11737   1.116   2.851   5.257  0.6621  0.1245 -0.6118
  113OSM   C12F11738   1.077   2.724   5.075 -0.1332 -0.6007  0.4406
  113OSM   H12F11739   1.107   2.621   5.046  3.2664  0.0768  1.0312
  113OSM   H12G11740   1.096   2.800   4.996  1.6339 -0.6256  0.7815
  113OSM   C13F11741   0.924   2.728   5.096  0.5015 -0.0314 -0.4295
  113OSM   H13F11742   0.900   2.831   5.132  0.9099  0.4179 -1.4108
  113OSM   H13G11743   0.891   2.653   5.170 -0.1763  0.1487 -0.5389
  113OSM   C14F11744   0.851   2.702   4.962 -0.1686 -0.4178 -0.0930
  113OSM   H14F11745   0.836   2.593   4.952 -2.0075 -0.1918 -0.1840
  113OSM   H14G11746   0.912   2.728   4.873 -0.3863 -0.5715 -0.2865
  113OSM   C15F11747   0.714   2.774   4.962 -0.8090 -0.0892  0.1285
  113OSM   H15F11748   0.732   2.883   4.979 -2.3020  0.1394  0.4096
  113OSM   H15G11749   0.654   2.726   5.042 -1.2223 -1.0805 -0.7566
  113OSM   C16F11750   0.637   2.757   4.824 -0.6854 -0.5286  0.0567
  113OSM   H16F11751   0.682   2.838   4.763  0.9830 -0.3276  1.4959
  113OSM   H16G11752   0.531   2.785   4.846 -1.1641 -2.0233 -0.2518
  113OSM   C17F11753   0.638   2.623   4.759  0.0942  0.8605 -0.4758
  113OSM   H17F11754   0.633   2.541   4.834  1.2958  2.0780  1.0077
  113OSM   H17G11755   0.735   2.606   4.708 -0.1083 -0.4405 -0.4576
  113OSM   C18F11756   0.529   2.603   4.651 -0.6793 -0.2473  0.1285
  113OSM   H18F11757   0.558   2.520   4.583 -2.0612  0.4079 -1.3170
  113OSM   H18G11758   0.521   2.691   4.584 -1.5462  0.6421  1.3554
  113OSM   H18H11759   0.432   2.577   4.699 -0.4813 -1.3523 -0.0251
  114OSM      N11760   0.069   1.430   6.749  0.1912  0.8732 -0.3124
  114OSM    C1511761  -0.076   1.480   6.770 -0.7930 -0.9647 -0.8506
  114OSM   H15A11762  -0.082   1.578   6.725 -1.0907 -0.5265  0.1192
  114OSM   H15B11763  -0.076   1.500   6.876  1.1635  0.2908 -1.0294
  114OSM   H15C11764  -0.163   1.421   6.745 -1.9719  0.6157 -0.6393
  114OSM    C1411765   0.164   1.523   6.823  0.2251 -0.7889 -0.2707
  114OSM   H14A11766   0.269   1.501   6.809  0.5510  0.7346 -0.3728
  114OSM   H14B11767   0.140   1.527   6.928  1.7216  1.3126  0.0628
  114OSM   H14C11768   0.160   1.626   6.793  0.9436 -0.1733  1.6073
  114OSM    C1311769   0.071   1.293   6.820 -0.2186 -0.3580 -0.3237
  114OSM   H13A11770   0.017   1.302   6.913  0.4543  0.3916  0.0072
  114OSM   H13B11771   0.174   1.266   6.834 -0.8672 -2.6821  0.4622
  114OSM   H13C11772   0.018   1.228   6.752 -2.1019  2.0562 -1.3424
  114OSM    C1211773   0.099   1.414   6.606 -0.3064  0.1113  0.4423
  114OSM   H12A11774   0.025   1.348   6.564 -2.6271  1.6161  1.9329
  114OSM   H12B11775   0.194   1.368   6.584 -0.3761  0.9397 -1.8945
  114OSM    C1111776   0.094   1.544   6.528 -0.3503 -0.1803  0.1871
  114OSM   H11A11777  -0.003   1.598   6.537 -0.5298 -0.4744  0.0355
  114OSM   H11B11778   0.081   1.519   6.421 -1.7825  0.9215  0.0702
  114OSM      P11779   0.361   1.593   6.498 -0.3988 -0.2748 -0.0773
  114OSM    O1311780   0.425   1.728   6.482 -0.0602 -0.6280  0.1125
  114OSM    O1411781   0.417   1.485   6.589 -0.2317 -0.2023 -0.6102
  114OSM    O1111782   0.337   1.534   6.348  0.1532 -0.0701  0.0070
  114OSM    O1211783   0.212   1.629   6.543  0.0635  0.1987 -0.5126
  114OSM    C1S11784   0.314   1.624   6.239 -0.3556 -0.3434  0.9096
  114OSM    H1S11785   0.409   1.681   6.228  0.4695 -1.3333  2.4596
  114OSM    H1T11786   0.229   1.694   6.253 -0.3262  0.0882 -0.8846
  114OSM     NF11787   0.269   1.645   5.997  0.0158 -0.2349  0.2779
  114OSM    HNF11788   0.183   1.694   5.989 -0.4580 -1.1501 -0.3241
  114OSM    C2S11789   0.278   1.549   6.107 -0.5398 -0.4059 -0.4547
  114OSM    H2S11790   0.359   1.475   6.089  2.2830  2.0550  1.1753
  114OSM    C3S11791   0.154   1.462   6.122  0.1567 -0.2289  0.0183
  114OSM    H3S11792   0.066   1.528   6.138 -0.6619 -1.1182 -0.6506
  114OSM     O311793   0.159   1.370   6.227 -0.0753  0.4702  0.0047
  114OSM    HO311794   0.219   1.406   6.293 -0.6147 -1.1054  1.4317
  114OSM    C4S11795   0.123   1.408   5.981 -0.2046  0.0248 -0.5555
  114OSM    H4S11796   0.196   1.341   5.933  0.0638  0.2228 -0.4286
  114OSM    C5S11797   0.024   1.442   5.899 -0.6823 -0.9937  0.4385
  114OSM    H5S11798  -0.052   1.505   5.949 -0.5602 -0.5132  0.0220
  114OSM    C6S11799  -0.005   1.381   5.767  0.1329 -0.1734  0.5908
  114OSM    H6S11800  -0.054   1.465   5.713  0.5733  1.5900  2.8021
  114OSM    H6T11801  -0.063   1.286   5.777  0.7003 -0.5097  0.6921
  114OSM    C7S11802   0.111   1.345   5.668 -0.3384  0.6598 -0.3863
  114OSM    H7S11803   0.181   1.270   5.710  2.8159  2.3874 -2.2169
  114OSM    H7T11804   0.171   1.438   5.654  1.9600 -0.9656 -1.9505
  114OSM    C8S11805   0.071   1.293   5.533 -0.0544  0.6858  0.5675
  114OSM    H8S11806   0.012   1.366   5.473 -1.6490 -1.2857 -0.4143
  114OSM    H8T11807  -0.009   1.215   5.531  2.1662 -1.8035 -2.7729
  114OSM    C9S11808   0.178   1.242   5.441 -0.6862  0.9482 -0.3704
  114OSM    H9S11809   0.270   1.199   5.488 -1.0769 -2.7641 -2.5911
  114OSM    H9T11810   0.225   1.325   5.385  1.2519 -1.0739 -1.9091
  114OSM   C10S11811   0.127   1.142   5.337 -0.0495  0.4753 -0.0090
  114OSM   H10S11812   0.021   1.166   5.313 -1.5193 -2.3123  2.8003
  114OSM   H10T11813   0.129   1.042   5.387 -2.4598  1.6166  2.6795
  114OSM   C11S11814   0.208   1.138   5.213 -0.5546 -0.5947  0.2829
  114OSM   H11S11815   0.315   1.129   5.242 -0.5559  0.6923  0.7923
  114OSM   H11T11816   0.202   1.237   5.163 -1.6710  0.1519  1.8016
  114OSM   C12S11817   0.181   1.028   5.111  0.0332 -0.5893  0.0110
  114OSM   H12S11818   0.078   1.045   5.072 -0.2497 -3.1147 -0.4781
  114OSM   H12T11819   0.180   0.926   5.155 -0.7850 -1.4431 -1.8579
  114OSM   C13S11820   0.285   1.037   4.996  0.1336  0.6712 -0.4364
  114OSM   H13S11821   0.388   1.039   5.037 -0.2855  2.6831  0.6457
  114OSM   H13T11822   0.275   1.129   4.935 -0.0411  0.2230 -1.0902
  114OSM   C14S11823   0.271   0.912   4.904  0.2803  0.2590 -0.4249
  114OSM   H14S11824   0.173   0.915   4.851  0.0829  1.5956 -0.0286
  114OSM   H14T11825   0.266   0.826   4.974  1.5822  0.0684 -0.5509
  114OSM   C15S11826   0.382   0.897   4.799 -0.5731 -0.7761 -0.0777
  114OSM   H15S11827   0.378   0.788   4.779  2.1488 -0.5986 -2.1338
  114OSM   H15T11828   0.482   0.911   4.845  0.6883  0.1999 -2.9018
  114OSM   C16S11829   0.362   0.974   4.671  0.0647 -0.2889  0.4268
  114OSM   H16S11830   0.398   1.078   4.684 -1.0665  0.7035 -3.1517
  114OSM   H16T11831   0.260   0.960   4.629 -0.7430  2.4527  1.2746
  114OSM   C17S11832   0.459   0.919   4.565 -0.9779 -0.2203  0.2146
  114OSM   H17S11833   0.436   0.814   4.536 -1.1288  0.0595 -0.7136
  114OSM   H17T11834   0.562   0.928   4.604  0.0232 -1.2594 -2.0227
  114OSM   C18S11835   0.458   0.994   4.430  0.4648 -0.5056 -0.5216
  114OSM   H18S11836   0.498   1.096   4.450  0.7125 -0.0188 -3.1540
  114OSM   H18T11837   0.358   1.017   4.388  0.8688 -1.1682 -1.9094
  114OSM   H18U11838   0.519   0.935   4.358 -1.4720 -3.3929  0.0511
  114OSM    C1F11839   0.378   1.684   5.928  0.3629  0.1441 -0.4470
  114OSM     OF11840   0.483   1.633   5.968  0.0199  0.2471  0.0360
  114OSM    C2F11841   0.371   1.786   5.819 -0.0101 -0.0141  0.8753
  114OSM    H2F11842   0.342   1.881   5.867  0.0705 -0.5738  2.0619
  114OSM    H2G11843   0.286   1.759   5.752 -0.2108 -0.2676  1.2331
  114OSM    C3F11844   0.507   1.801   5.741  0.6150  0.1666  0.5459
  114OSM    H3F11845   0.530   1.706   5.689 -1.6813  0.1363 -0.5530
  114OSM    H3G11846   0.585   1.836   5.812 -0.5138  1.3659  1.2475
  114OSM    C4F11847   0.511   1.917   5.635  0.8252  0.6288 -0.2601
  114OSM    H4F11848   0.607   1.938   5.584  0.5538  2.5866 -0.0420
  114OSM    H4G11849   0.483   2.011   5.687 -2.9064  0.0053 -0.8471
  114OSM    C5F11850   0.415   1.888   5.523  0.3505  0.3196 -0.5491
  114OSM    H5F11851   0.310   1.875   5.558  0.1206 -0.0097 -1.3456
  114OSM    H5G11852   0.446   1.795   5.471  2.9716  1.5024 -1.2944
  114OSM    C6F11853   0.425   2.001   5.422 -0.4422  0.0644  0.2718
  114OSM    H6F11854   0.424   2.100   5.473 -0.1915  0.8041 -1.1140
  114OSM    H6G11855   0.336   2.006   5.356  0.5873  3.1322 -1.0506
  114OSM    C7F11856   0.544   1.993   5.322  0.4646  0.0017 -0.3906
  114OSM    H7F11857   0.631   1.954   5.378  0.2394  0.4232  0.2660
  114OSM    H7G11858   0.562   2.094   5.279 -0.4465 -0.0947 -1.0201
  114OSM    C8F11859   0.519   1.892   5.206 -0.2945  0.0352 -0.0786
  114OSM    H8F11860   0.423   1.933   5.168  0.6357  1.3818 -1.0675
  114OSM    H8G11861   0.497   1.796   5.258 -0.3388  0.2182  0.2450
  114OSM    C9F11862   0.636   1.870   5.105 -0.7254 -0.0242 -0.3266
  114OSM    H9F11863   0.729   1.867   5.163 -1.3189 -0.3248  0.6408
  114OSM   C10F11864   0.634   1.838   4.975 -0.4433  0.0591  0.5617
  114OSM   H10F11865   0.728   1.824   4.920 -1.4651 -2.8740 -0.6521
  114OSM   C11F11866   0.508   1.841   4.895  0.5271  0.2639  0.7819
  114OSM   H11F11867   0.438   1.920   4.926 -0.4769  0.1629 -1.1211
  114OSM   H11G11868   0.449   1.753   4.928 -0.1035 -0.1979 -1.4561
  114OSM   C12F11869   0.538   1.841   4.744  0.1261 -0.5095 -0.9620
  114OSM   H12F11870   0.628   1.783   4.715 -0.4576 -2.1007  0.3042
  114OSM   H12G11871   0.565   1.945   4.715  1.8358 -0.4492  0.6651
  114OSM   C13F11872   0.420   1.786   4.658 -0.5555  0.6101 -1.2213
  114OSM   H13F11873   0.326   1.843   4.677  1.0478  2.5480  1.5801
  114OSM   H13G11874   0.421   1.684   4.702  0.6894  1.2437  0.2969
  114OSM   C14F11875   0.447   1.793   4.509 -0.0354  0.9101  1.3292
  114OSM   H14F11876   0.539   1.739   4.480 -1.1415 -1.4681  2.0508
  114OSM   H14G11877   0.458   1.901   4.483 -1.4598  0.4306 -1.7173
  114OSM   C15F11878   0.323   1.735   4.434 -1.0225 -0.0781 -0.5090
  114OSM   H15F11879   0.342   1.730   4.325 -0.8414  1.1281 -0.5409
  114OSM   H15G11880   0.231   1.791   4.458 -1.2669 -0.4405 -0.5931
  114OSM   C16F11881   0.288   1.586   4.466  0.0108  0.3565 -0.2960
  114OSM   H16F11882   0.192   1.573   4.412 -0.9942 -0.7265  1.6265
  114OSM   H16G11883   0.271   1.566   4.574 -0.7336 -1.5949 -0.7362
  114OSM   C17F11884   0.393   1.487   4.427 -0.4714 -0.6069 -0.2331
  114OSM   H17F11885   0.481   1.510   4.490 -0.6044  2.4866 -1.0271
  114OSM   H17G11886   0.428   1.514   4.325  2.2589 -0.7430  0.5993
  114OSM   C18F11887   0.347   1.342   4.429 -0.2609  0.1055  0.3372
  114OSM   H18F11888   0.418   1.281   4.369 -1.3139  0.9553 -1.9102
  114OSM   H18G11889   0.244   1.334   4.387 -0.9408 -0.2733  1.9925
  114OSM   H18H11890   0.349   1.301   4.532  1.0582  1.3135  0.8193
  115OSM      N11891   5.417   3.821   6.898  0.3248  0.7781 -0.5402
  115OSM    C1511892   5.358   3.935   6.975  0.1668 -0.3940 -0.0190
  115OSM   H15A11893   5.335   4.018   6.910 -3.0489 -1.1905 -0.0729
  115OSM   H15B11894   5.423   3.965   7.055  2.5707  1.0277 -2.3387
  115OSM   H15C11895   5.259   3.913   7.011  0.3352  0.2591  0.8743
  115OSM    C1411896   5.426   3.695   6.992 -0.0623 -1.0374  0.1972
  115OSM   H14A11897   5.448   3.610   6.929  2.1445 -0.4393  0.0782
  115OSM   H14B11898   5.328   3.689   7.038 -0.0111  0.2194  0.5088
  115OSM   H14C11899   5.506   3.708   7.063 -0.2905  1.2167  0.1309
  115OSM    C1311900   5.335   3.775   6.787 -0.1659  0.0464 -0.4297
  115OSM   H13A11901   5.231   3.760   6.814 -0.5010  1.2038 -0.9837
  115OSM   H13B11902   5.365   3.678   6.753 -1.2202 -0.3411 -0.2905
  115OSM   H13C11903   5.327   3.849   6.708  1.0765 -0.2008 -0.8087
  115OSM    C1211904   5.560   3.859   6.858 -0.2420  0.2484  0.1027
  115OSM   H12A11905   5.616   3.772   6.826 -0.1571  1.1944 -2.5455
  115OSM   H12B11906   5.617   3.888   6.945 -1.5642  0.5822  0.8905
  115OSM    C1111907   5.583   3.968   6.749  0.5610 -0.2264 -0.5615
  115OSM   H11A11908   5.544   3.930   6.652 -0.1196 -0.9822  0.0015
  115OSM   H11B11909   5.694   3.973   6.737  0.4389  0.1408 -1.6709
  115OSM      P11910   5.478   4.193   6.683 -0.0715  0.0632  0.3400
  115OSM    O1311911   5.334   4.164   6.678 -0.0307  0.0222 -0.1695
  115OSM    O1411912   5.526   4.333   6.709  0.4208  0.0226  0.7530
  115OSM    O1111913   5.540   4.142   6.541 -0.2856 -0.4382  0.4607
  115OSM    O1211914   5.525   4.093   6.789 -0.3228 -0.7728  0.0618
  115OSM    C1S11915   5.523   4.215   6.423  0.0218 -0.6188 -0.2408
  115OSM    H1S11916   5.576   4.312   6.432  2.0888 -1.5686 -1.5706
  115OSM    H1T11917   5.416   4.238   6.403 -0.1639 -1.2785 -0.0450
  115OSM     NF11918   5.572   4.217   6.184 -0.2268 -0.4993 -0.5717
  115OSM    HNF11919   5.491   4.221   6.126  0.0142 -0.0647 -0.8923
  115OSM    C2S11920   5.582   4.134   6.302 -0.5828  0.1378 -0.6535
  115OSM    H2S11921   5.690   4.112   6.317  0.0749  2.6005 -1.3442
  115OSM    C3S11922   5.497   4.003   6.281 -0.1974 -0.3139 -0.2374
  115OSM    H3S11923   5.400   4.029   6.234 -1.2588 -0.0208  1.9739
  115OSM     O311924   5.478   3.928   6.405 -0.6733  0.5020  0.8629
  115OSM    HO311925   5.473   4.002   6.466 -1.9623  0.7275  0.5050
  115OSM    C4S11926   5.577   3.915   6.182 -0.6953 -0.3985 -0.5630
  115OSM    H4S11927   5.679   3.878   6.204 -0.5617 -0.4594 -1.2701
  115OSM    C5S11928   5.548   3.885   6.055  0.2147 -0.0042  0.4659
  115OSM    H5S11929   5.450   3.918   6.020  0.2997  1.2215  1.3319
  115OSM    C6S11930   5.640   3.804   5.964  0.1948  0.0214  0.6247
  115OSM    H6S11931   5.623   3.695   5.972  0.5127 -0.5363 -3.8683
  115OSM    H6T11932   5.745   3.809   6.001  0.8250 -0.4370 -1.0089
  115OSM    C7S11933   5.626   3.839   5.815 -0.7668 -0.3121 -0.5387
  115OSM    H7S11934   5.541   3.783   5.772 -1.2127 -1.1201  1.2782
  115OSM    H7T11935   5.711   3.789   5.764 -0.1682  2.0042 -1.9631
  115OSM    C8S11936   5.649   3.993   5.793  0.2612  0.6235 -0.1723
  115OSM    H8S11937   5.749   4.026   5.826  0.5279  2.0284 -2.2079
  115OSM    H8T11938   5.574   4.039   5.860  2.3993  2.0938  1.3338
  115OSM    C9S11939   5.632   4.043   5.645 -0.5529 -0.1251 -0.6388
  115OSM    H9S11940   5.716   3.997   5.590  1.9447 -0.5207  3.1633
  115OSM    H9T11941   5.640   4.154   5.640  1.5325 -0.3040 -2.1526
  115OSM   C10S11942   5.494   4.013   5.588 -0.9203  1.2164 -0.5023
  115OSM   H10S11943   5.424   4.090   5.627 -0.7268  2.0406 -1.7410
  115OSM   H10T11944   5.462   3.913   5.626  0.1045  0.3735 -1.7731
  115OSM   C11S11945   5.496   4.001   5.434  0.3223  0.0100 -0.4301
  115OSM   H11S11946   5.521   4.104   5.399 -0.6102  0.4668  0.2014
  115OSM   H11T11947   5.390   3.994   5.401 -0.1878  1.2065  0.8448
  115OSM   C12S11948   5.584   3.894   5.367  0.1710 -0.2884  0.0945
  115OSM   H12S11949   5.579   3.805   5.434  3.0444  1.0579  2.2859
  115OSM   H12T11950   5.689   3.928   5.371  0.4102 -1.0812  2.4848
  115OSM   C13S11951   5.525   3.860   5.229  0.7498 -0.6426  0.0421
  115OSM   H13S11952   5.428   3.812   5.253  0.5282  0.4940  1.5016
  115OSM   H13T11953   5.583   3.784   5.171 -0.2601 -1.0214 -0.5041
  115OSM   C14S11954   5.507   3.979   5.135 -0.6124  0.5342  0.1030
  115OSM   H14S11955   5.608   4.024   5.127 -0.2825 -0.3974 -1.4913
  115OSM   H14T11956   5.444   4.052   5.190 -0.5868  1.8559 -1.5348
  115OSM   C15S11957   5.430   3.945   5.006  0.2812  0.4332 -0.5763
  115OSM   H15S11958   5.394   4.044   4.971  3.0340  1.2569 -1.2684
  115OSM   H15T11959   5.340   3.890   5.043  1.2941 -1.3711 -0.6670
  115OSM   C16S11960   5.498   3.874   4.890  0.2226  0.7009  0.0453
  115OSM   H16S11961   5.520   3.771   4.927 -0.2963  0.7328  0.4513
  115OSM   H16T11962   5.584   3.938   4.863 -0.9564  1.3765 -2.3056
  115OSM   C17S11963   5.409   3.869   4.761 -0.0176  0.1718  0.0443
  115OSM   H17S11964   5.377   3.970   4.728 -0.5418  0.3579  1.0873
  115OSM   H17T11965   5.320   3.815   4.801  0.7061  1.0656  3.1031
  115OSM   C18S11966   5.471   3.795   4.639 -0.0800  0.9212  0.1713
  115OSM   H18S11967   5.403   3.817   4.554  1.8560  1.2240 -1.3709
  115OSM   H18T11968   5.465   3.684   4.641 -0.6527  0.7700 -3.3241
  115OSM   H18U11969   5.568   3.834   4.601 -0.2108  1.8493  0.7479
  115OSM    C1F11970   5.664   4.310   6.160 -0.2874 -0.1872 -0.3430
  115OSM     OF11971   5.751   4.342   6.243  0.1629  0.6335  0.3918
  115OSM    C2F11972   5.637   4.379   6.030  0.0564  0.4144  0.3128
  115OSM    H2F11973   5.529   4.407   6.026  0.2492  1.1546  0.0242
  115OSM    H2G11974   5.643   4.298   5.955  2.0257  2.2739 -1.7008
  115OSM    C3F11975   5.741   4.491   5.995  0.9624 -0.9943 -0.3634
  115OSM    H3F11976   5.843   4.451   5.982  0.5552 -2.0001 -0.5368
  115OSM    H3G11977   5.741   4.559   6.083 -0.4033 -0.7171 -0.5484
  115OSM    C4F11978   5.696   4.567   5.871 -0.3390 -0.1504 -0.4011
  115OSM    H4F11979   5.750   4.664   5.872  0.1830 -0.4201 -1.5540
  115OSM    H4G11980   5.585   4.571   5.869 -0.3885 -1.3239 -1.1564
  115OSM    C5F11981   5.735   4.488   5.746  0.5362  0.4044 -0.9358
  115OSM    H5F11982   5.675   4.394   5.750  0.1378  0.6486 -1.1694
  115OSM    H5G11983   5.839   4.450   5.754  0.3955  0.4141  1.5738
  115OSM    C6F11984   5.718   4.554   5.608 -0.4047  0.1239  0.5408
  115OSM    H6F11985   5.719   4.665   5.616  1.0710  0.2097 -0.4165
  115OSM    H6G11986   5.626   4.516   5.558  0.9558  0.1434 -2.1597
  115OSM    C7F11987   5.840   4.524   5.516 -0.1736 -0.4332  0.6524
  115OSM    H7F11988   5.872   4.418   5.503 -0.8885 -0.5441 -0.3078
  115OSM    H7G11989   5.929   4.577   5.555  0.1726 -1.3395  1.1282
  115OSM    C8F11990   5.814   4.581   5.372 -0.0694 -0.7207  0.1526
  115OSM    H8F11991   5.774   4.684   5.383  2.3509  0.2635  0.2632
  115OSM    H8G11992   5.737   4.517   5.323 -1.5462  1.0496  0.0741
  115OSM    C9F11993   5.936   4.583   5.277 -0.3040 -0.8632  0.2860
  115OSM    H9F11994   6.032   4.584   5.331  1.0415  0.0773 -1.9797
  115OSM   C10F11995   5.931   4.589   5.146 -0.9246 -0.0761  0.0959
  115OSM   H10F11996   6.019   4.600   5.081 -1.9221  0.1774 -1.2729
  115OSM   C11F11997   5.805   4.598   5.064 -0.2580  0.2221 -0.4547
  115OSM   H11F11998   5.722   4.602   5.137  0.0339 -3.2663  0.2318
  115OSM   H11G11999   5.787   4.500   5.015  0.3118  0.1742 -0.5731
  115OSM   C12F12000   5.804   4.704   4.950  0.1476 -0.0044 -0.0562
  115OSM   H12F12001   5.854   4.649   4.867 -0.1808 -1.5589  0.7407
  115OSM   H12G12002   5.857   4.796   4.982  0.3975 -0.2927  0.3595
  115OSM   C13F12003   5.667   4.727   4.906  0.4715  0.3644  0.1614
  115OSM   H13F12004   5.667   4.812   4.834 -1.3598  0.4805  0.2355
  115OSM   H13G12005   5.605   4.748   4.996 -0.2167 -1.4100  0.1534
  115OSM   C14F12006   5.606   4.602   4.842 -0.2090  0.0472 -0.0695
  115OSM   H14F12007   5.617   4.538   4.933  1.9926  0.2174 -0.1447
  115OSM   H14G12008   5.675   4.560   4.766  1.7129  1.0918  0.9961
  115OSM   C15F12009   5.454   4.617   4.806  0.0222 -0.4757 -0.2588
  115OSM   H15F12010   5.441   4.704   4.739  0.6320  2.1463  2.7755
  115OSM   H15G12011   5.389   4.642   4.893 -1.5260  0.1213 -1.5386
  115OSM   C16F12012   5.397   4.501   4.735 -0.0441 -0.1553 -0.2918
  115OSM   H16F12013   5.286   4.506   4.727  0.0099  2.0151 -0.5131
  115OSM   H16G12014   5.407   4.412   4.801 -1.1185  0.9911  1.5317
  115OSM   C17F12015   5.459   4.466   4.599  0.3165 -0.2429  0.1359
  115OSM   H17F12016   5.565   4.437   4.607 -0.0131 -1.0415  2.0638
  115OSM   H17G12017   5.474   4.558   4.538  0.2722 -1.0364 -1.0959
  115OSM   C18F12018   5.387   4.362   4.517 -0.2351 -0.0954  0.7437
  115OSM   H18F12019   5.449   4.339   4.428 -1.3726  0.1392 -0.1247
  115OSM   H18G12020   5.300   4.405   4.463  0.8469  3.1613  1.3333
  115OSM   H18H12021   5.355   4.265   4.560 -3.0756 -1.4244 -3.7441
  116OSM      N12022   1.572   1.921   6.511 -0.2064 -0.6301 -0.0892
  116OSM    C1512023   1.622   1.794   6.559 -0.2188  0.7626  0.3507
  116OSM   H15A12024   1.725   1.770   6.535 -0.7994 -2.3291  0.5157
  116OSM   H15B12025   1.560   1.716   6.519 -0.2570 -0.0067  1.8174
  116OSM   H15C12026   1.623   1.777   6.666 -0.5495  0.0505  0.2461
  116OSM    C1412027   1.428   1.940   6.560 -0.4576 -0.2050  0.3734
  116OSM   H14A12028   1.377   1.854   6.519  1.8721 -0.6239 -1.9274
  116OSM   H14B12029   1.377   2.032   6.539 -0.6863 -0.7938 -1.9491
  116OSM   H14C12030   1.422   1.929   6.668  0.9211 -0.9851  0.3945
  116OSM    C1312031   1.642   2.028   6.580 -0.0999 -0.8713  0.2013
  116OSM   H13A12032   1.747   2.022   6.554 -0.0717  1.0390 -0.3141
  116OSM   H13B12033   1.627   2.037   6.686  0.9983 -1.1356  0.3935
  116OSM   H13C12034   1.607   2.124   6.545  1.4274  0.4341  2.0334
  116OSM    C1212035   1.596   1.940   6.361  0.2362  0.1006  0.5351
  116OSM   H12A12036   1.702   1.949   6.343  0.1217 -0.3275 -0.3614
  116OSM   H12B12037   1.548   2.034   6.338  1.9339  1.3105  1.6590
  116OSM    C1112038   1.542   1.838   6.256  0.2896  0.1380 -0.4034
  116OSM   H11A12039   1.590   1.740   6.282 -3.3319 -1.3933  1.1845
  116OSM   H11B12040   1.571   1.880   6.158 -1.5607  0.4161 -0.8570
  116OSM      P12041   1.293   1.903   6.188 -0.1719  0.6002  0.1138
  116OSM    O1312042   1.160   1.858   6.240 -0.0548 -0.3775 -0.0011
  116OSM    O1412043   1.325   2.048   6.194 -0.2026  0.1110 -0.3290
  116OSM    O1112044   1.309   1.846   6.047  0.0483  0.0857 -0.2720
  116OSM    O1212045   1.405   1.817   6.271 -0.1833  0.2812  0.0498
  116OSM    C1S12046   1.305   1.702   6.034 -0.2769 -0.1198 -0.6495
  116OSM    H1S12047   1.207   1.667   6.073 -1.3878 -0.8432 -3.7693
  116OSM    H1T12048   1.394   1.660   6.085  0.2315  1.4190 -0.2109
  116OSM     NF12049   1.316   1.510   5.877 -0.0025 -0.1561 -0.3577
  116OSM    HNF12050   1.384   1.460   5.825 -1.9634 -4.2285  0.6003
  116OSM    C2S12051   1.315   1.661   5.889  0.5512  0.5423  0.3407
  116OSM    H2S12052   1.222   1.687   5.834  0.8947 -0.8061 -0.9623
  116OSM    C3S12053   1.437   1.726   5.811 -0.3406  0.6529  0.2299
  116OSM    H3S12054   1.523   1.666   5.847 -0.5007  1.6872  2.5122
  116OSM     O312055   1.464   1.859   5.855 -0.1167  0.2906  0.2329
  116OSM    HO312056   1.401   1.870   5.927  0.6457 -2.1366  1.3754
  116OSM    C4S12057   1.446   1.707   5.662  0.3160  0.0928  0.8683
  116OSM    H4S12058   1.477   1.604   5.640  0.2515  0.2091  0.2247
  116OSM    C5S12059   1.425   1.796   5.559  0.0163  0.1770  0.1844
  116OSM    H5S12060   1.386   1.896   5.584  0.1353  0.0932  0.7286
  116OSM    C6S12061   1.443   1.764   5.414 -0.4992 -0.1126  0.0985
  116OSM    H6S12062   1.459   1.656   5.398  0.2052  0.1090 -0.7499
  116OSM    H6T12063   1.535   1.820   5.385 -1.3924  1.9926  1.1015
  116OSM    C7S12064   1.317   1.801   5.339  0.1860 -0.6552  0.6329
  116OSM    H7S12065   1.323   1.772   5.232  0.9129 -0.3928  0.5918
  116OSM    H7T12066   1.294   1.910   5.347  2.2228  0.0114 -1.2987
  116OSM    C8S12067   1.198   1.718   5.394 -0.2413  0.0970  0.1729
  116OSM    H8S12068   1.179   1.769   5.491  2.1553 -1.6162  1.6417
  116OSM    H8T12069   1.231   1.612   5.403  2.5559  0.5784 -2.7963
  116OSM    C9S12070   1.071   1.722   5.302  0.7743  0.2166 -0.7026
  116OSM    H9S12071   1.047   1.828   5.279 -1.3720 -0.0470  0.1207
  116OSM    H9T12072   0.982   1.683   5.354 -0.3174  4.0752  0.6446
  116OSM   C10S12073   1.093   1.647   5.170 -0.2430  0.3896  0.6602
  116OSM   H10S12074   1.137   1.546   5.181 -0.6661  0.0692 -0.4061
  116OSM   H10T12075   1.166   1.702   5.107 -2.3136  1.3042 -1.1180
  116OSM   C11S12076   0.970   1.646   5.084  0.3014 -1.1239  0.8131
  116OSM   H11S12077   0.983   1.628   4.975 -0.8281 -1.9960  0.7994
  116OSM   H11T12078   0.930   1.749   5.088  0.9745 -0.8652  1.0097
  116OSM   C12S12079   0.856   1.555   5.124 -0.5234 -0.4033 -0.1058
  116OSM   H12S12080   0.762   1.588   5.075 -1.1737  0.2845  1.5353
  116OSM   H12T12081   0.836   1.585   5.229  0.4523  0.5935 -0.1829
  116OSM   C13S12082   0.875   1.401   5.119  0.4216  0.2109  0.3756
  116OSM   H13S12083   0.985   1.386   5.132  0.6173 -0.1020 -1.4211
  116OSM   H13T12084   0.852   1.364   5.017  1.4474 -0.3851  0.3430
  116OSM   C14S12085   0.798   1.328   5.228 -0.7827  0.1113  0.2207
  116OSM   H14S12086   0.834   1.371   5.324 -0.8753  2.8897 -0.9086
  116OSM   H14T12087   0.837   1.224   5.238 -0.9638  0.0965  0.8321
  116OSM   C15S12088   0.650   1.351   5.244  0.0108 -0.4472  0.7809
  116OSM   H15S12089   0.598   1.286   5.170  2.5644  0.9632 -2.4777
  116OSM   H15T12090   0.624   1.457   5.221  0.1484 -0.7394 -0.8304
  116OSM   C16S12091   0.595   1.321   5.389 -0.2523 -0.3052  0.7812
  116OSM   H16S12092   0.487   1.348   5.388  0.0538  1.4297 -2.5865
  116OSM   H16T12093   0.643   1.388   5.463  1.9943 -1.3395  0.3718
  116OSM   C17S12094   0.617   1.172   5.425  0.3241  0.3215  0.4434
  116OSM   H17S12095   0.725   1.150   5.405 -0.2316 -1.1788 -1.1965
  116OSM   H17T12096   0.554   1.108   5.360 -1.2726 -0.2358  2.4478
  116OSM   C18S12097   0.587   1.139   5.574 -0.2130 -0.5596  0.5533
  116OSM   H18S12098   0.479   1.152   5.598 -0.9023 -1.9462 -1.5742
  116OSM   H18T12099   0.638   1.204   5.648 -0.8301 -2.2849  2.6232
  116OSM   H18U12100   0.614   1.033   5.595 -0.3628 -1.4873 -3.1830
  116OSM    C1F12101   1.208   1.434   5.900  0.7555  0.6402  0.0780
  116OSM     OF12102   1.111   1.485   5.950  0.2046 -0.7950  0.0955
  116OSM    C2F12103   1.215   1.287   5.881  0.0668 -1.2025 -0.5096
  116OSM    H2F12104   1.145   1.245   5.957 -0.6910  0.2956 -0.3369
  116OSM    H2G12105   1.320   1.260   5.904  0.3100 -1.0384 -1.4112
  116OSM    C3F12106   1.165   1.240   5.745  0.6470  0.1526  0.3500
  116OSM    H3F12107   1.055   1.249   5.731  0.9673  0.5573 -2.3132
  116OSM    H3G12108   1.175   1.130   5.742 -2.0926 -0.2253 -4.3660
  116OSM    C4F12109   1.234   1.297   5.626  0.3350 -0.1729  0.1140
  116OSM    H4F12110   1.344   1.281   5.633  1.2909  3.9098 -2.2415
  116OSM    H4G12111   1.207   1.405   5.619 -1.1837 -0.4438  1.3886
  116OSM    C5F12112   1.197   1.239   5.492  0.4776  0.0601 -0.1563
  116OSM    H5F12113   1.087   1.236   5.476  0.6268  0.6962 -1.4048
  116OSM    H5G12114   1.243   1.138   5.492  0.4540  0.0395  0.8395
  116OSM    C6F12115   1.250   1.322   5.381  0.5285  0.5038  0.6434
  116OSM    H6F12116   1.354   1.350   5.408  0.4220 -1.3495  3.3122
  116OSM    H6G12117   1.191   1.416   5.376 -0.3556 -0.0531  0.1173
  116OSM    C7F12118   1.242   1.230   5.254  0.7447  0.1528  0.1768
  116OSM    H7F12119   1.134   1.204   5.253  1.3443 -2.6799 -1.1138
  116OSM    H7G12120   1.304   1.138   5.263 -0.2140 -0.6268 -0.8175
  116OSM    C8F12121   1.282   1.301   5.118  0.6308 -0.3255  0.6172
  116OSM    H8F12122   1.216   1.389   5.105  0.1607 -0.8127 -0.4011
  116OSM    H8G12123   1.256   1.236   5.032  0.0694 -0.8606  1.1838
  116OSM    C9F12124   1.428   1.333   5.108 -0.5706  0.0165  0.8006
  116OSM    H9F12125   1.494   1.263   5.161  1.7668  1.7989  0.3717
  116OSM   C10F12126   1.480   1.441   5.039  0.2829 -0.0991 -0.1744
  116OSM   H10F12127   1.589   1.453   5.043  0.1205  1.0535  2.6279
  116OSM   C11F12128   1.413   1.538   4.951 -0.0926 -0.1588 -0.1329
  116OSM   H11F12129   1.426   1.643   4.984 -0.2923  0.0644 -0.7598
  116OSM   H11G12130   1.303   1.527   4.942  0.0340 -1.4954 -0.2875
  116OSM   C12F12131   1.460   1.524   4.804 -0.0386 -0.4875  0.1482
  116OSM   H12F12132   1.427   1.421   4.778  1.6231 -0.8047 -0.7950
  116OSM   H12G12133   1.571   1.528   4.800 -0.0229  1.6214  1.2495
  116OSM   C13F12134   1.404   1.634   4.715  0.1735  0.1567 -0.4321
  116OSM   H13F12135   1.427   1.624   4.607 -1.6668  1.0810 -0.9569
  116OSM   H13G12136   1.454   1.730   4.740 -0.6561  0.5575 -0.2740
  116OSM   C14F12137   1.257   1.655   4.726  0.0837 -0.8664 -0.8555
  116OSM   H14F12138   1.230   1.699   4.824 -0.0441 -0.8077 -0.9169
  116OSM   H14G12139   1.202   1.560   4.712 -2.2740  0.0790  1.3074
  116OSM   C15F12140   1.197   1.750   4.621  0.0940 -0.4833 -0.1490
  116OSM   H15F12141   1.183   1.708   4.519 -2.1093  2.5964 -1.2925
  116OSM   H15G12142   1.254   1.843   4.601 -0.6514  0.3478  1.3930
  116OSM   C16F12143   1.054   1.801   4.654 -0.1521 -0.6585  0.3762
  116OSM   H16F12144   1.076   1.886   4.722  2.6295 -0.8964 -0.0998
  116OSM   H16G12145   0.980   1.733   4.702 -1.0258  1.0236  1.5344
  116OSM   C17F12146   0.966   1.852   4.537 -0.0935 -0.0655 -0.4302
  116OSM   H17F12147   0.873   1.891   4.582  1.0376  0.5196  1.5483
  116OSM   H17G12148   0.944   1.761   4.477  0.7537 -0.1981 -0.5598
  116OSM   C18F12149   1.036   1.948   4.439  0.1989 -0.1110 -0.2619
  116OSM   H18F12150   0.973   2.009   4.371 -0.4893 -1.6411 -1.0519
  116OSM   H18G12151   1.105   1.884   4.379  0.8449 -1.0074  1.3568
  116OSM   H18H12152   1.093   2.024   4.497 -1.8666  1.0744  0.2883
  117OSM      N12153   0.049   4.628   6.588 -0.1677 -0.3980 -0.1660
  117OSM    C1512154   0.176   4.550   6.608  0.0963  0.0806 -0.0434
  117OSM   H15A12155   0.196   4.491   6.519 -1.0465 -0.0989 -0.1921
  117OSM   H15B12156   0.172   4.486   6.694 -0.6656  0.4743  0.2177
  117OSM   H15C12157   0.260   4.617   6.622 -0.4913  0.8824 -0.2760
  117OSM    C1412158  -0.065   4.537   6.611 -0.2587 -0.1734 -0.4781
  117OSM   H14A12159  -0.049   4.441   6.564 -0.2474 -0.7291  0.6352
  117OSM   H14B12160  -0.150   4.575   6.557  1.0072  2.2493 -0.9308
  117OSM   H14C12161  -0.090   4.537   6.716  0.1561 -0.5462 -0.3774
  117OSM    C1312162   0.054   4.739   6.693 -0.3884 -0.3227  0.4108
  117OSM   H13A12163   0.152   4.783   6.696  0.3312 -1.7796 -0.5023
  117OSM   H13B12164   0.028   4.696   6.789 -1.9091 -1.9283 -0.6499
  117OSM   H13C12165  -0.028   4.808   6.676 -0.8071 -1.0419 -0.5823
  117OSM    C1212166   0.041   4.666   6.444  0.1935 -0.0526 -0.6047
  117OSM   H12A12167   0.030   4.577   6.384 -1.8244 -1.4752  1.6825
  117OSM   H12B12168   0.139   4.706   6.424  1.2912 -1.2338  1.9851
  117OSM    C1112169  -0.077   4.748   6.403  1.0350 -0.2387  0.3128
  117OSM   H11A12170  -0.169   4.685   6.413  0.0128  1.3197  1.0709
  117OSM   H11B12171  -0.063   4.772   6.295  0.4835 -0.0710  0.2753
  117OSM      P12172  -0.210   4.936   6.537 -0.2741  0.0026  0.1323
  117OSM    O1312173  -0.310   4.836   6.570 -0.5499 -0.0008  0.0809
  117OSM    O1412174  -0.162   5.032   6.643  0.0117  0.6108 -0.1345
  117OSM    O1112175  -0.266   5.023   6.418 -0.0979  0.0818 -0.1573
  117OSM    O1212176  -0.085   4.869   6.474 -0.0458 -0.1629  0.3326
  117OSM    C1S12177  -0.183   5.107   6.340 -0.0213 -0.2973  0.3386
  117OSM    H1S12178  -0.077   5.074   6.331  0.4164  1.2350 -0.6570
  117OSM    H1T12179  -0.196   5.211   6.375 -0.0383 -0.6052  1.2763
  117OSM     NF12180  -0.130   5.147   6.103  0.7044 -0.0856 -0.3806
  117OSM    HNF12181  -0.145   5.242   6.077 -1.9194 -0.4446 -0.3651
  117OSM    C2S12182  -0.229   5.094   6.193  0.5752  0.1512  0.1139
  117OSM    H2S12183  -0.232   4.986   6.167  0.3950  0.3864 -0.8918
  117OSM    C3S12184  -0.367   5.159   6.165 -0.4971  0.0722  0.0479
  117OSM    H3S12185  -0.349   5.268   6.172  0.5118  0.1186 -2.2693
  117OSM     O312186  -0.464   5.140   6.267 -0.2943  0.0574 -0.0992
  117OSM    HO312187  -0.404   5.117   6.338  2.4331  3.1549 -1.1541
  117OSM    C4S12188  -0.428   5.135   6.025  0.3818 -0.4139 -0.1397
  117OSM    H4S12189  -0.359   5.161   5.943 -1.3229  0.4570 -1.3524
  117OSM    C5S12190  -0.544   5.063   6.010 -0.2174  0.1762 -0.0646
  117OSM    H5S12191  -0.588   5.010   6.095 -0.0024 -1.0603 -0.6946
  117OSM    C6S12192  -0.598   5.006   5.878 -0.1619  0.1755 -0.8047
  117OSM    H6S12193  -0.705   5.026   5.854 -0.0515 -0.6646 -2.0898
  117OSM    H6T12194  -0.592   4.895   5.885  1.4425  0.3562  1.6845
  117OSM    C7S12195  -0.505   5.038   5.762 -0.2671  0.1846 -0.2588
  117OSM    H7S12196  -0.403   4.996   5.778  0.3305  1.1326 -1.3395
  117OSM    H7T12197  -0.504   5.149   5.760 -1.3842  0.2484 -3.3421
  117OSM    C8S12198  -0.555   4.996   5.623 -0.2377 -0.0158 -0.1629
  117OSM    H8S12199  -0.645   5.055   5.593 -0.6138 -0.1769  0.6290
  117OSM    H8T12200  -0.594   4.892   5.620 -0.4198  0.0529 -3.1599
  117OSM    C9S12201  -0.446   5.010   5.514 -0.0387 -0.6081 -0.5999
  117OSM    H9S12202  -0.368   4.934   5.538  1.7950  1.1746 -0.6648
  117OSM    H9T12203  -0.379   5.098   5.519  0.6672 -1.1567 -0.2431
  117OSM   C10S12204  -0.491   4.980   5.371  0.5001 -0.6999 -0.2223
  117OSM   H10S12205  -0.415   5.000   5.292  0.2577  2.4522  0.2147
  117OSM   H10T12206  -0.581   5.036   5.337  0.9012  0.1573  0.1004
  117OSM   C11S12207  -0.518   4.830   5.347 -0.1649 -0.0535 -0.3651
  117OSM   H11S12208  -0.573   4.788   5.434 -1.9126  3.4563  0.4079
  117OSM   H11T12209  -0.427   4.766   5.349  0.7026  1.1471  1.1575
  117OSM   C12S12210  -0.590   4.807   5.215  0.3719  0.2861  0.0819
  117OSM   H12S12211  -0.689   4.856   5.227 -0.2996  0.2718 -3.9348
  117OSM   H12T12212  -0.614   4.701   5.194  0.4489  0.4036 -0.6161
  117OSM   C13S12213  -0.518   4.872   5.100  0.1865  0.3053  0.1671
  117OSM   H13S12214  -0.415   4.831   5.098  0.4907  1.0244  0.4895
  117OSM   H13T12215  -0.515   4.983   5.111 -1.4435  0.1334  3.7451
  117OSM   C14S12216  -0.594   4.852   4.969  0.0599 -0.2644 -0.5037
  117OSM   H14S12217  -0.698   4.889   4.975 -0.2440 -1.2383  0.5297
  117OSM   H14T12218  -0.607   4.745   4.942 -0.9879 -0.1622 -0.4439
  117OSM   C15S12219  -0.529   4.929   4.855  0.3327  0.7249 -0.3698
  117OSM   H15S12220  -0.430   4.964   4.889 -0.2337  0.3997  1.7841
  117OSM   H15T12221  -0.588   5.015   4.818  1.2557  0.8670 -1.5564
  117OSM   C16S12222  -0.494   4.837   4.745 -0.1487 -0.0423  0.4793
  117OSM   H16S12223  -0.439   4.751   4.789  0.3808 -0.5930 -1.1776
  117OSM   H16T12224  -0.424   4.895   4.682 -0.9305  0.6913  0.2622
  117OSM   C17S12225  -0.612   4.795   4.658  0.9491 -0.0956  0.2566
  117OSM   H17S12226  -0.684   4.744   4.726  0.6873  0.4289  0.3710
  117OSM   H17T12227  -0.559   4.719   4.597  1.2282 -0.6368  1.1456
  117OSM   C18S12228  -0.668   4.912   4.578  0.1249 -0.3684  0.4269
  117OSM   H18S12229  -0.702   4.878   4.478  1.2856  2.1153 -0.8960
  117OSM   H18T12230  -0.582   4.975   4.548  2.7233 -2.3517  3.1102
  117OSM   H18U12231  -0.747   4.967   4.633 -0.6907 -1.0036 -0.0881
  117OSM    C1F12232  -0.016   5.092   6.078 -0.2052 -0.3645 -0.4644
  117OSM     OF12233  -0.002   4.974   6.111 -0.3239  0.2737  0.5485
  117OSM    C2F12234   0.090   5.180   6.022 -0.4801 -0.3709  0.1517
  117OSM    H2F12235   0.138   5.236   6.106 -0.2232 -1.2671  0.6219
  117OSM    H2G12236   0.047   5.258   5.956 -1.5264  0.2209  1.4624
  117OSM    C3F12237   0.200   5.112   5.943 -0.8248 -0.7648  0.0908
  117OSM    H3F12238   0.154   5.060   5.856 -0.0291 -0.5516 -0.4710
  117OSM    H3G12239   0.257   5.032   5.995  0.1346 -0.3093 -0.2354
  117OSM    C4F12240   0.302   5.209   5.886  0.1788 -0.3538 -0.1881
  117OSM    H4F12241   0.349   5.262   5.972 -0.1853 -2.3765  1.3507
  117OSM    H4G12242   0.245   5.278   5.821  1.1370  0.8719  0.2498
  117OSM    C5F12243   0.409   5.151   5.796 -0.2365 -0.3551 -0.1900
  117OSM    H5F12244   0.366   5.113   5.701 -0.6019 -0.4492  0.0089
  117OSM    H5G12245   0.458   5.062   5.840 -3.8122 -2.3128  0.2231
  117OSM    C6F12246   0.518   5.258   5.763  0.1521  0.2831  0.0827
  117OSM    H6F12247   0.573   5.271   5.859 -0.5116 -1.5871  0.7730
  117OSM    H6G12248   0.467   5.354   5.741 -2.6278 -1.1488 -0.0548
  117OSM    C7F12249   0.627   5.212   5.666  0.0825 -0.3026  0.0184
  117OSM    H7F12250   0.647   5.105   5.689 -0.2004 -0.4663 -0.4724
  117OSM    H7G12251   0.719   5.254   5.711 -0.7429  0.3359  1.1408
  117OSM    C8F12252   0.604   5.232   5.516 -0.1252 -0.2233 -0.0679
  117OSM    H8F12253   0.529   5.155   5.490 -0.5858  0.5802 -1.1575
  117OSM    H8G12254   0.705   5.221   5.471  0.7769  1.9784  1.2310
  117OSM    C9F12255   0.548   5.365   5.479  0.6473 -0.0015  0.5571
  117OSM    H9F12256   0.606   5.443   5.530  1.5912  0.3013 -0.8969
  117OSM   C10F12257   0.432   5.396   5.419  0.4682 -0.4609  0.8107
  117OSM   H10F12258   0.400   5.501   5.427  2.3093  0.0628  1.9626
  117OSM   C11F12259   0.343   5.307   5.337 -0.4714 -0.8711  0.0878
  117OSM   H11F12260   0.248   5.281   5.388  0.2380 -1.5082  1.1475
  117OSM   H11G12261   0.394   5.210   5.323 -3.0999 -2.0451 -2.1247
  117OSM   C12F12262   0.331   5.362   5.194 -0.0080 -0.0235  0.5867
  117OSM   H12F12263   0.294   5.467   5.195 -0.1709 -0.0820  0.9021
  117OSM   H12G12264   0.253   5.305   5.139 -0.3697  2.4509 -1.6779
  117OSM   C13F12265   0.458   5.371   5.113 -0.0431  0.3928  0.1465
  117OSM   H13F12266   0.522   5.280   5.120  1.5521  1.5390  1.0178
  117OSM   H13G12267   0.519   5.457   5.147 -0.6293  0.6391  0.5987
  117OSM   C14F12268   0.423   5.391   4.965  0.0184 -0.3767 -0.5802
  117OSM   H14F12269   0.519   5.421   4.916 -0.1156  1.3703  0.1695
  117OSM   H14G12270   0.355   5.479   4.963  2.0149  1.2579 -3.2031
  117OSM   C15F12271   0.367   5.269   4.890  1.2354  0.6858 -0.0864
  117OSM   H15F12272   0.267   5.252   4.935  1.5009  1.0431  0.6568
  117OSM   H15G12273   0.426   5.179   4.918 -3.8031 -3.6103 -1.7947
  117OSM   C16F12274   0.358   5.284   4.735 -0.2706 -0.1764  0.1958
  117OSM   H16F12275   0.308   5.196   4.692 -1.9581 -0.3379  2.3177
  117OSM   H16G12276   0.462   5.276   4.696 -0.6084 -1.6881 -0.4199
  117OSM   C17F12277   0.278   5.395   4.677 -0.0169 -0.8104 -0.4366
  117OSM   H17F12278   0.325   5.489   4.713 -1.6394 -0.2830  0.3865
  117OSM   H17G12279   0.170   5.392   4.704  0.3374 -0.0564  1.1579
  117OSM   C18F12280   0.294   5.412   4.524  0.0489  0.5667 -0.2692
  117OSM   H18F12281   0.221   5.490   4.492 -0.7663 -0.3080 -0.5780
  117OSM   H18G12282   0.270   5.320   4.468 -0.4941  1.4749 -1.5733
  117OSM   H18H12283   0.394   5.452   4.497 -0.2584 -0.0071 -2.4137
  118OSM      N12284   0.609   4.143   6.404  0.2059 -0.3525 -0.4341
  118OSM    C1512285   0.621   4.016   6.486  0.3133  0.7199 -0.2529
  118OSM   H15A12286   0.601   4.033   6.590  0.8543 -2.8603  0.5720
  118OSM   H15B12287   0.721   3.975   6.490 -0.2111 -0.6553 -0.5572
  118OSM   H15C12288   0.568   3.932   6.443  1.9923  0.3183 -1.6381
  118OSM    C1412289   0.482   4.213   6.427  0.1825 -0.6217 -0.5492
  118OSM   H14A12290   0.393   4.154   6.413  1.2422 -2.0062 -1.8463
  118OSM   H14B12291   0.477   4.304   6.369  0.5650 -0.9529 -1.1141
  118OSM   H14C12292   0.484   4.250   6.528  1.4854 -0.8343 -0.4763
  118OSM    C1312293   0.717   4.242   6.445 -0.1359 -0.5047 -0.1978
  118OSM   H13A12294   0.693   4.338   6.402 -2.3351 -0.4762  0.9583
  118OSM   H13B12295   0.808   4.205   6.400 -2.0017 -1.9765 -3.1334
  118OSM   H13C12296   0.732   4.273   6.547 -0.3974 -0.9283 -0.0261
  118OSM    C1212297   0.637   4.111   6.259 -0.1378 -0.3759  0.2966
  118OSM   H12A12298   0.744   4.104   6.247 -0.3338 -3.4531 -0.4455
  118OSM   H12B12299   0.615   4.196   6.197  1.7905  0.2230  0.3549
  118OSM    C1112300   0.558   3.989   6.193 -1.0548 -0.0214 -0.1763
  118OSM   H11A12301   0.587   3.897   6.247  1.1210  0.6778 -0.0515
  118OSM   H11B12302   0.609   3.988   6.094 -2.2305  0.9288 -0.8304
  118OSM      P12303   0.304   3.923   6.197 -0.0585 -0.0997  0.1527
  118OSM    O1312304   0.335   3.840   6.317 -0.3867 -0.1625  0.2972
  118OSM    O1412305   0.167   3.994   6.192  0.1471 -0.4021 -0.6178
  118OSM    O1112306   0.319   3.837   6.064 -0.5699 -0.4741 -0.3299
  118OSM    O1212307   0.414   4.023   6.173 -0.2110 -0.3768  0.0422
  118OSM    C1S12308   0.247   3.713   6.046 -0.1994  0.0772  0.0268
  118OSM    H1S12309   0.140   3.711   6.073 -0.7443  0.4443 -1.9557
  118OSM    H1T12310   0.289   3.620   6.090 -0.8060  0.0607  0.5922
  118OSM     NF12311   0.152   3.585   5.844 -0.4847 -0.3608  0.1434
  118OSM    HNF12312   0.199   3.498   5.835 -0.4959 -0.5175  1.3558
  118OSM    C2S12313   0.248   3.690   5.889  0.1748  0.2059  0.1224
  118OSM    H2S12314   0.211   3.784   5.842 -1.4527 -1.2606 -1.6823
  118OSM    C3S12315   0.391   3.668   5.836 -0.0790 -0.1496 -0.0871
  118OSM    H3S12316   0.427   3.570   5.873  0.4391  0.4441  1.0309
  118OSM     O312317   0.489   3.765   5.864  0.4350  0.2654 -0.1804
  118OSM    HO312318   0.442   3.823   5.924  0.3813 -0.3537  0.3796
  118OSM    C4S12319   0.375   3.660   5.691  0.0350  0.6782  0.2442
  118OSM    H4S12320   0.309   3.736   5.645 -0.4208 -1.1058 -2.2627
  118OSM    C5S12321   0.410   3.562   5.607 -0.4788  0.0825 -0.9247
  118OSM    H5S12322   0.469   3.476   5.643  1.3313  0.7821 -2.0614
  118OSM    C6S12323   0.373   3.546   5.464 -0.0731 -0.4892 -0.4060
  118OSM    H6S12324   0.301   3.464   5.444 -2.3064  1.5128 -1.1179
  118OSM    H6T12325   0.470   3.520   5.417  0.5685  0.0862  0.5686
  118OSM    C7S12326   0.319   3.668   5.385 -0.0123  0.7401 -0.1927
  118OSM    H7S12327   0.381   3.757   5.408 -0.0596  0.8756 -0.5769
  118OSM    H7T12328   0.230   3.697   5.444 -1.0019  0.1952 -1.3554
  118OSM    C8S12329   0.291   3.639   5.239 -1.0952 -0.1007 -0.0341
  118OSM    H8S12330   0.212   3.708   5.202  0.0723  1.0309 -0.5445
  118OSM    H8T12331   0.244   3.539   5.226 -0.9301  0.1827 -4.2309
  118OSM    C9S12332   0.416   3.650   5.144  0.0066  0.1327  0.2767
  118OSM    H9S12333   0.477   3.558   5.162 -0.2808  0.0116  0.6407
  118OSM    H9T12334   0.473   3.741   5.172  1.6678 -1.3154  1.8949
  118OSM   C10S12335   0.390   3.653   4.990  0.2962 -0.3421  0.2960
  118OSM   H10S12336   0.320   3.734   4.959  1.5252  1.1140  1.2356
  118OSM   H10T12337   0.363   3.552   4.953  1.9550 -0.5272 -0.4844
  118OSM   C11S12338   0.529   3.681   4.926  0.3102 -0.2133  0.2532
  118OSM   H11S12339   0.593   3.600   4.966 -0.2963 -0.9246 -0.2015
  118OSM   H11T12340   0.562   3.782   4.958  0.4835 -0.7869  1.9589
  118OSM   C12S12341   0.519   3.686   4.771 -0.0842 -0.2774  0.2578
  118OSM   H12S12342   0.451   3.767   4.739 -0.0795 -0.8259 -1.2443
  118OSM   H12T12343   0.483   3.589   4.729 -0.3485  0.2449 -0.7594
  118OSM   C13S12344   0.652   3.705   4.701 -0.2830  0.1485 -0.8349
  118OSM   H13S12345   0.734   3.662   4.762 -0.7337  1.5442  0.8486
  118OSM   H13T12346   0.667   3.815   4.693  0.8454  0.2383  1.6919
  118OSM   C14S12347   0.652   3.659   4.555 -0.0010 -0.3613  0.2089
  118OSM   H14S12348   0.580   3.727   4.505  1.4014  0.3220 -0.9777
  118OSM   H14T12349   0.619   3.553   4.545 -2.4380  0.2758  0.9377
  118OSM   C15S12350   0.790   3.675   4.503 -0.5556  0.6202 -0.4080
  118OSM   H15S12351   0.861   3.620   4.568 -1.9504  0.7532  1.3167
  118OSM   H15T12352   0.823   3.781   4.509 -0.8639  0.6796  0.3171
  118OSM   C16S12353   0.799   3.630   4.356  0.5571 -0.2036  0.3946
  118OSM   H16S12354   0.701   3.636   4.305  1.4496  2.0841 -1.1783
  118OSM   H16T12355   0.828   3.523   4.355  2.1387  0.2123 -0.2856
  118OSM   C17S12356   0.888   3.704   4.260  0.0942 -0.2554 -0.4789
  118OSM   H17S12357   0.832   3.800   4.247 -0.2935 -0.1737  1.5381
  118OSM   H17T12358   0.897   3.647   4.165  2.2223 -0.4309 -0.2150
  118OSM   C18S12359   1.024   3.732   4.321 -1.0272 -0.6734  0.3471
  118OSM   H18S12360   1.090   3.783   4.248 -0.8329 -0.9034  0.3607
  118OSM   H18T12361   1.075   3.644   4.367  0.7155  0.6823  1.1046
  118OSM   H18U12362   1.002   3.806   4.401  1.3128  0.2081  0.2467
  118OSM    C1F12363   0.016   3.604   5.859  0.1613  0.0443 -0.3580
  118OSM     OF12364  -0.033   3.716   5.885 -0.3267  0.4563 -0.0165
  118OSM    C2F12365  -0.068   3.476   5.843  0.0879  0.8648 -0.3179
  118OSM    H2F12366  -0.136   3.470   5.931  2.0269  0.0060  1.1748
  118OSM    H2G12367   0.008   3.395   5.843 -1.2315 -0.4378  1.1160
  118OSM    C3F12368  -0.135   3.473   5.717  0.6800 -0.4477  0.6673
  118OSM    H3F12369  -0.214   3.550   5.708  1.6757  0.6667  1.2917
  118OSM    H3G12370  -0.184   3.373   5.705 -0.4670 -0.0525  1.7746
  118OSM    C4F12371  -0.046   3.487   5.596  0.2690  0.4869 -0.2854
  118OSM    H4F12372   0.049   3.430   5.608  1.4902  2.2073 -1.2913
  118OSM    H4G12373  -0.009   3.591   5.584 -0.3871  0.9641  1.5503
  118OSM    C5F12374  -0.111   3.445   5.464 -0.6627 -0.0097  0.7576
  118OSM    H5F12375  -0.191   3.516   5.434 -0.1656 -0.3790 -1.6202
  118OSM    H5G12376  -0.150   3.341   5.474  1.9923 -1.1701 -0.0251
  118OSM    C6F12377  -0.019   3.457   5.339 -0.5815 -0.2292  0.8767
  118OSM    H6F12378   0.066   3.388   5.354  1.3306  1.7210 -0.4869
  118OSM    H6G12379   0.032   3.555   5.328  0.7162 -0.8820  0.9694
  118OSM    C7F12380  -0.090   3.416   5.208  0.1222 -0.1239 -0.3853
  118OSM    H7F12381  -0.171   3.484   5.175  1.4125  1.7029  0.0829
  118OSM    H7G12382  -0.141   3.320   5.230 -1.6342  0.7491 -0.4825
  118OSM    C8F12383   0.001   3.390   5.086 -0.4340 -0.1011 -0.4867
  118OSM    H8F12384  -0.064   3.325   5.023 -2.5149  0.2820  1.1378
  118OSM    H8G12385   0.090   3.338   5.126 -1.0102 -0.5153  0.2911
  118OSM    C9F12386   0.037   3.522   5.027  0.2415  0.3453  0.0797
  118OSM    H9F12387   0.045   3.610   5.093  0.3746 -0.8886  1.7762
  118OSM   C10F12388   0.041   3.549   4.895 -0.1435  0.0296  0.4736
  118OSM   H10F12389   0.072   3.652   4.873 -0.6152  1.1634  4.3999
  118OSM   C11F12390   0.029   3.456   4.774  0.8878  0.5480 -0.3924
  118OSM   H11F12391  -0.044   3.506   4.708 -0.4659 -0.2168  0.4794
  118OSM   H11G12392  -0.021   3.358   4.790  0.1425  0.6824 -1.7393
  118OSM   C12F12393   0.165   3.431   4.709 -0.4790 -0.0383 -0.0935
  118OSM   H12F12394   0.168   3.334   4.655  2.6240 -0.6105  0.8646
  118OSM   H12G12395   0.245   3.420   4.786  1.0899  0.4674 -1.5868
  118OSM   C13F12396   0.221   3.522   4.590 -0.4972 -0.6323  0.1636
  118OSM   H13F12397   0.283   3.455   4.527 -0.5789 -2.0155  1.5125
  118OSM   H13G12398   0.288   3.601   4.630  1.8714 -1.8993 -1.0734
  118OSM   C14F12399   0.107   3.582   4.496 -0.2096  1.1397 -0.3479
  118OSM   H14F12400   0.034   3.640   4.556  1.0244  0.8257  1.5429
  118OSM   H14G12401   0.049   3.491   4.467  1.7099 -0.7456  1.3713
  118OSM   C15F12402   0.160   3.651   4.369 -0.1333  0.1065 -0.1228
  118OSM   H15F12403   0.075   3.712   4.331 -0.3059  0.2140  0.4241
  118OSM   H15G12404   0.181   3.582   4.284  0.2975  1.3844 -1.0829
  118OSM   C16F12405   0.279   3.742   4.392  0.3604  0.5797 -0.3400
  118OSM   H16F12406   0.362   3.671   4.407 -0.8066 -0.8635 -0.4549
  118OSM   H16G12407   0.267   3.816   4.474 -0.1156  0.6692 -0.4836
  118OSM   C17F12408   0.322   3.824   4.263 -0.4484 -0.6570  0.0793
  118OSM   H17F12409   0.297   3.769   4.170 -0.6105  0.5333 -0.6149
  118OSM   H17G12410   0.431   3.846   4.262 -0.8678  1.7918 -1.0114
  118OSM   C18F12411   0.249   3.958   4.239 -0.4449  0.2509  0.0011
  118OSM   H18F12412   0.284   3.985   4.137  0.3510  0.0774  0.2225
  118OSM   H18G12413   0.274   4.038   4.312 -0.4353 -0.0695  0.3567
  118OSM   H18H12414   0.139   3.943   4.247 -0.2272 -0.8353  1.2855
  119OSM      N12415   2.888   0.159   7.056 -0.1964 -0.5651  0.6155
  119OSM    C1512416   2.850   0.097   7.186  0.4375  0.3179 -0.3036
  119OSM   H15A12417   2.744   0.096   7.208  0.0924  0.3606 -1.8684
  119OSM   H15B12418   2.918   0.131   7.262  2.8220 -2.5685 -0.9774
  119OSM   H15C12419   2.880  -0.007   7.187 -0.9787 -0.1178  0.0348
  119OSM    C1412420   2.835   0.301   7.035 -0.5612  0.0054  0.3834
  119OSM   H14A12421   2.877   0.375   7.103  0.0715 -0.3943  0.4358
  119OSM   H14B12422   2.728   0.296   7.047 -0.8481 -0.0171 -1.8104
  119OSM   H14C12423   2.843   0.337   6.933 -1.0972 -0.3346  0.2189
  119OSM    C1312424   3.032   0.153   7.035  0.0468  0.3621  0.0187
  119OSM   H13A12425   3.089   0.193   7.117  0.8370 -1.4340  0.4170
  119OSM   H13B12426   3.054   0.206   6.943 -2.3724 -0.7837 -1.3207
  119OSM   H13C12427   3.072   0.052   7.039  1.5428  0.9649  1.8400
  119OSM    C1212428   2.820   0.077   6.945  0.4575  0.4966 -0.1602
  119OSM   H12A12429   2.876  -0.010   6.915 -1.5285 -0.4395 -1.3392
  119OSM   H12B12430   2.820   0.128   6.850 -1.6319  0.0654 -0.4372
  119OSM    C1112431   2.671   0.031   6.962 -0.3181 -0.1243 -0.1847
  119OSM   H11A12432   2.650  -0.006   7.065 -2.6816  1.5440  0.0214
  119OSM   H11B12433   2.647  -0.058   6.901  0.5211 -0.9808  0.6942
  119OSM      P12434   2.515   0.166   6.797 -0.1985 -0.3155  0.1329
  119OSM    O1312435   2.401   0.065   6.781 -0.0683 -0.1090  0.1817
  119OSM    O1412436   2.475   0.314   6.802  0.3360  0.7853  0.1494
  119OSM    O1112437   2.625   0.151   6.686 -0.1176  0.6287  0.6047
  119OSM    O1212438   2.583   0.137   6.934 -0.2139  0.8468 -0.7964
  119OSM    C1S12439   2.603   0.206   6.555  0.4708 -0.5165 -0.0653
  119OSM    H1S12440   2.632   0.313   6.559  1.2937 -0.5985 -2.4071
  119OSM    H1T12441   2.496   0.205   6.525 -0.0637 -0.2429  1.7104
  119OSM     NF12442   2.682   0.218   6.313 -0.0169  0.6743 -0.2039
  119OSM    HNF12443   2.604   0.199   6.255  0.5978 -1.6121 -0.4045
  119OSM    C2S12444   2.680   0.134   6.437  0.4263 -0.9350  0.0149
  119OSM    H2S12445   2.784   0.122   6.474  0.8878  2.4613  0.1924
  119OSM    C3S12446   2.624  -0.005   6.418 -0.5573 -0.7492 -0.2579
  119OSM    H3S12447   2.518   0.004   6.384 -0.4719 -0.0555 -0.3665
  119OSM     O312448   2.620  -0.081   6.544 -0.0945 -0.2212  0.4158
  119OSM    HO312449   2.641  -0.023   6.618  0.4255 -2.5162  2.1714
  119OSM    C4S12450   2.709  -0.080   6.313  0.4187 -0.0342  0.3278
  119OSM    H4S12451   2.808  -0.112   6.348  1.7316  0.7874 -2.3242
  119OSM    C5S12452   2.665  -0.122   6.195  0.1097 -0.3783  0.3605
  119OSM    H5S12453   2.564  -0.098   6.159  0.7874  0.1991 -1.2974
  119OSM    C6S12454   2.745  -0.201   6.087  0.0513  0.1428 -1.1144
  119OSM    H6S12455   2.696  -0.202   5.987 -1.7787 -0.4027 -0.2440
  119OSM    H6T12456   2.736  -0.308   6.116 -0.5030  0.1021 -1.4352
  119OSM    C7S12457   2.893  -0.144   6.075 -0.2860 -0.1147 -0.1405
  119OSM    H7S12458   2.959  -0.208   6.138  0.5613  2.1173  1.3710
  119OSM    H7T12459   2.909  -0.042   6.117 -0.1825  0.3067 -1.1661
  119OSM    C8S12460   2.950  -0.132   5.929  0.1608 -0.0455 -0.2916
  119OSM    H8S12461   2.875  -0.062   5.886 -2.2054 -0.3849  2.9036
  119OSM    H8T12462   2.931  -0.231   5.882 -0.5669  0.1582 -0.4518
  119OSM    C9S12463   3.096  -0.088   5.907 -0.2041 -0.4272  0.7923
  119OSM    H9S12464   3.172  -0.159   5.947  1.5439  0.3347 -1.0085
  119OSM    H9T12465   3.114   0.006   5.963  0.6594  0.4269 -0.8497
  119OSM   C10S12466   3.137  -0.068   5.757 -0.2063 -0.1756 -0.2763
  119OSM   H10S12467   3.245  -0.042   5.766  0.2661 -2.2031  0.4861
  119OSM   H10T12468   3.108   0.031   5.716  1.2401  0.1215 -0.6387
  119OSM   C11S12469   3.115  -0.179   5.663 -0.1007  0.5433 -0.3578
  119OSM   H11S12470   3.005  -0.186   5.648 -0.1201  0.8656 -0.3755
  119OSM   H11T12471   3.140  -0.269   5.723 -1.3958  0.8535  0.7139
  119OSM   C12S12472   3.194  -0.157   5.527 -0.2874  0.2824 -0.2490
  119OSM   H12S12473   3.146  -0.228   5.457  1.2386  1.5062 -2.6930
  119OSM   H12T12474   3.301  -0.181   5.544 -0.6881 -2.3091 -1.0214
  119OSM   C13S12475   3.174  -0.019   5.460  0.6260 -0.4266 -0.2303
  119OSM   H13S12476   3.250   0.041   5.514 -1.4550  0.2341  2.1529
  119OSM   H13T12477   3.077   0.021   5.496  0.0030 -1.5655 -0.5921
  119OSM   C14S12478   3.191  -0.019   5.310 -0.0964 -0.2120 -0.4316
  119OSM   H14S12479   3.274  -0.082   5.271 -1.0558  0.3519 -3.6396
  119OSM   H14T12480   3.215   0.082   5.273  0.3898 -0.1012  0.1691
  119OSM   C15S12481   3.060  -0.066   5.244  0.0964 -0.7475  0.2324
  119OSM   H15S12482   2.974  -0.007   5.281  1.0441 -0.2557  1.7555
  119OSM   H15T12483   3.035  -0.174   5.254 -0.6604 -0.8271 -2.0925
  119OSM   C16S12484   3.067  -0.054   5.092 -0.6069 -1.1259  0.3667
  119OSM   H16S12485   3.171  -0.079   5.061  0.2644  2.2749  0.1901
  119OSM   H16T12486   3.068   0.052   5.059 -0.8514 -1.5646 -1.1024
  119OSM   C17S12487   2.964  -0.131   5.008 -0.1043  0.5347  0.2387
  119OSM   H17S12488   2.877  -0.063   5.002  0.4849  1.2012 -1.6962
  119OSM   H17T12489   2.939  -0.224   5.063  0.3858 -0.1922 -0.7346
  119OSM   C18S12490   3.018  -0.158   4.873 -0.0481  0.5062  0.2546
  119OSM   H18S12491   3.100  -0.232   4.865 -0.5854 -0.0686 -0.1417
  119OSM   H18T12492   3.046  -0.059   4.830 -1.9125  1.1610  0.4388
  119OSM   H18U12493   2.949  -0.209   4.802  3.2754 -0.2918 -2.6847
  119OSM    C1F12494   2.756   0.323   6.309 -0.5364 -0.7188 -0.4165
  119OSM     OF12495   2.848   0.335   6.388 -0.0213  0.2813 -0.1817
  119OSM    C2F12496   2.733   0.419   6.206 -0.6867  0.1581 -0.4467
  119OSM    H2F12497   2.630   0.460   6.219  0.7029  3.4296  1.2604
  119OSM    H2G12498   2.733   0.375   6.104 -1.9820  0.5119 -0.6159
  119OSM    C3F12499   2.823   0.548   6.207  0.3796  0.5425  0.3340
  119OSM    H3F12500   2.932   0.527   6.200  0.6922  1.5436  1.7203
  119OSM    H3G12501   2.807   0.585   6.311 -1.0199 -0.3214  0.4550
  119OSM    C4F12502   2.793   0.654   6.101  0.4019  0.6138 -0.8953
  119OSM    H4F12503   2.849   0.747   6.127 -0.3073  0.3106  1.9593
  119OSM    H4G12504   2.687   0.686   6.095 -0.3400 -1.1730  1.4707
  119OSM    C5F12505   2.840   0.604   5.958 -0.7530 -0.3813 -0.7766
  119OSM    H5F12506   2.820   0.495   5.954  1.6690 -0.9884  1.3590
  119OSM    H5G12507   2.950   0.616   5.956 -0.2811 -3.5700  0.7974
  119OSM    C6F12508   2.767   0.671   5.846  0.2350 -0.1732 -0.0101
  119OSM    H6F12509   2.780   0.781   5.853  0.8497 -0.1543 -1.1782
  119OSM    H6G12510   2.658   0.658   5.860  0.4414 -1.2668  0.7923
  119OSM    C7F12511   2.800   0.615   5.710  0.9001 -0.1023  0.1053
  119OSM    H7F12512   2.797   0.505   5.718 -1.9029 -0.0858  0.0739
  119OSM    H7G12513   2.903   0.639   5.676  0.4954  1.0675 -0.3761
  119OSM    C8F12514   2.702   0.674   5.600 -0.2336 -0.0166 -0.1634
  119OSM    H8F12515   2.722   0.783   5.604  3.0975 -0.5499  0.8431
  119OSM    H8G12516   2.598   0.664   5.638  0.1839  0.2184  1.0801
  119OSM    C9F12517   2.720   0.616   5.464  0.0877  0.0459 -0.3155
  119OSM    H9F12518   2.705   0.507   5.470  1.5616 -0.1012  1.7188
  119OSM   C10F12519   2.718   0.676   5.341 -0.4960 -0.6748  0.4497
  119OSM   H10F12520   2.733   0.618   5.248  0.4707  0.4314 -0.1089
  119OSM   C11F12521   2.694   0.818   5.302  0.2945 -0.3260 -0.2924
  119OSM   H11F12522   2.792   0.863   5.331  0.3197 -0.4872 -0.1205
  119OSM   H11G12523   2.621   0.874   5.364 -1.2917 -0.7144 -1.7403
  119OSM   C12F12524   2.682   0.841   5.146 -0.3402 -0.3751 -0.5093
  119OSM   H12F12525   2.690   0.952   5.145  0.6231 -0.3573  1.9070
  119OSM   H12G12526   2.586   0.811   5.099 -0.4234 -0.8338 -0.0490
  119OSM   C13F12527   2.799   0.789   5.062  0.3279 -0.0733  0.2342
  119OSM   H13F12528   2.767   0.690   5.022  2.3707 -0.3534 -0.8676
  119OSM   H13G12529   2.896   0.769   5.114  0.2466 -1.8030 -0.2197
  119OSM   C14F12530   2.826   0.884   4.938  0.9933  0.1209 -0.0976
  119OSM   H14F12531   2.846   0.984   4.984  0.6919 -1.2474  3.3089
  119OSM   H14G12532   2.736   0.907   4.878  0.0424  0.9986  1.5801
  119OSM   C15F12533   2.944   0.826   4.854  0.2372 -0.4122 -0.3237
  119OSM   H15F12534   2.935   0.877   4.756  0.4731  0.7713  0.2506
  119OSM   H15G12535   2.931   0.717   4.841 -0.1017 -1.0367  3.8937
  119OSM   C16F12536   3.084   0.841   4.912  0.2731  0.1907 -0.1746
  119OSM   H16F12537   3.099   0.795   5.012  3.4357  0.1003 -0.5834
  119OSM   H16G12538   3.088   0.952   4.920 -0.2381  0.4932 -3.0210
  119OSM   C17F12539   3.191   0.792   4.823 -0.6909  0.4918 -0.2766
  119OSM   H17F12540   3.211   0.851   4.731  1.7903  0.4758  0.1832
  119OSM   H17G12541   3.167   0.692   4.782 -0.8883  1.5623 -2.9307
  119OSM   C18F12542   3.327   0.792   4.884 -0.1269  0.8549 -0.7173
  119OSM   H18F12543   3.341   0.874   4.958  0.7061  0.0340  0.0658
  119OSM   H18G12544   3.403   0.802   4.804  0.3930  0.9540 -0.2171
  119OSM   H18H12545   3.355   0.688   4.914  2.0901  1.2039 -1.3755
  120OSM      N12546   5.202   6.772   6.717  0.2415 -0.4222 -0.4202
  120OSM    C1512547   5.171   6.666   6.817 -0.6215 -0.2159  0.5130
  120OSM   H15A12548   5.100   6.601   6.768 -0.7046  0.2110  0.0593
  120OSM   H15B12549   5.124   6.696   6.910  1.1081 -1.0251  1.7025
  120OSM   H15C12550   5.253   6.598   6.835 -0.6818 -0.3106  0.4318
  120OSM    C1412551   5.090   6.872   6.712 -0.0654 -0.0217  0.6110
  120OSM   H14A12552   5.075   6.921   6.807 -0.8785 -0.5440  0.7598
  120OSM   H14B12553   4.994   6.832   6.684  0.4969  0.1123 -1.7140
  120OSM   H14C12554   5.113   6.950   6.641  1.5961 -0.9872  0.0407
  120OSM    C1312555   5.338   6.840   6.749  0.0267 -0.3855  0.4770
  120OSM   H13A12556   5.348   6.888   6.846  1.9978  0.2062  0.0240
  120OSM   H13B12557   5.339   6.934   6.696 -2.2248 -0.1634  0.7422
  120OSM   H13C12558   5.424   6.784   6.716  0.8201  1.4043 -0.6533
  120OSM    C1212559   5.222   6.701   6.581  0.0900 -0.4407  0.2591
  120OSM   H12A12560   5.308   6.636   6.583  1.0925  0.7546 -1.4216
  120OSM   H12B12561   5.259   6.777   6.514 -0.5583 -0.9374 -0.6847
  120OSM    C1112562   5.102   6.636   6.508  0.2632 -0.4094  0.1351
  120OSM   H11A12563   5.139   6.602   6.409 -1.5213 -1.2912 -0.2619
  120OSM   H11B12564   5.022   6.712   6.492  1.5635  0.9030 -0.3803
  120OSM      P12565   4.926   6.448   6.507 -0.0611 -0.5772  0.2647
  120OSM    O1312566   4.838   6.388   6.605  0.3628  0.0484  0.3116
  120OSM    O1412567   4.860   6.539   6.410  0.0716  0.1384  0.0093
  120OSM    O1112568   4.996   6.340   6.421  0.4924  0.5702 -0.2061
  120OSM    O1212569   5.040   6.527   6.582  0.3357  0.0046 -0.1710
  120OSM    C1S12570   4.932   6.283   6.300  0.2188 -0.0916 -0.2848
  120OSM    H1S12571   4.909   6.354   6.218  2.8886  0.3483 -0.7525
  120OSM    H1T12572   4.845   6.222   6.332  1.0002 -1.1046 -0.0213
  120OSM     NF12573   4.947   6.132   6.117 -0.1778 -0.0288 -0.9088
  120OSM    HNF12574   4.876   6.063   6.123  0.1943 -0.3234  0.4392
  120OSM    C2S12575   5.014   6.171   6.244  0.3649  0.0132  0.3738
  120OSM    H2S12576   5.114   6.204   6.208  0.0539  0.4554 -0.0925
  120OSM    C3S12577   5.036   6.055   6.353 -0.2672 -0.4038  0.3961
  120OSM    H3S12578   4.940   6.002   6.375  0.1428 -2.2361 -1.7861
  120OSM     O312579   5.080   6.082   6.486 -0.1720  0.1726 -0.5182
  120OSM    HO312580   5.086   6.178   6.487 -0.3357  0.1801 -0.2148
  120OSM    C4S12581   5.116   5.947   6.282  0.4002  0.5488  0.6354
  120OSM    H4S12582   5.055   5.871   6.232  0.1640  0.4600  1.0503
  120OSM    C5S12583   5.249   5.942   6.263  0.1317  0.7535  0.5164
  120OSM    H5S12584   5.304   6.036   6.272  2.4444 -0.4364 -0.5046
  120OSM    C6S12585   5.322   5.840   6.177 -0.7254  0.0120 -0.4488
  120OSM    H6S12586   5.382   5.769   6.237  0.4458  2.3257  1.2924
  120OSM    H6T12587   5.402   5.896   6.123 -0.6956  1.4735  0.9992
  120OSM    C7S12588   5.239   5.752   6.075  0.3983 -0.9865 -0.1584
  120OSM    H7S12589   5.159   5.700   6.131 -0.6997  0.4615 -0.3194
  120OSM    H7T12590   5.317   5.684   6.035  1.0286 -0.2758 -0.1573
  120OSM    C8S12591   5.171   5.839   5.961  0.6944 -0.0060  0.5930
  120OSM    H8S12592   5.231   5.932   5.947  0.6871 -0.0045  0.5769
  120OSM    H8T12593   5.064   5.853   5.989 -0.4486 -1.8362 -2.3259
  120OSM    C9S12594   5.179   5.761   5.827  0.0606  0.1216  0.4559
  120OSM    H9S12595   5.113   5.672   5.841 -1.1817  0.5723 -2.0091
  120OSM    H9T12596   5.284   5.728   5.814 -0.2650 -0.0412 -2.3725
  120OSM   C10S12597   5.144   5.845   5.701  0.1887 -0.0238 -0.4109
  120OSM   H10S12598   5.217   5.927   5.685  0.0736  0.5414  1.6882
  120OSM   H10T12599   5.046   5.896   5.716  0.6678  0.3352  1.7233
  120OSM   C11S12600   5.131   5.740   5.577  0.0114 -0.3446  1.2094
  120OSM   H11S12601   5.046   5.673   5.600  1.9327 -2.8522  1.4516
  120OSM   H11T12602   5.230   5.689   5.574  0.6788  0.9591 -0.7103
  120OSM   C12S12603   5.113   5.804   5.442 -1.1163 -0.2067 -0.0988
  120OSM   H12S12604   5.198   5.870   5.415 -1.4088  0.2435  0.0656
  120OSM   H12T12605   5.020   5.863   5.426 -0.4219  1.2278  0.9262
  120OSM   C13S12606   5.117   5.698   5.328 -1.1057 -0.0408  0.1113
  120OSM   H13S12607   5.051   5.613   5.353  1.2635 -2.0850 -0.2019
  120OSM   H13T12608   5.219   5.655   5.332 -0.9732  0.3316  1.0375
  120OSM   C14S12609   5.078   5.766   5.193 -0.4777 -0.4520  0.5055
  120OSM   H14S12610   5.143   5.856   5.184  0.0086 -0.6637  1.7696
  120OSM   H14T12611   4.972   5.801   5.194 -0.0863  0.7845  1.7541
  120OSM   C15S12612   5.098   5.680   5.064  0.5030  0.4702  0.6598
  120OSM   H15S12613   5.019   5.602   5.070  1.6127 -0.7431 -0.2038
  120OSM   H15T12614   5.190   5.620   5.081  0.0360  0.1073  2.0224
  120OSM   C16S12615   5.108   5.755   4.934 -0.2146 -0.3364 -0.8022
  120OSM   H16S12616   5.212   5.792   4.922 -0.9748  1.5994 -1.8791
  120OSM   H16T12617   5.046   5.846   4.949  1.1898  0.6873 -0.9986
  120OSM   C17S12618   5.061   5.681   4.809 -0.0077  0.2216 -0.1690
  120OSM   H17S12619   4.957   5.647   4.829 -0.4182  0.3661 -1.8762
  120OSM   H17T12620   5.128   5.594   4.792  1.0819  1.0691 -0.3301
  120OSM   C18S12621   5.057   5.780   4.687 -0.0387 -0.2765 -0.2957
  120OSM   H18S12622   5.015   5.712   4.610 -0.6048 -1.4938  1.0284
  120OSM   H18T12623   5.163   5.803   4.660  0.0564  1.1086  1.0907
  120OSM   H18U12624   4.983   5.860   4.707  1.4932  1.0406  0.3541
  120OSM    C1F12625   4.973   6.180   5.996 -0.3553 -0.1882 -1.1269
  120OSM     OF12626   5.072   6.247   5.975 -0.7170  0.4200 -0.4074
  120OSM    C2F12627   4.899   6.116   5.871  0.4907 -0.9425 -1.5644
  120OSM    H2F12628   4.828   6.045   5.919 -0.6395  0.6285 -0.8649
  120OSM    H2G12629   4.973   6.064   5.806  2.4634 -0.9911  0.5597
  120OSM    C3F12630   4.817   6.231   5.802  0.0991 -0.3429  0.2683
  120OSM    H3F12631   4.862   6.332   5.807  1.5157 -0.8857 -0.9251
  120OSM    H3G12632   4.727   6.252   5.864 -0.6132 -1.9482 -0.1711
  120OSM    C4F12633   4.755   6.184   5.667 -0.6932 -0.0177  0.1709
  120OSM    H4F12634   4.673   6.253   5.638  1.7173  2.4709 -1.1735
  120OSM    H4G12635   4.710   6.083   5.684  0.6159 -0.4041  1.6095
  120OSM    C5F12636   4.865   6.176   5.556  0.0319 -0.6385  0.4117
  120OSM    H5F12637   4.940   6.097   5.576  1.1304 -0.2713 -1.9383
  120OSM    H5G12638   4.907   6.279   5.559 -0.4787 -0.4442  1.4349
  120OSM    C6F12639   4.809   6.151   5.415 -0.3041 -0.3425  0.6420
  120OSM    H6F12640   4.728   6.224   5.393 -2.3854 -1.7698  3.0834
  120OSM    H6G12641   4.768   6.048   5.417  0.2817 -0.7626 -2.7325
  120OSM    C7F12642   4.935   6.165   5.319  0.4610 -0.8605  0.4546
  120OSM    H7F12643   5.008   6.092   5.359  1.0626  0.1465  1.2562
  120OSM    H7G12644   4.981   6.265   5.333  0.1279 -0.6544  0.1269
  120OSM    C8F12645   4.892   6.151   5.175  0.5799  0.1116  0.0099
  120OSM    H8F12646   4.824   6.235   5.145 -0.4070  0.3561  2.6557
  120OSM    H8G12647   4.822   6.065   5.165 -1.4417  1.8620 -2.8138
  120OSM    C9F12648   5.012   6.133   5.083  0.5752 -0.3117 -0.4933
  120OSM    H9F12649   5.026   6.028   5.052  0.9226 -0.8097  1.2031
  120OSM   C10F12650   5.096   6.231   5.036 -0.6259  0.2428  0.4126
  120OSM   H10F12651   5.186   6.211   4.976  0.2882  0.6629  1.5909
  120OSM   C11F12652   5.077   6.379   5.052  0.3824  0.7406 -0.5954
  120OSM   H11F12653   5.174   6.423   5.082  1.9843 -1.0750 -2.6978
  120OSM   H11G12654   5.003   6.407   5.129  1.5766  0.6425  0.6187
  120OSM   C12F12655   5.019   6.439   4.922 -0.0670 -0.1076  0.0864
  120OSM   H12F12656   5.005   6.549   4.932  0.2630  0.0012 -0.6253
  120OSM   H12G12657   4.923   6.385   4.906 -0.2361  0.4042 -0.6644
  120OSM   C13F12658   5.113   6.422   4.792  0.0477 -0.0894  0.3984
  120OSM   H13F12659   5.054   6.447   4.701 -1.2295 -1.8829  0.6732
  120OSM   H13G12660   5.135   6.313   4.784 -2.1507 -0.5949  0.5287
  120OSM   C14F12661   5.251   6.492   4.792  0.0626  0.1439  0.5289
  120OSM   H14F12662   5.318   6.417   4.839  1.8913  0.2440 -1.7452
  120OSM   H14G12663   5.245   6.583   4.855  1.5527  0.2416  0.5507
  120OSM   C15F12664   5.310   6.517   4.652  0.3322 -0.2558  0.1886
  120OSM   H15F12665   5.297   6.419   4.602  1.2545 -1.3170  1.9308
  120OSM   H15G12666   5.416   6.551   4.655  0.1724  0.1653  1.6662
  120OSM   C16F12667   5.240   6.623   4.569  0.0730  0.3777  0.0895
  120OSM   H16F12668   5.215   6.717   4.623  2.0459 -0.0635  1.9283
  120OSM   H16G12669   5.145   6.574   4.540  0.8418 -0.4519 -1.1149
  120OSM   C17F12670   5.309   6.654   4.431 -0.0788 -0.8021 -0.1091
  120OSM   H17F12671   5.409   6.693   4.460  0.3268 -1.2336 -0.8834
  120OSM   H17G12672   5.260   6.743   4.388  1.5901  0.9158  1.3662
  120OSM   C18F12673   5.334   6.545   4.328  0.5844 -0.4913 -0.3487
  120OSM   H18F12674   5.402   6.584   4.249 -1.9227  0.3834 -2.2172
  120OSM   H18G12675   5.238   6.512   4.284 -0.5876  0.6285  1.2672
  120OSM   H18H12676   5.370   6.451   4.374 -0.3419  0.2589  2.0178
  121OSM      N12677   6.783   2.256   6.619  0.0388 -0.3438  0.2638
  121OSM    C1512678   6.669   2.351   6.635  0.1273 -0.1951 -0.5108
  121OSM   H15A12679   6.655   2.391   6.734  2.0982  0.4747 -0.4627
  121OSM   H15B12680   6.577   2.295   6.625  0.1637 -0.7457  1.7574
  121OSM   H15C12681   6.687   2.432   6.567 -0.8015 -0.1725 -0.7394
  121OSM    C1412682   6.908   2.317   6.671  0.2095  0.1708 -0.1086
  121OSM   H14A12683   6.919   2.413   6.624  0.3048 -0.4311 -1.3541
  121OSM   H14B12684   6.997   2.264   6.641  1.7455  1.3573  2.0439
  121OSM   H14C12685   6.909   2.325   6.779 -0.4386 -1.5463  0.0657
  121OSM    C1312686   6.757   2.128   6.688  0.4715  0.0751 -1.0722
  121OSM   H13A12687   6.683   2.073   6.632  1.9935 -1.3807 -1.7478
  121OSM   H13B12688   6.734   2.149   6.792 -0.5848 -0.9933 -1.0738
  121OSM   H13C12689   6.841   2.060   6.684  2.0987  2.0074 -1.5222
  121OSM    C1212690   6.806   2.236   6.465  0.0992 -0.5654 -0.0928
  121OSM   H12A12691   6.899   2.185   6.444  0.0290 -0.4990 -0.5711
  121OSM   H12B12692   6.823   2.335   6.425 -3.0225 -0.4754 -1.5507
  121OSM    C1112693   6.688   2.175   6.391 -0.4003  0.0214 -0.8013
  121OSM   H11A12694   6.693   2.193   6.281 -0.2632  2.4672 -0.4481
  121OSM   H11B12695   6.600   2.233   6.425 -0.0612 -1.1761  2.4446
  121OSM      P12696   6.756   1.928   6.357  0.0906 -0.4217 -0.3797
  121OSM    O1312697   6.901   1.957   6.390  0.2791 -0.2080  0.2533
  121OSM    O1412698   6.702   1.795   6.391  0.0015  0.4452 -0.1486
  121OSM    O1112699   6.735   1.958   6.206  0.3964  0.8156  0.3258
  121OSM    O1212700   6.671   2.042   6.430  0.2119  0.1795 -0.0430
  121OSM    C1S12701   6.608   1.950   6.149  0.2356  0.2563 -0.7554
  121OSM    H1S12702   6.551   2.043   6.171 -2.9416 -1.6981 -0.0208
  121OSM    H1T12703   6.543   1.864   6.175  1.7017 -1.3730 -2.2520
  121OSM     NF12704   6.474   1.932   5.930 -0.2454  0.5475 -0.4295
  121OSM    HNF12705   6.445   1.845   5.892  3.7018 -0.3937 -1.7243
  121OSM    C2S12706   6.614   1.942   5.991  0.6724  0.2406  0.7391
  121OSM    H2S12707   6.664   2.032   5.950  1.7500  0.5128  2.5559
  121OSM    C3S12708   6.701   1.814   5.951  0.2722 -0.6151 -0.3418
  121OSM    H3S12709   6.648   1.741   6.016  0.1870 -0.1523  0.1105
  121OSM     O312710   6.835   1.799   5.999 -0.3039 -0.5702  0.3823
  121OSM    HO312711   6.848   1.853   6.078 -0.9254 -0.3313  0.3223
  121OSM    C4S12712   6.688   1.770   5.808  0.5620 -0.1328 -0.7124
  121OSM    H4S12713   6.622   1.684   5.794  0.5175 -0.2850  0.3604
  121OSM    C5S12714   6.754   1.811   5.700  0.4390  0.1237  0.2172
  121OSM    H5S12715   6.840   1.879   5.711  0.4354  0.7715 -2.7954
  121OSM    C6S12716   6.743   1.745   5.566 -0.6490 -0.5967  0.1935
  121OSM    H6S12717   6.695   1.817   5.496  1.5436 -0.7892 -1.6331
  121OSM    H6T12718   6.689   1.648   5.571  1.9045 -2.1103  0.1089
  121OSM    C7S12719   6.884   1.725   5.502  0.0204  0.2436 -0.4025
  121OSM    H7S12720   6.951   1.662   5.564 -1.2715 -0.9494 -0.1859
  121OSM    H7T12721   6.921   1.828   5.483 -0.8030  0.7149  0.4519
  121OSM    C8S12722   6.872   1.660   5.366 -0.0603 -0.4827  0.3121
  121OSM    H8S12723   6.811   1.723   5.297  0.1854 -2.2987 -1.6809
  121OSM    H8T12724   6.828   1.559   5.378  2.0662 -1.5777 -0.6407
  121OSM    C9S12725   7.009   1.636   5.314  0.3646 -0.6874 -0.1168
  121OSM    H9S12726   7.053   1.572   5.393  0.0940 -0.4974  0.1916
  121OSM    H9T12727   7.065   1.733   5.314 -1.3261  0.3311 -1.2872
  121OSM   C10S12728   7.019   1.566   5.178 -0.2916 -0.0380  0.2421
  121OSM   H10S12729   6.954   1.615   5.103 -0.0412  1.8204  1.1803
  121OSM   H10T12730   6.986   1.460   5.182 -0.3523 -0.0224  0.1425
  121OSM   C11S12731   7.166   1.542   5.134  0.5050 -0.2441  0.2180
  121OSM   H11S12732   7.224   1.467   5.193 -0.1134  0.6310  2.0194
  121OSM   H11T12733   7.222   1.638   5.125  1.5230 -0.6740  1.5635
  121OSM   C12S12734   7.157   1.494   4.989 -0.3622 -0.0556  0.1308
  121OSM   H12S12735   7.117   1.578   4.929 -0.4744 -0.0770  0.1754
  121OSM   H12T12736   7.087   1.409   4.978 -0.4653 -0.3993  2.7941
  121OSM   C13S12737   7.287   1.442   4.928 -0.7462 -0.0019  0.4898
  121OSM   H13S12738   7.327   1.350   4.975  0.5336 -2.0463 -4.0896
  121OSM   H13T12739   7.361   1.524   4.916  0.9148 -1.5720 -0.4159
  121OSM   C14S12740   7.267   1.388   4.783 -0.3551  0.0178 -0.2630
  121OSM   H14S12741   7.232   1.466   4.713 -0.3428 -0.1992 -0.5126
  121OSM   H14T12742   7.186   1.313   4.797 -1.8650  1.8616  1.5509
  121OSM   C15S12743   7.390   1.309   4.728  0.3330 -0.3361 -0.3058
  121OSM   H15S12744   7.363   1.251   4.637  2.0001  0.4250 -1.3332
  121OSM   H15T12745   7.426   1.246   4.812  1.3711 -0.7204 -1.0207
  121OSM   C16S12746   7.508   1.409   4.704 -0.7992  0.1778 -0.6685
  121OSM   H16S12747   7.566   1.413   4.799 -1.7083  0.9517 -0.1277
  121OSM   H16T12748   7.473   1.512   4.685  0.5889  0.9402  0.6691
  121OSM   C17S12749   7.598   1.380   4.586 -0.6581 -0.3804  0.7224
  121OSM   H17S12750   7.536   1.380   4.493  0.9949 -1.0315 -0.4335
  121OSM   H17T12751   7.638   1.277   4.596 -2.2125 -0.8052  3.4604
  121OSM   C18S12752   7.708   1.482   4.570  0.2599 -0.0914 -0.6804
  121OSM   H18S12753   7.740   1.481   4.464  0.8310  4.2933 -0.7094
  121OSM   H18T12754   7.793   1.463   4.639  1.6514  0.7174 -2.1242
  121OSM   H18U12755   7.671   1.585   4.588  0.8331  0.2354 -1.3573
  121OSM    C1F12756   6.407   2.042   5.936  0.1041 -0.3149 -0.5111
  121OSM     OF12757   6.448   2.148   5.981 -0.2028  1.2101  0.5023
  121OSM    C2F12758   6.273   2.030   5.877 -0.1428 -0.7273  0.6326
  121OSM    H2F12759   6.202   2.101   5.923 -1.3837  0.2914 -2.5793
  121OSM    H2G12760   6.244   1.923   5.873 -1.0567 -0.4603 -2.3610
  121OSM    C3F12761   6.286   2.080   5.732  0.4983  0.1775  0.0555
  121OSM    H3F12762   6.292   2.190   5.723 -1.8549  0.3483  0.1374
  121OSM    H3G12763   6.194   2.049   5.678  1.7161  0.7539 -2.4630
  121OSM    C4F12764   6.393   2.018   5.642 -0.3193 -0.4302  0.1236
  121OSM    H4F12765   6.389   1.909   5.663 -1.7279 -0.0877  1.8887
  121OSM    H4G12766   6.490   2.063   5.674 -1.0707  0.7504  0.8148
  121OSM    C5F12767   6.361   2.045   5.491 -0.5101  0.1627  0.0501
  121OSM    H5F12768   6.364   2.153   5.466  0.2021  0.6143  1.9360
  121OSM    H5G12769   6.259   2.001   5.482 -0.7332 -0.3566  3.6081
  121OSM    C6F12770   6.448   1.965   5.397 -0.2294 -0.1668  0.1134
  121OSM    H6F12771   6.426   1.859   5.421  1.0751 -0.1187  1.7857
  121OSM    H6G12772   6.551   1.993   5.427 -0.3228  0.4001 -0.0833
  121OSM    C7F12773   6.441   2.002   5.245 -0.0068  0.2004 -0.2249
  121OSM    H7F12774   6.508   2.088   5.227  0.4267 -0.0831  0.0074
  121OSM    H7G12775   6.336   2.023   5.215  0.1230  2.0807  0.5088
  121OSM    C8F12776   6.493   1.881   5.152 -0.4505 -0.0762 -0.1252
  121OSM    H8F12777   6.584   1.839   5.200 -1.7288 -0.4232  2.1487
  121OSM    H8G12778   6.514   1.934   5.056 -0.4530 -1.3698 -0.8636
  121OSM    C9F12779   6.422   1.756   5.109  0.6587 -0.0346 -0.0587
  121OSM    H9F12780   6.448   1.666   5.167  1.6440  0.1129 -0.2408
  121OSM   C10F12781   6.348   1.742   4.997 -0.5786 -0.2564  0.0390
  121OSM   H10F12782   6.312   1.640   4.974 -0.9486 -0.1083 -0.0437
  121OSM   C11F12783   6.318   1.847   4.901  0.2560  0.0800 -0.1985
  121OSM   H11F12784   6.296   1.799   4.803  0.6456 -1.8089  0.5911
  121OSM   H11G12785   6.401   1.919   4.892  0.6352 -0.2416  0.6125
  121OSM   C12F12786   6.193   1.922   4.929  0.2247  0.4179  0.0629
  121OSM   H12F12787   6.225   1.994   5.007  1.6221 -0.2683  0.1424
  121OSM   H12G12788   6.111   1.858   4.969  0.1120 -1.5775 -3.0244
  121OSM   C13F12789   6.151   2.016   4.816 -0.4570  0.2700  0.2985
  121OSM   H13F12790   6.137   1.972   4.715  2.4082 -0.6515  0.2109
  121OSM   H13G12791   6.226   2.098   4.808 -1.4708  1.5428  2.6732
  121OSM   C14F12792   6.021   2.090   4.850  0.3210  0.0360 -0.9948
  121OSM   H14F12793   5.935   2.026   4.880  0.8383  0.7400  2.4324
  121OSM   H14G12794   5.985   2.152   4.765 -0.9310  1.7222  0.6876
  121OSM   C15F12795   6.036   2.203   4.959 -0.3400 -0.3814  0.3489
  121OSM   H15F12796   6.107   2.283   4.930 -0.8744 -0.2763 -0.7492
  121OSM   H15G12797   6.073   2.160   5.054  0.3420 -0.5159  0.0313
  121OSM   C16F12798   5.905   2.279   4.988 -0.4179  0.5707  0.2847
  121OSM   H16F12799   5.927   2.359   5.062  3.0438  2.0481 -2.0884
  121OSM   H16G12800   5.825   2.217   5.035  0.6719 -0.7483  0.4718
  121OSM   C17F12801   5.845   2.347   4.863  0.5743 -0.2792 -0.0350
  121OSM   H17F12802   5.758   2.406   4.899  1.0261  0.1158  0.4248
  121OSM   H17G12803   5.815   2.268   4.790 -0.9947 -1.9460  2.2421
  121OSM   C18F12804   5.939   2.442   4.785 -0.0044 -0.1354 -0.1529
  121OSM   H18F12805   6.024   2.377   4.757  1.0557  1.4515 -0.7200
  121OSM   H18G12806   5.976   2.525   4.848 -0.2586 -0.1935  0.0764
  121OSM   H18H12807   5.894   2.478   4.690 -1.5834  0.3595  0.7352
  122OSM      N12808   6.009   4.624   6.819  0.4184  0.0099  1.2717
  122OSM    C1512809   5.947   4.596   6.681 -0.7994  0.2079  0.5423
  122OSM   H15A12810   5.846   4.633   6.690 -0.5626  0.7223  1.1411
  122OSM   H15B12811   5.951   4.492   6.651  1.1886  0.0482  1.1742
  122OSM   H15C12812   5.997   4.657   6.607  0.5978  1.3999  2.3910
  122OSM    C1412813   5.942   4.540   6.920  0.0602  0.0464  0.0291
  122OSM   H14A12814   5.846   4.589   6.929  1.9174  3.9078  1.0918
  122OSM   H14B12815   5.985   4.546   7.019  0.5892  1.7621 -0.2579
  122OSM   H14C12816   5.919   4.439   6.889  1.4601  0.0380 -1.1241
  122OSM    C1312817   6.149   4.585   6.808  0.3815  0.6357 -0.2765
  122OSM   H13A12818   6.191   4.587   6.907  0.4684  0.3878 -0.3065
  122OSM   H13B12819   6.206   4.661   6.756  1.5145 -0.4930 -0.7350
  122OSM   H13C12820   6.161   4.491   6.756  2.5052 -0.0057  1.2409
  122OSM    C1212821   5.987   4.767   6.859 -0.1987 -0.1692 -0.1477
  122OSM   H12A12822   5.882   4.787   6.863 -0.1335 -0.0161  1.2287
  122OSM   H12B12823   6.040   4.838   6.797 -0.9315  0.6437  0.1448
  122OSM    C1112824   6.043   4.798   7.002  0.4187 -0.0291 -0.7779
  122OSM   H11A12825   6.035   4.714   7.074  0.7443  1.2866  0.8410
  122OSM   H11B12826   5.980   4.880   7.043  0.7145  1.1912 -2.6187
  122OSM      P12827   6.209   4.990   6.953 -0.3475 -0.5589 -0.1734
  122OSM    O1312828   6.127   5.086   7.037 -0.5352 -0.0189 -0.0165
  122OSM    O1412829   6.356   5.005   6.958 -0.0312 -0.0181 -0.1242
  122OSM    O1112830   6.168   5.013   6.800 -0.0773 -0.0261  0.4333
  122OSM    O1212831   6.178   4.841   6.987  0.2668  0.3259 -0.5265
  122OSM    C1S12832   6.220   4.950   6.681 -0.1348  0.2629 -0.3228
  122OSM    H1S12833   6.210   4.839   6.675 -1.5721  0.3273  0.5506
  122OSM    H1T12834   6.328   4.974   6.670  0.6738 -2.6534  0.3403
  122OSM     NF12835   6.193   4.948   6.423 -0.0223 -0.3081 -0.5245
  122OSM    HNF12836   6.250   5.010   6.369 -0.0869 -0.3315 -0.6185
  122OSM    C2S12837   6.153   5.007   6.551 -0.1906 -0.3497  0.9297
  122OSM    H2S12838   6.045   4.981   6.560 -0.2892 -0.2166  0.2200
  122OSM    C3S12839   6.150   5.158   6.554 -0.7617 -0.4121 -0.4432
  122OSM    H3S12840   6.257   5.189   6.551 -0.2974 -2.0200 -1.7492
  122OSM     O312841   6.102   5.217   6.673 -0.1769 -0.2382 -0.6987
  122OSM    HO312842   6.090   5.138   6.727 -2.3533  0.3261 -0.2734
  122OSM    C4S12843   6.080   5.223   6.441 -0.0133 -0.1148  0.5108
  122OSM    H4S12844   6.122   5.205   6.341 -4.3730 -0.1460 -1.5684
  122OSM    C5S12845   5.967   5.294   6.433 -0.0529  0.6911  0.3113
  122OSM    H5S12846   5.907   5.292   6.525 -1.6530 -2.6371 -0.6311
  122OSM    C6S12847   5.903   5.362   6.308 -0.3915 -0.0284  0.0651
  122OSM    H6S12848   5.915   5.472   6.315  0.8499 -0.2150  1.2791
  122OSM    H6T12849   5.796   5.333   6.311 -0.3525 -0.1243  0.5966
  122OSM    C7S12850   5.970   5.318   6.178 -1.0291  0.4415  0.2617
  122OSM    H7S12851   5.953   5.209   6.165  0.2445 -0.1227  2.7327
  122OSM    H7T12852   6.081   5.322   6.177 -0.9301 -1.3122  1.1174
  122OSM    C8S12853   5.928   5.386   6.050 -0.5914 -0.2592  0.5654
  122OSM    H8S12854   5.971   5.488   6.042  1.5952 -1.0782  1.2405
  122OSM    H8T12855   5.818   5.397   6.046 -0.5978 -0.5427 -2.5587
  122OSM    C9S12856   5.994   5.310   5.930  0.0976  0.1919 -0.4380
  122OSM    H9S12857   5.960   5.205   5.936 -3.4754  1.2522  0.3264
  122OSM    H9T12858   6.103   5.305   5.947 -0.0832 -1.9874  0.3932
  122OSM   C10S12859   5.948   5.369   5.793 -0.8982  0.5660 -0.0198
  122OSM   H10S12860   5.961   5.479   5.782 -0.4221  0.4043 -1.3130
  122OSM   H10T12861   5.841   5.352   5.769 -0.5588 -1.6731 -0.1363
  122OSM   C11S12862   6.032   5.333   5.670 -0.0434  0.6379 -0.5637
  122OSM   H11S12863   6.022   5.223   5.662  0.8772  0.5369 -0.3809
  122OSM   H11T12864   6.141   5.349   5.686  0.0394 -0.5238  0.1012
  122OSM   C12S12865   5.989   5.399   5.540  0.1196  0.6258 -1.3160
  122OSM   H12S12866   5.990   5.510   5.552  0.1970  0.5261 -0.3497
  122OSM   H12T12867   5.881   5.390   5.518  0.1710 -0.3107 -1.2059
  122OSM   C13S12868   6.071   5.351   5.422 -0.1324  0.0408 -0.1959
  122OSM   H13S12869   6.068   5.240   5.416  0.9729  0.0469 -1.0660
  122OSM   H13T12870   6.175   5.381   5.446 -0.2617  0.6207 -0.3459
  122OSM   C14S12871   6.034   5.429   5.299  0.1270 -0.8764 -0.3534
  122OSM   H14S12872   6.056   5.538   5.306  0.1248 -0.7958 -1.3882
  122OSM   H14T12873   5.932   5.398   5.268 -0.4522 -2.6591  2.9101
  122OSM   C15S12874   6.124   5.400   5.182  0.0933 -0.3782  0.6082
  122OSM   H15S12875   6.113   5.295   5.148 -1.2872 -0.4853  1.3201
  122OSM   H15T12876   6.230   5.414   5.213 -0.1726 -0.5768  1.6392
  122OSM   C16S12877   6.089   5.490   5.060 -0.1630  0.4989  0.3328
  122OSM   H16S12878   6.100   5.598   5.084  2.6190  0.8271 -1.8959
  122OSM   H16T12879   5.989   5.457   5.022  0.1575 -0.2067  0.1002
  122OSM   C17S12880   6.182   5.471   4.947  0.9094 -0.0052 -0.7608
  122OSM   H17S12881   6.281   5.512   4.978  0.5966  1.9111 -2.1079
  122OSM   H17T12882   6.148   5.531   4.860 -0.2988 -0.2505 -0.4766
  122OSM   C18S12883   6.209   5.324   4.906 -0.7256  0.2197  0.2375
  122OSM   H18S12884   6.289   5.286   4.973 -1.5568  1.8898  2.2978
  122OSM   H18T12885   6.239   5.311   4.800  0.2625 -0.5627  0.5962
  122OSM   H18U12886   6.118   5.266   4.934  0.9040 -1.8225  1.6502
  122OSM    C1F12887   6.183   4.814   6.398  0.9531 -1.1165  0.2415
  122OSM     OF12888   6.129   4.742   6.479 -0.0272  0.1142 -0.1138
  122OSM    C2F12889   6.243   4.775   6.264  0.4042 -0.4473 -0.3119
  122OSM    H2F12890   6.284   4.865   6.212  1.2148 -1.4398 -1.4519
  122OSM    H2G12891   6.150   4.760   6.205 -0.1211  3.2952 -0.7204
  122OSM    C3F12892   6.341   4.656   6.272 -0.5320 -1.0603 -0.2811
  122OSM    H3F12893   6.288   4.566   6.311  0.1271 -1.1641  0.3882
  122OSM    H3G12894   6.428   4.686   6.333  0.3194  1.6309 -2.5921
  122OSM    C4F12895   6.398   4.628   6.128  0.2353 -0.5127  0.0739
  122OSM    H4F12896   6.460   4.535   6.127  0.2484 -0.6117  2.7004
  122OSM    H4G12897   6.459   4.711   6.087  0.2220 -0.9684 -0.9238
  122OSM    C5F12898   6.288   4.607   6.024  0.2497 -0.0887  0.8432
  122OSM    H5F12899   6.231   4.702   6.014  0.7188  0.1722  0.6578
  122OSM    H5G12900   6.230   4.523   6.069  2.6733 -1.2914  1.9164
  122OSM    C6F12901   6.345   4.562   5.889  0.1765  0.1087 -0.7864
  122OSM    H6F12902   6.387   4.460   5.902  0.4438  0.3220  0.0963
  122OSM    H6G12903   6.423   4.638   5.863  1.2854 -0.5745  0.4224
  122OSM    C7F12904   6.250   4.561   5.770  0.3901 -0.6180  0.6051
  122OSM    H7F12905   6.175   4.641   5.783 -0.7810 -1.7499  1.0928
  122OSM    H7G12906   6.189   4.468   5.763  0.5185 -0.7307  0.9616
  122OSM    C8F12907   6.315   4.579   5.634  0.4482 -0.0338 -0.4802
  122OSM    H8F12908   6.384   4.666   5.634 -0.4523  0.7125 -1.3093
  122OSM    H8G12909   6.240   4.600   5.555  0.7168  0.0796 -0.7072
  122OSM    C9F12910   6.407   4.466   5.594 -0.0555 -0.2962  0.0710
  122OSM    H9F12911   6.486   4.441   5.668 -1.5367 -0.6332  1.6068
  122OSM   C10F12912   6.393   4.398   5.473 -0.0291 -0.4810  0.1544
  122OSM   H10F12913   6.467   4.318   5.457  0.5089 -0.0146  0.2758
  122OSM   C11F12914   6.298   4.416   5.361 -0.1327  0.4955  0.3626
  122OSM   H11F12915   6.277   4.525   5.351  1.0617  0.6281 -0.9559
  122OSM   H11G12916   6.200   4.366   5.377 -0.1188  0.1261 -0.6771
  122OSM   C12F12917   6.364   4.363   5.232 -0.4547 -0.8303  0.6555
  122OSM   H12F12918   6.411   4.264   5.251 -3.3827 -2.0929  1.8332
  122OSM   H12G12919   6.437   4.441   5.201  1.1066 -1.9385  1.3918
  122OSM   C13F12920   6.266   4.347   5.112 -0.2932  0.1410  0.2534
  122OSM   H13F12921   6.191   4.429   5.110  0.4002  0.7902  0.3924
  122OSM   H13G12922   6.231   4.242   5.122  0.8988 -0.2123  0.8852
  122OSM   C14F12923   6.325   4.358   4.968 -0.9121 -0.0515 -0.3962
  122OSM   H14F12924   6.393   4.272   4.952 -0.5713  0.2876 -0.7962
  122OSM   H14G12925   6.382   4.450   4.945 -0.5511 -0.8061 -2.8624
  122OSM   C15F12926   6.225   4.359   4.857 -0.1933 -0.3998  0.2773
  122OSM   H15F12927   6.158   4.446   4.876  0.8659  0.0670  2.0986
  122OSM   H15G12928   6.170   4.263   4.871 -0.1326 -0.6202 -0.8854
  122OSM   C16F12929   6.298   4.359   4.717 -0.0544  0.2499  0.0913
  122OSM   H16F12930   6.355   4.264   4.705  1.7724  1.4172 -0.9016
  122OSM   H16G12931   6.380   4.434   4.716 -0.2509  0.4597 -1.0702
  122OSM   C17F12932   6.196   4.397   4.598  0.5196 -0.2808  0.1226
  122OSM   H17F12933   6.153   4.495   4.628  0.8132  0.0078 -0.3896
  122OSM   H17G12934   6.106   4.335   4.581 -0.2329  0.5202  1.0005
  122OSM   C18F12935   6.247   4.410   4.461  0.2259 -0.2854  0.2150
  122OSM   H18F12936   6.256   4.309   4.415 -0.2133 -0.0962 -0.2945
  122OSM   H18G12937   6.348   4.455   4.472 -0.2943  1.1156 -0.4600
  122OSM   H18H12938   6.175   4.471   4.403  1.0090 -1.2555 -1.8683
  123OSM      N12939   2.648   3.526   1.901 -0.7926  0.2612 -0.0836
  123OSM    C1512940   2.593   3.410   1.975 -0.1739 -0.4821 -0.2750
  123OSM   H15A12941   2.506   3.441   2.031  0.1524 -2.2041  1.2740
  123OSM   H15B12942   2.658   3.365   2.048 -0.9940  0.6723  1.2208
  123OSM   H15C12943   2.559   3.336   1.904  0.4155  0.6154 -1.7490
  123OSM    C1412944   2.773   3.488   1.850  0.1328  0.2362 -0.1902
  123OSM   H14A12945   2.845   3.467   1.928  1.8302  2.2693 -1.0876
  123OSM   H14B12946   2.812   3.569   1.791 -1.9506  1.8173  0.4872
  123OSM   H14C12947   2.768   3.399   1.789 -0.8690 -2.5504  3.5997
  123OSM    C1312948   2.556   3.560   1.790  0.3790 -0.6265  0.2108
  123OSM   H13A12949   2.595   3.631   1.719  1.0090 -0.5448  0.6377
  123OSM   H13B12950   2.470   3.613   1.829 -1.4692 -1.4996 -2.3676
  123OSM   H13C12951   2.521   3.478   1.729  0.3503  0.5464 -1.3988
  123OSM    C1212952   2.658   3.636   2.004 -0.4506 -0.0425 -0.6689
  123OSM   H12A12953   2.681   3.729   1.955 -0.4698  1.3429  1.7799
  123OSM   H12B12954   2.742   3.612   2.068  0.1330  0.7444 -1.1372
  123OSM    C1112955   2.536   3.659   2.098 -0.0265  0.4923  0.2792
  123OSM   H11A12956   2.557   3.759   2.142 -1.2823  0.2670  1.4732
  123OSM   H11B12957   2.527   3.576   2.172  0.2758  0.7624  0.6208
  123OSM      P12958   2.272   3.637   2.093 -0.2377 -0.1986  0.0680
  123OSM    O1312959   2.162   3.714   2.020 -0.4803 -0.3847  0.2116
  123OSM    O1412960   2.261   3.491   2.118  0.0296 -0.3613  0.1361
  123OSM    O1112961   2.295   3.708   2.233  0.0827  0.1357  0.2938
  123OSM    O1212962   2.413   3.665   2.022 -0.5536  0.2380  0.1226
  123OSM    C1S12963   2.184   3.766   2.301  0.0998  0.3589 -0.2136
  123OSM    H1S12964   2.084   3.733   2.267  0.0189  0.9270 -0.5491
  123OSM    H1T12965   2.183   3.874   2.274 -0.1437  0.2859 -0.4975
  123OSM     NF12966   2.086   3.811   2.516  0.2574 -0.2810  0.8931
  123OSM    HNF12967   2.076   3.910   2.526  0.8564  0.1060 -1.6741
  123OSM    C2S12968   2.207   3.761   2.454 -0.7333  0.1642 -0.7242
  123OSM    H2S12969   2.220   3.655   2.485  1.3554  0.2827 -1.1021
  123OSM    C3S12970   2.340   3.841   2.499  0.3363 -0.4907 -0.4457
  123OSM    H3S12971   2.325   3.950   2.486  0.1946 -0.4008  0.4078
  123OSM     O312972   2.455   3.798   2.432  0.3749  0.8589  0.1483
  123OSM    HO312973   2.432   3.734   2.365  0.1321  0.3390  0.7181
  123OSM    C4S12974   2.368   3.805   2.643  0.3632 -0.1837  0.0102
  123OSM    H4S12975   2.430   3.715   2.658  1.4160  0.2070 -1.7697
  123OSM    C5S12976   2.319   3.872   2.754  0.0681 -0.2789  0.5606
  123OSM    H5S12977   2.247   3.953   2.733  0.1860 -0.1938  0.4847
  123OSM    C6S12978   2.342   3.842   2.900 -0.1729  0.1500  0.2979
  123OSM    H6S12979   2.241   3.825   2.942 -0.7761  2.3696 -0.1681
  123OSM    H6T12980   2.387   3.931   2.948 -0.0226 -0.1019  0.6332
  123OSM    C7S12981   2.414   3.712   2.945 -0.3704  0.8394 -0.0336
  123OSM    H7S12982   2.518   3.711   2.906 -1.8227 -1.6214 -4.5652
  123OSM    H7T12983   2.372   3.622   2.895 -0.1832  0.8222 -0.1637
  123OSM    C8S12984   2.422   3.687   3.094  0.0059 -0.6276  0.1709
  123OSM    H8S12985   2.319   3.670   3.133 -0.1568 -2.1573 -0.8553
  123OSM    H8T12986   2.464   3.775   3.147  0.2152  0.5892 -1.8947
  123OSM    C9S12987   2.503   3.561   3.125 -0.1313  0.3948  0.0119
  123OSM    H9S12988   2.598   3.583   3.071 -0.6345 -0.6805 -1.3353
  123OSM    H9T12989   2.453   3.479   3.071 -1.1215  1.1391 -0.2348
  123OSM   C10S12990   2.521   3.540   3.276 -0.5120 -0.6033  0.3369
  123OSM   H10S12991   2.419   3.548   3.317  0.2543  0.8351  2.1254
  123OSM   H10T12992   2.582   3.625   3.315  0.4151 -0.8804 -0.4470
  123OSM   C11S12993   2.569   3.394   3.310 -1.2294 -0.1776  0.2222
  123OSM   H11S12994   2.640   3.357   3.233 -1.8080 -0.9499  0.0483
  123OSM   H11T12995   2.480   3.327   3.305 -0.6758 -0.8802 -0.5540
  123OSM   C12S12996   2.649   3.386   3.433 -0.3031 -0.0027 -0.2853
  123OSM   H12S12997   2.734   3.457   3.422  0.1184 -0.4395  0.0869
  123OSM   H12T12998   2.696   3.285   3.434 -0.2287  0.0326  1.1271
  123OSM   C13S12999   2.580   3.381   3.566 -0.9663  0.9639 -0.1844
  123OSM   H13S13000   2.659   3.377   3.644  0.1752  0.3756 -1.3279
  123OSM   H13T13001   2.515   3.292   3.581 -0.4934  0.5347 -0.6240
  123OSM   C14S13002   2.489   3.500   3.597  0.4936 -0.0861  0.1580
  123OSM   H14S13003   2.410   3.502   3.519  0.2059  1.0314  0.4689
  123OSM   H14T13004   2.560   3.584   3.585  1.4340 -1.1655 -2.8423
  123OSM   C15S13005   2.427   3.486   3.736  0.1738 -1.0169 -0.0799
  123OSM   H15S13006   2.516   3.471   3.801  0.7229  0.9723 -0.2863
  123OSM   H15T13007   2.372   3.390   3.734  0.2703 -1.0723 -0.0739
  123OSM   C16S13008   2.337   3.604   3.778 -0.0162  0.1561 -0.3502
  123OSM   H16S13009   2.244   3.603   3.719 -0.5610 -2.0298  0.4688
  123OSM   H16T13010   2.398   3.692   3.748  1.1914 -0.6042 -0.1948
  123OSM   C17S13011   2.294   3.594   3.923  0.3195 -0.1865  0.2257
  123OSM   H17S13012   2.384   3.595   3.988  0.6156  1.5699 -0.1638
  123OSM   H17T13013   2.249   3.494   3.941 -1.0967  0.3042 -0.4608
  123OSM   C18S13014   2.190   3.697   3.961 -0.5154  0.3340 -0.0115
  123OSM   H18S13015   2.100   3.674   3.899 -0.3058 -0.9497  0.1354
  123OSM   H18T13016   2.223   3.799   3.933  2.4240 -1.0592 -2.1924
  123OSM   H18U13017   2.159   3.691   4.067 -1.6556 -1.3732 -0.3993
  123OSM    C1F13018   1.968   3.739   2.514  0.3399 -0.1404  0.3487
  123OSM     OF13019   1.963   3.625   2.475 -0.7129 -0.1434  0.0002
  123OSM    C2F13020   1.845   3.803   2.571 -0.0141 -0.1719  0.6755
  123OSM    H2F13021   1.763   3.780   2.500 -0.4594  1.1086  0.7451
  123OSM    H2G13022   1.858   3.913   2.580  1.5590 -0.3444  0.8535
  123OSM    C3F13023   1.816   3.745   2.709 -0.3708  0.3696  0.0032
  123OSM    H3F13024   1.786   3.638   2.715  0.4506  0.0926 -0.5059
  123OSM    H3G13025   1.722   3.797   2.736 -0.6338 -0.1805  0.1595
  123OSM    C4F13026   1.923   3.764   2.815  0.2859 -0.5306  0.1303
  123OSM    H4F13027   1.957   3.869   2.827  0.4304 -0.5379 -0.2034
  123OSM    H4G13028   2.015   3.702   2.803  0.6489  0.1591 -0.7763
  123OSM    C5F13029   1.854   3.745   2.957  0.3547 -0.2059  0.3909
  123OSM    H5F13030   1.807   3.644   2.950 -0.2668  0.0997  0.0044
  123OSM    H5G13031   1.761   3.805   2.968 -2.9752 -5.0936  2.1986
  123OSM    C6F13032   1.935   3.776   3.082 -0.4301 -0.2379 -0.1498
  123OSM    H6F13033   1.947   3.886   3.086  2.1970 -0.2585 -3.3081
  123OSM    H6G13034   2.037   3.732   3.073  0.1201  0.6348  1.4529
  123OSM    C7F13035   1.869   3.731   3.209 -0.5134  0.3972  0.1124
  123OSM    H7F13036   1.856   3.621   3.196 -0.6402  0.5038 -0.6911
  123OSM    H7G13037   1.768   3.773   3.228 -0.0461  1.2372  0.8195
  123OSM    C8F13038   1.952   3.743   3.336  0.5075  0.4473 -0.1564
  123OSM    H8F13039   1.964   3.852   3.354  0.6092  0.7899 -2.0753
  123OSM    H8G13040   2.054   3.699   3.325 -0.5982 -2.2426 -0.5421
  123OSM    C9F13041   1.880   3.670   3.447  0.3974  0.2053 -0.8379
  123OSM    H9F13042   1.860   3.565   3.419  2.8833 -0.2901 -0.9936
  123OSM   C10F13043   1.818   3.722   3.557 -0.3063  0.0182  0.1055
  123OSM   H10F13044   1.776   3.640   3.616  0.4125 -1.7837 -1.7626
  123OSM   C11F13045   1.815   3.862   3.605  0.3020  0.3261 -0.2055
  123OSM   H11F13046   1.706   3.881   3.611 -0.2053 -2.5459  1.3450
  123OSM   H11G13047   1.842   3.940   3.531 -0.3165 -0.0462 -0.8309
  123OSM   C12F13048   1.889   3.870   3.738 -0.8438 -0.6769  0.7986
  123OSM   H12F13049   1.982   3.811   3.739 -1.5308 -1.7914  2.3821
  123OSM   H12G13050   1.833   3.821   3.820  1.3136  0.6773  3.2107
  123OSM   C13F13051   1.924   4.018   3.780 -0.0275  0.5402 -0.5048
  123OSM   H13F13052   1.833   4.082   3.776 -0.8179 -0.2920  2.0632
  123OSM   H13G13053   1.989   4.060   3.700  1.5880 -0.4845  0.2435
  123OSM   C14F13054   1.992   4.036   3.919 -0.1064 -0.0188  0.4513
  123OSM   H14F13055   2.043   4.134   3.915  0.6518 -0.4545 -1.7762
  123OSM   H14G13056   2.065   3.956   3.942  2.3589  1.8443 -0.5184
  123OSM   C15F13057   1.893   4.055   4.035 -0.1735 -0.2207  0.4130
  123OSM   H15F13058   1.849   3.965   4.082 -0.0711 -0.9376 -0.8105
  123OSM   H15G13059   1.805   4.114   4.000  0.1845  1.3448  2.0150
  123OSM   C16F13060   1.969   4.122   4.154 -0.2404  0.0267  0.1476
  123OSM   H16F13061   2.056   4.063   4.191  0.8182  0.9300 -0.8326
  123OSM   H16G13062   1.891   4.115   4.233 -0.0439 -0.1744  0.3266
  123OSM   C17F13063   1.992   4.278   4.153 -0.6287  0.2833  0.1190
  123OSM   H17F13064   1.896   4.332   4.138 -0.3699  0.8852  0.6050
  123OSM   H17G13065   2.054   4.316   4.069  0.6381  0.5224  1.1327
  123OSM   C18F13066   2.034   4.330   4.292 -0.0424  0.0600 -0.7333
  123OSM   H18F13067   1.949   4.314   4.362 -0.0868  1.8303 -0.3240
  123OSM   H18G13068   2.047   4.440   4.284 -0.1302  0.1870  0.6399
  123OSM   H18H13069   2.133   4.288   4.321 -0.8487 -1.3939  0.0560
  124OSM      N13070   2.302   5.814   1.992  0.0717 -0.1392 -0.5254
  124OSM    C1513071   2.212   5.898   1.906 -0.3772  0.0055 -0.2374
  124OSM   H15A13072   2.280   5.960   1.850  2.6628 -1.0949  1.9466
  124OSM   H15B13073   2.154   5.967   1.964 -1.0676  0.0423 -0.9479
  124OSM   H15C13074   2.151   5.828   1.850 -0.6120 -1.5111  1.7893
  124OSM    C1413075   2.356   5.702   1.907 -0.4942  0.6760  0.8242
  124OSM   H14A13076   2.280   5.630   1.882 -0.5551  1.3243 -0.9986
  124OSM   H14B13077   2.441   5.653   1.953 -1.3908  0.4294  2.3003
  124OSM   H14C13078   2.390   5.747   1.815  0.2379 -0.9640  0.2600
  124OSM    C1313079   2.414   5.900   2.060 -0.1435  0.4568  0.0665
  124OSM   H13A13080   2.472   5.832   2.121 -2.8131  0.9441  3.4582
  124OSM   H13B13081   2.371   5.984   2.113 -1.4106  0.3756 -0.7904
  124OSM   H13C13082   2.470   5.938   1.975 -0.4314  2.2979  0.6608
  124OSM    C1213083   2.221   5.756   2.103 -0.0489 -0.8328 -0.2604
  124OSM   H12A13084   2.211   5.831   2.180  0.5376 -0.5296 -0.4797
  124OSM   H12B13085   2.271   5.676   2.156 -1.2015  0.0386  2.3299
  124OSM    C1113086   2.083   5.693   2.080  0.2469 -0.3311  0.0892
  124OSM   H11A13087   2.018   5.761   2.021  4.7734  1.4761 -3.3798
  124OSM   H11B13088   2.025   5.667   2.171 -0.4786 -0.4267 -0.3885
  124OSM      P13089   2.157   5.443   2.070 -0.3145  0.2273 -0.0230
  124OSM    O1313090   2.049   5.343   2.099 -0.6428 -0.0831 -0.1776
  124OSM    O1413091   2.265   5.404   1.981  0.1587  0.3623 -0.3022
  124OSM    O1113092   2.221   5.500   2.203 -0.0748  0.3059  0.6753
  124OSM    O1213093   2.093   5.568   2.006 -0.2807  0.0743  0.0536
  124OSM    C1S13094   2.354   5.465   2.242 -0.4719  0.0121  0.3191
  124OSM    H1S13095   2.428   5.535   2.199 -1.1684  0.7585  0.3031
  124OSM    H1T13096   2.376   5.360   2.212  1.2004  0.3094  0.4207
  124OSM     NF13097   2.495   5.447   2.428 -0.5590 -0.6218  0.3519
  124OSM    HNF13098   2.533   5.361   2.461 -0.9722 -1.5110 -1.4327
  124OSM    C2S13099   2.355   5.471   2.394 -0.0594  0.1000 -0.9500
  124OSM    H2S13100   2.321   5.571   2.428 -1.0295 -0.4581 -0.2179
  124OSM    C3S13101   2.254   5.361   2.456  0.3142 -0.1605 -0.5096
  124OSM    H3S13102   2.269   5.257   2.420 -1.2181  0.2494 -2.5432
  124OSM     O313103   2.119   5.368   2.417  0.3812 -0.3674 -0.2987
  124OSM    HO313104   2.126   5.433   2.347  1.6697  1.0430  1.0933
  124OSM    C4S13105   2.279   5.345   2.605 -0.0174 -0.1161  0.0858
  124OSM    H4S13106   2.348   5.264   2.634 -0.5466 -0.3212  0.8202
  124OSM    C5S13107   2.218   5.412   2.700  0.0611  0.6838  0.0220
  124OSM    H5S13108   2.145   5.487   2.666 -1.3739  0.1833  1.8569
  124OSM    C6S13109   2.240   5.405   2.852 -0.1186 -0.2579  0.2493
  124OSM    H6S13110   2.141   5.406   2.901 -0.1074  0.4115  0.2576
  124OSM    H6T13111   2.284   5.500   2.889 -1.1058 -0.7035  2.7535
  124OSM    C7S13112   2.317   5.290   2.918 -0.5685  0.1376  0.2256
  124OSM    H7S13113   2.421   5.307   2.882  0.4708 -3.8937  0.9003
  124OSM    H7T13114   2.286   5.192   2.878  0.0363 -0.4484  1.1461
  124OSM    C8S13115   2.308   5.299   3.071  0.0405 -0.4248 -0.3842
  124OSM    H8S13116   2.201   5.313   3.096 -0.0974  1.1697 -1.7273
  124OSM    H8T13117   2.356   5.397   3.092 -1.4862  0.3989 -0.6250
  124OSM    C9S13118   2.364   5.176   3.140  0.6902 -0.1694  0.1736
  124OSM    H9S13119   2.466   5.156   3.099  0.6487  0.8432 -0.4745
  124OSM    H9T13120   2.309   5.089   3.099  1.6716 -0.4549 -0.5861
  124OSM   C10S13121   2.373   5.186   3.292  0.1810  0.1695  0.2717
  124OSM   H10S13122   2.445   5.267   3.318 -1.0132  1.4283 -0.1744
  124OSM   H10T13123   2.406   5.088   3.333  1.1711  0.7171  0.8153
  124OSM   C11S13124   2.235   5.216   3.357  0.2209  0.3020  0.6490
  124OSM   H11S13125   2.160   5.146   3.316  0.4884 -0.2409  1.0822
  124OSM   H11T13126   2.199   5.317   3.327  0.5309  0.2948  0.2421
  124OSM   C12S13127   2.229   5.201   3.512  0.5248  0.5123  0.2303
  124OSM   H12S13128   2.310   5.262   3.556 -0.7646  3.4167 -1.1158
  124OSM   H12T13129   2.240   5.093   3.533 -1.1754  0.1234 -0.7046
  124OSM   C13S13130   2.101   5.263   3.572  0.4979  0.3611  0.8415
  124OSM   H13S13131   2.007   5.214   3.539 -0.5468  1.8843  1.4161
  124OSM   H13T13132   2.085   5.366   3.532  0.8473 -0.9637 -3.1382
  124OSM   C14S13133   2.102   5.276   3.720 -0.5143  0.4520 -0.0209
  124OSM   H14S13134   2.187   5.345   3.738 -1.0045  0.9237  0.5306
  124OSM   H14T13135   2.112   5.172   3.758  0.7265  0.5707  0.0183
  124OSM   C15S13136   1.976   5.345   3.767 -0.3453 -0.6019 -0.8049
  124OSM   H15S13137   1.899   5.267   3.782  0.8741 -1.9618 -1.4228
  124OSM   H15T13138   1.942   5.425   3.698 -0.0379 -1.0909 -1.5344
  124OSM   C16S13139   2.001   5.409   3.909  0.2188  1.0118 -0.5119
  124OSM   H16S13140   2.107   5.442   3.916  0.7263 -0.8574  2.2210
  124OSM   H16T13141   1.988   5.341   3.996 -0.6039  2.6020  0.6556
  124OSM   C17S13142   1.917   5.532   3.942 -0.0093  0.8324 -0.3169
  124OSM   H17S13143   1.925   5.566   4.047 -0.0125  1.4411 -0.5055
  124OSM   H17T13144   1.809   5.509   3.933  0.4209 -1.0417 -1.1780
  124OSM   C18S13145   1.947   5.657   3.855  0.4667 -0.4179  0.4597
  124OSM   H18S13146   2.027   5.721   3.897 -1.0240  1.6448  0.3269
  124OSM   H18T13147   1.859   5.725   3.858  0.9059  0.1731  0.0910
  124OSM   H18U13148   1.967   5.633   3.749 -2.2827 -0.9873 -0.0168
  124OSM    C1F13149   2.587   5.542   2.417 -0.6583 -1.1629  0.0389
  124OSM     OF13150   2.546   5.654   2.382  0.0145  0.8974  0.1833
  124OSM    C2F13151   2.730   5.519   2.450 -0.4857  0.4552  0.6213
  124OSM    H2F13152   2.776   5.474   2.360 -3.2639 -2.1825  0.3361
  124OSM    H2G13153   2.734   5.446   2.534  1.1159  2.2426  2.1776
  124OSM    C3F13154   2.804   5.647   2.489 -0.1557  0.0572 -0.2357
  124OSM    H3F13155   2.758   5.687   2.581  1.3926  0.8944  0.1979
  124OSM    H3G13156   2.791   5.723   2.409 -3.0478 -0.6063 -0.5137
  124OSM    C4F13157   2.952   5.630   2.526  0.6223 -0.0808  0.3690
  124OSM    H4F13158   3.001   5.609   2.428 -1.5710  0.0356 -0.8218
  124OSM    H4G13159   2.950   5.547   2.599  0.8736  1.2712  1.9699
  124OSM    C5F13160   3.027   5.749   2.593 -0.1848  0.0145 -0.0992
  124OSM    H5F13161   3.000   5.837   2.530  0.0652 -1.3615 -2.2657
  124OSM    H5G13162   3.136   5.728   2.587  0.1189  1.5018 -0.2964
  124OSM    C6F13163   2.973   5.765   2.731  0.2017 -0.4943 -0.1921
  124OSM    H6F13164   2.862   5.761   2.734  0.2162 -0.4305  2.6150
  124OSM    H6G13165   3.002   5.867   2.765 -2.2679 -0.4601  2.0947
  124OSM    C7F13166   3.029   5.663   2.830 -0.4735  0.1115 -0.1840
  124OSM    H7F13167   3.138   5.640   2.821 -0.4625 -0.0626  0.3139
  124OSM    H7G13168   3.001   5.563   2.790  1.2262  0.6242 -2.8950
  124OSM    C8F13169   2.968   5.672   2.970  0.1953  0.0009  0.4155
  124OSM    H8F13170   2.864   5.710   2.965  0.3221  0.2866 -0.1713
  124OSM    H8G13171   3.014   5.755   3.028 -1.1877  0.0713  1.4626
  124OSM    C9F13172   2.981   5.538   3.045 -0.1124 -0.0377 -0.1658
  124OSM    H9F13173   2.944   5.449   2.993  0.6583 -0.1272 -0.5820
  124OSM   C10F13174   3.041   5.519   3.165 -0.5445 -0.3526  0.0728
  124OSM   H10F13175   3.039   5.415   3.200 -2.3563 -0.2529  0.3223
  124OSM   C11F13176   3.124   5.620   3.244  0.5593  0.6095 -0.3768
  124OSM   H11F13177   3.146   5.695   3.165  0.4421  0.6647 -0.3580
  124OSM   H11G13178   3.219   5.581   3.285 -0.4556  0.9261  2.4904
  124OSM   C12F13179   3.046   5.679   3.355  0.0402  0.6628 -0.2464
  124OSM   H12F13180   2.952   5.727   3.322  1.2360  1.8487 -2.0667
  124OSM   H12G13181   3.105   5.764   3.396  2.3735 -0.7575 -0.4446
  124OSM   C13F13182   3.011   5.571   3.466  0.0710 -0.2688  0.2073
  124OSM   H13F13183   3.101   5.507   3.479 -0.5884 -1.1071  0.7338
  124OSM   H13G13184   2.929   5.506   3.428  0.9621  0.1684 -2.7110
  124OSM   C14F13185   2.969   5.635   3.604  0.8106 -0.2766 -0.1940
  124OSM   H14F13186   2.864   5.668   3.591  1.0532  0.4945 -0.2703
  124OSM   H14G13187   3.033   5.726   3.613  0.5936 -0.2526  1.4070
  124OSM   C15F13188   2.973   5.533   3.724 -0.7210  0.4833 -0.2000
  124OSM   H15F13189   3.077   5.502   3.750 -1.0831  0.5358  1.4062
  124OSM   H15G13190   2.919   5.443   3.686 -1.0864  0.7059 -0.2068
  124OSM   C16F13191   2.905   5.573   3.862  0.3743  0.6324 -0.3943
  124OSM   H16F13192   2.804   5.610   3.833 -0.2577  0.4780  1.5299
  124OSM   H16G13193   2.955   5.665   3.898 -0.2662  0.9986 -0.4245
  124OSM   C17F13194   2.893   5.455   3.959  0.2764  0.0760 -0.1742
  124OSM   H17F13195   2.899   5.349   3.925  1.6787 -0.1807  0.7763
  124OSM   H17G13196   2.795   5.459   4.011 -1.8195 -0.2085 -3.7427
  124OSM   C18F13197   2.997   5.469   4.074  0.4350 -0.2497  0.0242
  124OSM   H18F13198   2.985   5.565   4.128  1.3617  0.2050 -0.5425
  124OSM   H18G13199   3.097   5.463   4.025 -0.1575 -0.2154 -1.2265
  124OSM   H18H13200   2.997   5.378   4.137 -2.8832 -0.6509 -0.3954
  125OSM      N13201   3.577   1.420   1.997  0.6242 -0.0972 -0.1674
  125OSM    C1513202   3.541   1.496   1.877  0.7851 -0.1416  0.1362
  125OSM   H15A13203   3.594   1.452   1.794  1.4583 -1.0893  1.0323
  125OSM   H15B13204   3.566   1.600   1.886 -0.7009  0.1495  1.5509
  125OSM   H15C13205   3.434   1.487   1.862  0.7517  2.4191 -1.6609
  125OSM    C1413206   3.522   1.283   1.986  0.3336  0.0710  0.8896
  125OSM   H14A13207   3.548   1.221   2.070  2.7992  0.7293  0.6717
  125OSM   H14B13208   3.564   1.233   1.900 -0.7198 -0.4579  0.6637
  125OSM   H14C13209   3.414   1.279   1.982  0.3527 -0.1468  0.4529
  125OSM    C1313210   3.730   1.394   2.000  0.2880  0.1480 -0.9485
  125OSM   H13A13211   3.784   1.483   1.974  0.6077  0.6550  1.1987
  125OSM   H13B13212   3.758   1.316   1.931  0.0553 -0.4368 -0.4009
  125OSM   H13C13213   3.758   1.356   2.098  0.5674 -3.4407 -2.2705
  125OSM    C1213214   3.539   1.488   2.124  0.3624 -0.1649 -0.1633
  125OSM   H12A13215   3.593   1.444   2.206 -0.7654  0.6368  1.0564
  125OSM   H12B13216   3.432   1.475   2.137  0.6788 -0.9574  1.9277
  125OSM    C1113217   3.574   1.644   2.145  0.0148  0.1092  0.7581
  125OSM   H11A13218   3.560   1.666   2.254  0.3264  0.0723  0.8074
  125OSM   H11B13219   3.496   1.693   2.083  2.1935 -0.3639 -2.5531
  125OSM      P13220   3.742   1.824   2.098  0.2436 -0.3777  0.0765
  125OSM    O1313221   3.886   1.850   2.084 -0.2154  0.5180 -0.1605
  125OSM    O1413222   3.659   1.884   1.994 -0.0716 -0.5950 -0.5212
  125OSM    O1113223   3.696   1.875   2.239  0.0031 -0.1126  0.1439
  125OSM    O1213224   3.706   1.675   2.103  0.3644 -0.3595 -0.7819
  125OSM    C1S13225   3.593   1.975   2.261  0.7880 -0.6820 -0.0998
  125OSM    H1S13226   3.507   1.953   2.194  0.5232 -2.5351  0.7870
  125OSM    H1T13227   3.636   2.076   2.249  0.4582 -0.5594 -0.2575
  125OSM     NF13228   3.445   2.087   2.418  0.0504 -0.1231  0.9020
  125OSM    HNF13229   3.466   2.177   2.456  1.7736  0.4071 -1.1023
  125OSM    C2S13230   3.545   1.981   2.411  0.2522  0.3049  0.1002
  125OSM    H2S13231   3.500   1.883   2.437  1.5338 -0.5936 -0.9947
  125OSM    C3S13232   3.664   1.997   2.500 -0.2692 -0.5066  0.0126
  125OSM    H3S13233   3.718   2.094   2.490  0.5022 -0.9393 -0.1484
  125OSM     O313234   3.764   1.899   2.485 -0.3901  0.2264 -0.4548
  125OSM    HO313235   3.741   1.852   2.404  0.5656 -1.1699  0.0527
  125OSM    C4S13236   3.616   1.979   2.637  0.4526  0.0645 -0.3253
  125OSM    H4S13237   3.558   1.888   2.657  0.3377  0.5082  1.4819
  125OSM    C5S13238   3.638   2.060   2.740 -0.3523  0.0852  0.3249
  125OSM    H5S13239   3.691   2.155   2.727  0.5245 -0.6064 -1.5129
  125OSM    C6S13240   3.584   2.025   2.877  0.1619  0.1938 -0.3690
  125OSM    H6S13241   3.514   1.939   2.883  0.7771 -0.2320  1.5656
  125OSM    H6T13242   3.539   2.121   2.908 -0.0440  0.8603 -2.5899
  125OSM    C7S13243   3.692   2.005   2.983 -0.2087  0.3095 -0.0607
  125OSM    H7S13244   3.761   2.092   2.993 -0.3128  0.5670 -1.4779
  125OSM    H7T13245   3.757   1.918   2.959 -2.2480 -1.2130 -0.2293
  125OSM    C8S13246   3.631   1.981   3.126 -0.4301  0.4195  0.0152
  125OSM    H8S13247   3.705   1.936   3.197  0.3322 -0.2536 -1.1690
  125OSM    H8T13248   3.541   1.916   3.122 -0.0969  0.0086 -1.1605
  125OSM    C9S13249   3.583   2.112   3.197 -0.1814 -0.1013 -0.3440
  125OSM    H9S13250   3.493   2.151   3.145  1.9580  2.2268 -2.5699
  125OSM    H9T13251   3.652   2.197   3.178  0.3435  0.2148  2.4560
  125OSM   C10S13252   3.556   2.101   3.347 -0.7808 -0.7313 -0.7223
  125OSM   H10S13253   3.654   2.081   3.396 -0.1778  0.5478 -1.3683
  125OSM   H10T13254   3.488   2.013   3.354 -0.0016 -1.4185 -1.5070
  125OSM   C11S13255   3.492   2.224   3.423  0.1214 -0.2075  0.5582
  125OSM   H11S13256   3.382   2.216   3.420  0.0080 -1.4518  3.9953
  125OSM   H11T13257   3.534   2.310   3.367  2.2356 -0.5787  1.4844
  125OSM   C12S13258   3.510   2.241   3.571  0.6997  1.0868  0.7674
  125OSM   H12S13259   3.417   2.290   3.608 -0.0856  0.6157 -0.4852
  125OSM   H12T13260   3.595   2.308   3.595  1.5845 -0.5915  2.6322
  125OSM   C13S13261   3.525   2.115   3.659 -0.4490  0.6282  0.2261
  125OSM   H13S13262   3.621   2.063   3.644  0.9491  2.4712  2.1546
  125OSM   H13T13263   3.443   2.046   3.629  0.3354 -0.8816  1.4208
  125OSM   C14S13264   3.505   2.130   3.815 -0.0155 -0.2588 -0.0054
  125OSM   H14S13265   3.405   2.178   3.819  0.0979 -0.0155 -0.0627
  125OSM   H14T13266   3.595   2.184   3.851 -0.0451  0.5862 -1.1630
  125OSM   C15S13267   3.492   1.994   3.881  1.2575  0.2385 -0.2032
  125OSM   H15S13268   3.587   1.944   3.854  0.9191  0.6031 -2.2447
  125OSM   H15T13269   3.415   1.934   3.828  0.9008  0.8068 -0.3413
  125OSM   C16S13270   3.462   2.001   4.041  0.3066 -0.6057  0.4928
  125OSM   H16S13271   3.372   2.064   4.059  0.1526 -1.5850  3.9536
  125OSM   H16T13272   3.548   2.057   4.082 -0.4190 -0.6366  2.1640
  125OSM   C17S13273   3.461   1.861   4.104 -0.5998  0.5301  0.0290
  125OSM   H17S13274   3.559   1.810   4.118 -1.5457 -1.0630  1.2324
  125OSM   H17T13275   3.407   1.789   4.040  0.3635 -0.1755 -0.0156
  125OSM   C18S13276   3.391   1.875   4.237  0.7398  0.4851 -0.2284
  125OSM   H18S13277   3.440   1.807   4.309  1.2124  0.8024 -0.2493
  125OSM   H18T13278   3.280   1.867   4.229  0.3842  1.0743  2.9664
  125OSM   H18U13279   3.405   1.982   4.260  0.0637  1.2215 -2.8328
  125OSM    C1F13280   3.319   2.063   2.375 -0.5072 -0.1179 -0.0565
  125OSM     OF13281   3.283   1.953   2.336 -0.0018  0.7446 -0.1001
  125OSM    C2F13282   3.228   2.175   2.381  0.3943  0.1416  0.1875
  125OSM    H2F13283   3.205   2.209   2.278  2.2772 -0.0827 -0.3526
  125OSM    H2G13284   3.286   2.262   2.420 -2.0766  1.5130  0.9781
  125OSM    C3F13285   3.109   2.138   2.473  0.1957  0.1943  0.7174
  125OSM    H3F13286   3.043   2.051   2.454  2.1243 -1.2101  0.2109
  125OSM    H3G13287   3.049   2.231   2.476  0.7166  0.5496  0.3215
  125OSM    C4F13288   3.154   2.104   2.610 -1.3620 -0.7405 -0.0489
  125OSM    H4F13289   3.230   2.184   2.621 -1.5104 -0.5958 -0.0800
  125OSM    H4G13290   3.208   2.007   2.612  2.0619  1.0364  0.1848
  125OSM    C5F13291   3.059   2.115   2.722 -0.3118 -0.4239 -0.6173
  125OSM    H5F13292   2.968   2.051   2.712  0.5391 -1.5119 -1.7287
  125OSM    H5G13293   3.021   2.219   2.733 -0.1404 -0.2296 -1.7411
  125OSM    C6F13294   3.130   2.082   2.854  0.0522  0.5274  0.1220
  125OSM    H6F13295   3.222   2.141   2.872  1.5149 -1.2924 -0.9485
  125OSM    H6G13296   3.173   1.981   2.834  0.9559  0.4100  2.4128
  125OSM    C7F13297   3.040   2.100   2.979  0.9069 -0.6670  0.4358
  125OSM    H7F13298   2.952   2.033   2.970  0.6198 -0.2555  0.1589
  125OSM    H7G13299   3.008   2.206   2.985 -1.0223 -1.1781 -0.1338
  125OSM    C8F13300   3.110   2.048   3.108  0.0083  0.0463  0.5024
  125OSM    H8F13301   3.153   2.140   3.153  0.4088  0.0720  0.0636
  125OSM    H8G13302   3.181   1.968   3.078 -0.1274 -0.6110  1.8380
  125OSM    C9F13303   3.012   1.996   3.203  0.4320 -0.1731 -0.0838
  125OSM    H9F13304   2.913   1.967   3.166  0.6776 -0.8731 -0.2037
  125OSM   C10F13305   3.021   1.996   3.338  0.8177 -0.0875  0.0073
  125OSM   H10F13306   2.935   1.950   3.389  0.7620 -2.3151 -1.9276
  125OSM   C11F13307   3.142   2.036   3.415  0.4293  0.0298  0.1344
  125OSM   H11F13308   3.221   2.079   3.350  1.4011  1.2460  2.0223
  125OSM   H11G13309   3.189   1.949   3.464 -0.3749 -0.5187 -0.0428
  125OSM   C12F13310   3.102   2.147   3.520  0.6831 -0.8588  0.1743
  125OSM   H12F13311   3.071   2.234   3.459  0.2086 -1.5728 -0.6233
  125OSM   H12G13312   3.189   2.176   3.583 -0.0656 -0.0471  0.8682
  125OSM   C13F13313   2.990   2.096   3.613 -0.1525  0.4829  0.0788
  125OSM   H13F13314   3.011   1.991   3.641  0.7994  0.9560  1.2182
  125OSM   H13G13315   2.888   2.090   3.569 -2.0717  1.4335  4.0160
  125OSM   C14F13316   2.982   2.178   3.737  0.1834 -0.8146 -0.0024
  125OSM   H14F13317   2.982   2.284   3.705 -2.6727 -0.7947 -0.1637
  125OSM   H14G13318   3.077   2.148   3.787 -0.7321 -0.6844  1.8566
  125OSM   C15F13319   2.861   2.161   3.829 -0.6431 -0.2171  1.0643
  125OSM   H15F13320   2.880   2.059   3.869  1.7415 -0.0953  0.4463
  125OSM   H15G13321   2.765   2.168   3.774  0.2024  1.4001 -0.2853
  125OSM   C16F13322   2.864   2.269   3.942 -0.3500  0.5520 -0.4510
  125OSM   H16F13323   2.780   2.253   4.013  1.3651 -0.7739  1.3601
  125OSM   H16G13324   2.843   2.365   3.889  1.3890  0.5088 -1.2884
  125OSM   C17F13325   2.994   2.287   4.021  0.2923  0.0202  0.3660
  125OSM   H17F13326   3.054   2.195   4.002 -0.0721 -0.0654 -0.3853
  125OSM   H17G13327   2.974   2.292   4.130  4.2572 -0.6909  1.2729
  125OSM   C18F13328   3.078   2.405   3.966 -0.1030  0.6362  0.5109
  125OSM   H18F13329   3.166   2.414   4.032 -1.4299  0.2252  2.4075
  125OSM   H18G13330   3.027   2.503   3.971  1.8125  1.8899 -2.0243
  125OSM   H18H13331   3.109   2.385   3.861 -0.4182  0.7374  0.3982
  126OSM      N13332   1.305   2.325   1.591 -0.1883  0.0685 -0.0234
  126OSM    C1513333   1.420   2.414   1.546  0.1060 -0.3787 -0.4280
  126OSM   H15A13334   1.516   2.381   1.584  1.2941  1.6240 -1.5213
  126OSM   H15B13335   1.405   2.516   1.578 -1.6560  0.0556 -2.4454
  126OSM   H15C13336   1.417   2.421   1.439 -1.8969 -0.3457 -0.4146
  126OSM    C1413337   1.180   2.399   1.570  0.4109  0.2865  0.9226
  126OSM   H14A13338   1.157   2.404   1.465  3.5626  1.3732  0.1467
  126OSM   H14B13339   1.187   2.499   1.610 -0.6526  0.9895 -0.5455
  126OSM   H14C13340   1.100   2.353   1.625  0.9651 -2.3921 -0.3456
  126OSM    C1313341   1.318   2.198   1.505 -0.6860 -0.4230  0.1192
  126OSM   H13A13342   1.233   2.132   1.505 -0.6966 -0.4392  1.3933
  126OSM   H13B13343   1.406   2.149   1.545 -1.3821  0.1069  2.4436
  126OSM   H13C13344   1.341   2.219   1.402  1.0698 -1.3027  0.2859
  126OSM    C1213345   1.310   2.289   1.738  0.1601  0.5021  0.3576
  126OSM   H12A13346   1.217   2.239   1.761  1.2710 -0.5697  3.0024
  126OSM   H12B13347   1.306   2.373   1.806  0.3156 -0.0985  1.1252
  126OSM    C1113348   1.417   2.192   1.785 -0.0447  0.7443 -0.4188
  126OSM   H11A13349   1.418   2.097   1.726  2.5116  0.7732 -0.5202
  126OSM   H11B13350   1.382   2.158   1.885 -0.0354 -2.1116 -1.2803
  126OSM      P13351   1.591   2.344   1.889 -0.2575 -0.3584  0.2058
  126OSM    O1313352   1.718   2.394   1.836 -0.2405  0.5443 -0.8427
  126OSM    O1413353   1.485   2.447   1.911 -0.0914 -0.0859 -0.5050
  126OSM    O1113354   1.616   2.259   2.023  0.3783 -0.3792  0.1741
  126OSM    O1213355   1.549   2.237   1.781  0.5694 -0.1823  0.0143
  126OSM    C1S13356   1.692   2.306   2.133 -0.4922  0.2387  0.1647
  126OSM    H1S13357   1.707   2.416   2.126  1.7224  0.0433  1.1700
  126OSM    H1T13358   1.790   2.255   2.130 -0.8571 -0.4383 -1.8590
  126OSM     NF13359   1.688   2.324   2.378  0.0331  0.4000 -0.2957
  126OSM    HNF13360   1.755   2.268   2.425  0.1179  2.5535  2.3843
  126OSM    C2S13361   1.625   2.259   2.263  0.6094 -0.1664  0.3991
  126OSM    H2S13362   1.520   2.295   2.254  0.5445 -0.6669 -1.2214
  126OSM    C3S13363   1.608   2.101   2.258 -0.3234 -0.4044 -0.5356
  126OSM    H3S13364   1.710   2.064   2.234 -0.3096 -0.4989 -0.3324
  126OSM     O313365   1.534   2.039   2.151  0.2436  0.5128 -0.2409
  126OSM    HO313366   1.515   2.108   2.087 -0.4699 -0.4369 -1.0875
  126OSM    C4S13367   1.583   2.038   2.397 -0.0763  0.6834  0.2881
  126OSM    H4S13368   1.681   2.028   2.446  1.3082 -0.0924 -2.4593
  126OSM    C5S13369   1.473   2.019   2.472  0.0462  0.3005 -0.3602
  126OSM    H5S13370   1.377   2.052   2.429  0.5113  0.1858 -1.5467
  126OSM    C6S13371   1.476   1.990   2.620  0.7704  0.5166  0.0024
  126OSM    H6S13372   1.477   1.881   2.643  0.3658  1.1874  3.9490
  126OSM    H6T13373   1.381   2.031   2.660 -0.0114  1.8140 -2.9207
  126OSM    C7S13374   1.595   2.048   2.700 -0.2930 -0.1779  0.2022
  126OSM    H7S13375   1.578   2.158   2.690 -2.8485 -0.6466 -1.5394
  126OSM    H7T13376   1.688   2.012   2.652 -1.0157 -0.8612 -0.7083
  126OSM    C8S13377   1.597   2.015   2.846  0.9392  0.1440  0.6582
  126OSM    H8S13378   1.589   1.905   2.857  0.9842 -0.1541 -1.7402
  126OSM    H8T13379   1.513   2.054   2.908  1.7968 -0.3601  2.1826
  126OSM    C9S13380   1.715   2.086   2.914 -0.0707  0.3584 -0.4058
  126OSM    H9S13381   1.702   2.196   2.914  2.4149  0.7487  1.3989
  126OSM    H9T13382   1.817   2.075   2.870  0.4610  1.8062  0.4031
  126OSM   C10S13383   1.712   2.050   3.059 -0.1386  0.2608 -0.2124
  126OSM   H10S13384   1.731   1.941   3.061 -1.4238 -0.0161 -1.4497
  126OSM   H10T13385   1.614   2.072   3.107  0.5184 -1.4409  2.0982
  126OSM   C11S13386   1.823   2.121   3.126 -0.7863 -0.3986 -0.5807
  126OSM   H11S13387   1.807   2.231   3.115  0.6340 -0.2128 -0.9920
  126OSM   H11T13388   1.919   2.104   3.074 -0.2735  1.7736 -0.4636
  126OSM   C12S13389   1.827   2.081   3.275 -0.3201  0.3574 -0.5304
  126OSM   H12S13390   1.865   1.977   3.276 -2.3172 -0.4727 -2.3161
  126OSM   H12T13391   1.719   2.086   3.302  0.0555 -0.1260  1.1530
  126OSM   C13S13392   1.922   2.170   3.367 -0.2249  0.0409  0.2380
  126OSM   H13S13393   1.912   2.278   3.343  2.0053  0.2371 -0.0203
  126OSM   H13T13394   2.029   2.154   3.342 -0.0376  1.5497 -0.0662
  126OSM   C14S13395   1.900   2.147   3.522  0.1858 -0.0111 -0.7255
  126OSM   H14S13396   1.909   2.039   3.547  0.0772 -0.3916 -2.2110
  126OSM   H14T13397   1.803   2.186   3.559  0.6011  1.7463 -1.3640
  126OSM   C15S13398   2.013   2.215   3.603 -0.5640  0.1150  0.0007
  126OSM   H15S13399   2.026   2.320   3.568 -1.2243  0.4502  0.7491
  126OSM   H15T13400   2.104   2.158   3.572 -1.2489 -0.5559 -0.8229
  126OSM   C16S13401   2.009   2.212   3.756  0.3021 -0.7879  0.8305
  126OSM   H16S13402   1.996   2.106   3.788  1.1242 -1.0544  0.2982
  126OSM   H16T13403   1.926   2.279   3.788  0.9690  0.3382  0.2953
  126OSM   C17S13404   2.140   2.272   3.810 -0.5307 -0.0415  0.6717
  126OSM   H17S13405   2.141   2.383   3.803  1.7361 -0.1093 -1.2820
  126OSM   H17T13406   2.227   2.231   3.754  0.3132  1.4030  0.8885
  126OSM   C18S13407   2.151   2.227   3.958 -0.2031  0.2029  0.0374
  126OSM   H18S13408   2.063   2.269   4.012 -0.1170 -0.3015  0.5805
  126OSM   H18T13409   2.248   2.246   4.009 -0.9722  1.7739  1.0153
  126OSM   H18U13410   2.132   2.118   3.951 -0.7011  0.3414 -0.8783
  126OSM    C1F13411   1.697   2.452   2.406 -0.2574 -0.3133  0.8323
  126OSM     OF13412   1.623   2.528   2.351 -0.6742 -0.0200  0.1600
  126OSM    C2F13413   1.796   2.501   2.502  0.0104 -0.5104 -0.1503
  126OSM    H2F13414   1.893   2.453   2.477  1.1697  1.8949 -0.5985
  126OSM    H2G13415   1.766   2.466   2.604  0.3612 -1.6565 -0.4219
  126OSM    C3F13416   1.808   2.655   2.514  0.5332  0.1348 -0.1584
  126OSM    H3F13417   1.707   2.701   2.513  0.5892  0.2511 -0.8470
  126OSM    H3G13418   1.875   2.690   2.433 -0.2794  1.3472 -0.3359
  126OSM    C4F13419   1.862   2.687   2.656 -0.4420  0.7260 -0.0105
  126OSM    H4F13420   1.943   2.616   2.682 -1.5758 -0.6619 -0.1918
  126OSM    H4G13421   1.785   2.669   2.733 -0.1798 -0.1468  0.0600
  126OSM    C5F13422   1.912   2.827   2.686 -0.4270 -0.4950 -0.0188
  126OSM    H5F13423   1.832   2.902   2.667 -0.7168 -1.0750 -1.1454
  126OSM    H5G13424   1.984   2.847   2.603 -1.1293  0.0658 -0.5106
  126OSM    C6F13425   1.971   2.869   2.824 -0.3212 -0.2591  0.0987
  126OSM    H6F13426   1.999   2.975   2.808  0.5531 -0.6743 -1.2896
  126OSM    H6G13427   2.059   2.808   2.855  1.0208  1.6710  0.2291
  126OSM    C7F13428   1.869   2.868   2.937 -0.7793  0.5129 -0.7505
  126OSM    H7F13429   1.820   2.768   2.935  0.7668 -0.2681 -0.6822
  126OSM    H7G13430   1.788   2.942   2.922 -1.3896 -0.1412 -0.7495
  126OSM    C8F13431   1.958   2.884   3.066 -0.2599 -0.1883 -0.1824
  126OSM    H8F13432   1.987   2.991   3.069 -1.0944  0.0860 -1.2206
  126OSM    H8G13433   2.052   2.825   3.063 -1.1243 -1.7248  0.9608
  126OSM    C9F13434   1.883   2.846   3.194  0.1882  0.3904  0.0836
  126OSM    H9F13435   1.883   2.736   3.203 -0.6965  0.3889  0.2220
  126OSM   C10F13436   1.820   2.912   3.289 -0.6125 -0.5227 -0.4427
  126OSM   H10F13437   1.759   2.860   3.364 -3.7833 -0.6307 -2.8678
  126OSM   C11F13438   1.823   3.066   3.297 -0.1920  0.0271 -0.0087
  126OSM   H11F13439   1.924   3.101   3.325 -0.5288  0.8320  0.2353
  126OSM   H11G13440   1.760   3.105   3.381  0.8482  1.7527  0.0169
  126OSM   C12F13441   1.784   3.147   3.166 -0.1260 -0.1422  0.0605
  126OSM   H12F13442   1.692   3.105   3.121  0.8977 -0.1224 -2.2051
  126OSM   H12G13443   1.868   3.150   3.093 -1.1433 -0.6328 -1.1740
  126OSM   C13F13444   1.745   3.295   3.205 -0.3222 -0.6743 -0.2171
  126OSM   H13F13445   1.762   3.357   3.115 -1.2739  0.9663  0.6851
  126OSM   H13G13446   1.818   3.329   3.282 -0.8591 -0.4626  0.2071
  126OSM   C14F13447   1.600   3.310   3.261 -0.4387  0.8324 -0.3020
  126OSM   H14F13448   1.585   3.266   3.362 -2.0255  2.1315  0.0684
  126OSM   H14G13449   1.517   3.275   3.197 -0.0726  1.5501 -1.1899
  126OSM   C15F13450   1.563   3.454   3.280 -0.5469  0.0734 -0.1048
  126OSM   H15F13451   1.639   3.512   3.337  0.5473 -1.0241 -0.4159
  126OSM   H15G13452   1.470   3.456   3.341  0.5895  1.6331  1.6917
  126OSM   C16F13453   1.541   3.536   3.148  0.8686 -0.3850 -0.3377
  126OSM   H16F13454   1.469   3.485   3.080 -0.5723 -1.7459  2.0950
  126OSM   H16G13455   1.637   3.531   3.091 -0.4038 -0.4611 -2.5707
  126OSM   C17F13456   1.492   3.679   3.170  0.6869 -0.7417 -0.5399
  126OSM   H17F13457   1.483   3.741   3.078 -1.2726  1.5976  1.0891
  126OSM   H17G13458   1.580   3.719   3.224  0.4471 -0.7668 -0.1269
  126OSM   C18F13459   1.360   3.684   3.244  0.6178 -0.3790 -0.3662
  126OSM   H18F13460   1.372   3.654   3.351 -2.9817  0.8627  0.5644
  126OSM   H18G13461   1.279   3.623   3.198 -0.3967  1.3536 -0.9792
  126OSM   H18H13462   1.338   3.793   3.235  0.3587 -0.0998  2.5023
  127OSM      N13463   1.880   4.773   2.119  0.0931 -0.1007  0.0212
  127OSM    C1513464   1.857   4.916   2.072  0.5569  0.7487 -0.0069
  127OSM   H15A13465   1.758   4.933   2.033 -0.0350 -0.4296  0.9006
  127OSM   H15B13466   1.925   4.940   1.992  1.6983 -1.9193  0.0526
  127OSM   H15C13467   1.866   4.981   2.158 -1.4369  0.9100  0.1409
  127OSM    C1413468   1.890   4.692   1.989 -0.3726 -0.5697 -1.0848
  127OSM   H14A13469   1.955   4.747   1.921 -0.4936 -1.0723 -1.6145
  127OSM   H14B13470   1.794   4.678   1.943  0.1376 -0.0495 -2.3630
  127OSM   H14C13471   1.932   4.595   2.009 -3.1522 -1.5888  0.2458
  127OSM    C1313472   2.014   4.777   2.186 -1.1851  0.1398  0.1892
  127OSM   H13A13473   2.047   4.681   2.221 -1.7062 -0.4965 -1.0327
  127OSM   H13B13474   2.008   4.848   2.268 -2.2797 -1.0936  1.2258
  127OSM   H13C13475   2.091   4.824   2.126 -0.4731  1.7394  2.2157
  127OSM    C1213476   1.780   4.709   2.208 -0.2106 -0.5012  0.2601
  127OSM   H12A13477   1.783   4.753   2.307 -0.6502  0.2912 -0.0635
  127OSM   H12B13478   1.809   4.606   2.217 -0.9603 -1.0791 -2.8747
  127OSM    C1113479   1.627   4.696   2.168  0.1363 -0.4233  1.0665
  127OSM   H11A13480   1.599   4.800   2.142 -0.3901 -0.7119  0.4712
  127OSM   H11B13481   1.556   4.670   2.249 -1.2535  1.9962  0.7198
  127OSM      P13482   1.650   4.472   2.036  0.1057  0.1864 -0.2831
  127OSM    O1313483   1.629   4.431   1.893  0.1192  0.1333 -0.4691
  127OSM    O1413484   1.787   4.446   2.093  0.0494 -0.0793 -0.7001
  127OSM    O1113485   1.538   4.408   2.121  0.1957 -0.0814 -0.5234
  127OSM    O1213486   1.616   4.626   2.048 -0.6149 -0.0029  0.2836
  127OSM    C1S13487   1.554   4.313   2.232  0.3024 -0.7586 -0.1204
  127OSM    H1S13488   1.654   4.266   2.241  0.1977 -0.7921  0.9336
  127OSM    H1T13489   1.484   4.230   2.214  0.7173 -0.7022 -2.3692
  127OSM     NF13490   1.549   4.285   2.480  0.0066  0.4993 -0.0744
  127OSM    HNF13491   1.473   4.228   2.512  0.2369 -0.9812 -1.9645
  127OSM    C2S13492   1.512   4.371   2.374  0.2192 -0.8682  0.9294
  127OSM    H2S13493   1.564   4.468   2.389  0.7842 -1.1718  0.9525
  127OSM    C3S13494   1.356   4.412   2.368  0.1860  0.1203  0.0986
  127OSM    H3S13495   1.304   4.320   2.334  0.2591  0.6978 -1.6963
  127OSM     O313496   1.315   4.501   2.269  0.1460 -0.3946 -0.1512
  127OSM    HO313497   1.381   4.502   2.200 -1.9930 -0.8923 -2.3402
  127OSM    C4S13498   1.317   4.466   2.507 -0.0393  0.3992  0.7195
  127OSM    H4S13499   1.353   4.561   2.547 -0.9801  0.6831  0.9138
  127OSM    C5S13500   1.241   4.399   2.593  0.0494  0.4940 -0.1191
  127OSM    H5S13501   1.205   4.301   2.560 -2.5449  1.3840 -0.2241
  127OSM    C6S13502   1.205   4.436   2.730  0.2595 -0.5100  0.3457
  127OSM    H6S13503   1.208   4.341   2.787 -2.3279 -1.1467 -0.4241
  127OSM    H6T13504   1.095   4.449   2.720  0.2809 -1.8770 -2.7439
  127OSM    C7S13505   1.272   4.549   2.799 -0.2313  0.1712 -0.3307
  127OSM    H7S13506   1.261   4.652   2.757  0.0350 -0.2655 -1.5200
  127OSM    H7T13507   1.379   4.520   2.809 -0.1780 -0.0462 -1.4129
  127OSM    C8S13508   1.240   4.559   2.951 -0.2183 -0.1932 -0.3120
  127OSM    H8S13509   1.252   4.463   3.007  1.0548  0.6357  0.8925
  127OSM    H8T13510   1.132   4.582   2.963 -0.2865 -1.4403  2.1269
  127OSM    C9S13511   1.313   4.664   3.034 -0.4502  0.0907  0.0722
  127OSM    H9S13512   1.292   4.770   3.006  1.7063  0.7210  0.6302
  127OSM    H9T13513   1.423   4.656   3.021 -0.3701  2.0757 -0.8979
  127OSM   C10S13514   1.282   4.646   3.185 -0.6899  0.5821  0.0446
  127OSM   H10S13515   1.323   4.729   3.246 -0.1261 -0.1495  0.6879
  127OSM   H10T13516   1.341   4.560   3.223  2.9978  3.1136  0.5589
  127OSM   C11S13517   1.133   4.636   3.220 -0.4986 -0.3386 -0.4674
  127OSM   H11S13518   1.088   4.547   3.171 -0.8460 -0.3473 -0.1390
  127OSM   H11T13519   1.066   4.720   3.188  0.1080  0.2030 -0.3388
  127OSM   C12S13520   1.104   4.632   3.371  0.2204 -0.0552 -0.5062
  127OSM   H12S13521   1.185   4.587   3.432  0.4694  1.3863  0.2597
  127OSM   H12T13522   1.010   4.580   3.399  0.6794 -0.5558  0.1357
  127OSM   C13S13523   1.085   4.773   3.433 -0.4880  0.5796  0.7054
  127OSM   H13S13524   1.002   4.811   3.370  1.5569  1.1368 -1.8353
  127OSM   H13T13525   1.178   4.833   3.421 -0.1464 -0.3217 -1.4489
  127OSM   C14S13526   1.045   4.777   3.582  0.5238 -0.2115 -0.2574
  127OSM   H14S13527   0.945   4.736   3.610  0.5917 -0.7351 -0.7609
  127OSM   H14T13528   1.034   4.885   3.608 -0.2578 -0.6836  1.5647
  127OSM   C15S13529   1.144   4.709   3.683 -0.9433 -0.3946 -0.3382
  127OSM   H15S13530   1.247   4.744   3.660 -0.2795  0.5106  3.4275
  127OSM   H15T13531   1.143   4.601   3.655  0.4963 -0.5563  0.1572
  127OSM   C16S13532   1.108   4.723   3.834 -0.5463  0.2166 -0.6823
  127OSM   H16S13533   1.000   4.702   3.849 -0.6882 -0.4577 -2.3897
  127OSM   H16T13534   1.113   4.834   3.837 -1.4830  0.2305  1.4566
  127OSM   C17S13535   1.203   4.646   3.927  0.2013  0.2680  0.0194
  127OSM   H17S13536   1.307   4.675   3.904  1.8021 -1.8841  3.5625
  127OSM   H17T13537   1.198   4.538   3.900  1.8670  0.0047  0.6642
  127OSM   C18S13538   1.180   4.676   4.077  0.1961  0.1039 -0.3876
  127OSM   H18S13539   1.092   4.620   4.115  1.0234 -0.4760  0.7336
  127OSM   H18T13540   1.150   4.782   4.095 -1.4907 -0.4085  0.0189
  127OSM   H18U13541   1.270   4.656   4.139  0.6025 -0.4932 -1.1678
  127OSM    C1F13542   1.665   4.262   2.524 -0.4325 -0.1229 -0.6503
  127OSM     OF13543   1.764   4.329   2.489 -0.2604 -0.4234 -0.2534
  127OSM    C2F13544   1.673   4.167   2.638  0.1013  0.3205  0.3559
  127OSM    H2F13545   1.757   4.097   2.620 -0.7968 -0.3514 -1.4435
  127OSM    H2G13546   1.583   4.103   2.631  0.5866 -0.1812 -2.7748
  127OSM    C3F13547   1.682   4.244   2.770  0.3639 -0.0305  0.4793
  127OSM    H3F13548   1.585   4.299   2.768  0.3357 -0.0213  1.4452
  127OSM    H3G13549   1.758   4.324   2.768 -0.2526  0.5589  0.1620
  127OSM    C4F13550   1.698   4.161   2.893 -0.4018 -0.5192  0.7510
  127OSM    H4F13551   1.753   4.221   2.970  3.0224  1.3394 -2.7753
  127OSM    H4G13552   1.775   4.081   2.884  0.1864  0.1246 -0.0998
  127OSM    C5F13553   1.568   4.119   2.961  0.1856 -0.2986 -0.0027
  127OSM    H5F13554   1.594   4.022   3.008  0.2157  0.2663  1.1847
  127OSM    H5G13555   1.488   4.100   2.886  0.2575 -0.6932  0.0156
  127OSM    C6F13556   1.517   4.211   3.075  0.4393  0.1106  0.2082
  127OSM    H6F13557   1.407   4.207   3.092  0.8750  0.3749  3.9422
  127OSM    H6G13558   1.550   4.314   3.051 -2.6752  1.4057  0.9722
  127OSM    C7F13559   1.573   4.169   3.212 -0.0468 -0.1401 -0.0854
  127OSM    H7F13560   1.675   4.211   3.213 -0.7639  1.6802  0.2837
  127OSM    H7G13561   1.573   4.058   3.225  0.1132 -0.0850  0.3829
  127OSM    C8F13562   1.502   4.238   3.336 -0.1094 -0.4060  0.4838
  127OSM    H8F13563   1.405   4.188   3.360 -0.3260 -0.9258 -1.3589
  127OSM    H8G13564   1.485   4.345   3.310 -4.0835 -1.2496 -1.2009
  127OSM    C9F13565   1.586   4.225   3.459  0.1037  0.6015  0.1786
  127OSM    H9F13566   1.686   4.183   3.439 -1.0028 -2.9744  1.5100
  127OSM   C10F13567   1.557   4.230   3.589  0.4057 -0.8286 -0.2011
  127OSM   H10F13568   1.635   4.213   3.665  0.3822 -1.2317 -0.2640
  127OSM   C11F13569   1.421   4.272   3.645 -0.2236  0.0550 -0.0689
  127OSM   H11F13570   1.383   4.180   3.695 -0.0113 -0.4970 -0.8980
  127OSM   H11G13571   1.341   4.300   3.573 -1.5064 -2.2597  0.3476
  127OSM   C12F13572   1.439   4.387   3.747 -0.0484  0.4600 -0.4868
  127OSM   H12F13573   1.337   4.416   3.782 -0.8766  0.0330 -2.4080
  127OSM   H12G13574   1.476   4.478   3.695  1.4942 -0.4397 -1.0097
  127OSM   C13F13575   1.511   4.337   3.868  0.6861 -0.0519 -0.2266
  127OSM   H13F13576   1.622   4.338   3.860  0.8065 -1.7960  0.7107
  127OSM   H13G13577   1.481   4.232   3.891 -0.0794 -0.0109 -1.0063
  127OSM   C14F13578   1.480   4.425   3.993 -0.4844  0.3405  0.0597
  127OSM   H14F13579   1.371   4.442   4.004 -0.8727 -0.9746 -1.4446
  127OSM   H14G13580   1.529   4.523   3.974  3.4688 -1.7955 -2.0218
  127OSM   C15F13581   1.549   4.379   4.122 -0.0009  0.7887  0.0884
  127OSM   H15F13582   1.654   4.361   4.091  0.0540 -0.0720  0.7489
  127OSM   H15G13583   1.515   4.279   4.156  0.9609  0.4235  0.0252
  127OSM   C16F13584   1.560   4.489   4.234 -0.3525 -0.5872  0.8898
  127OSM   H16F13585   1.474   4.494   4.304 -2.1798 -2.1718 -1.0876
  127OSM   H16G13586   1.553   4.583   4.176  0.5367 -1.0535 -0.0014
  127OSM   C17F13587   1.698   4.488   4.304  0.0407 -0.1188 -0.2679
  127OSM   H17F13588   1.782   4.516   4.238 -0.8404  0.2171 -1.2735
  127OSM   H17G13589   1.720   4.384   4.335  2.1505  0.4327  0.2339
  127OSM   C18F13590   1.700   4.576   4.428 -0.4422  1.2917  0.1903
  127OSM   H18F13591   1.642   4.669   4.407  0.8848  1.9841 -0.4872
  127OSM   H18G13592   1.804   4.601   4.456  0.5862 -0.2689 -1.9590
  127OSM   H18H13593   1.651   4.514   4.507  1.8670 -0.4315  0.3754
  128OSM      N13594   1.781   3.383   1.721  0.0279  0.1574  0.5050
  128OSM    C1513595   1.801   3.520   1.772  0.0166 -0.6059  0.0236
  128OSM   H15A13596   1.729   3.586   1.726  0.0935 -0.5144  0.0343
  128OSM   H15B13597   1.899   3.555   1.742 -0.5910  1.4716  0.3263
  128OSM   H15C13598   1.798   3.530   1.879 -0.1915  0.6553 -0.0853
  128OSM    C1413599   1.631   3.364   1.708 -0.1274  0.0873  0.0273
  128OSM   H14A13600   1.605   3.271   1.659 -3.1257  0.7114  0.2421
  128OSM   H14B13601   1.578   3.439   1.651 -1.2520 -1.2498 -0.7729
  128OSM   H14C13602   1.588   3.369   1.807 -0.3370  0.9052 -0.0950
  128OSM    C1313603   1.831   3.378   1.577 -0.0212  0.0663  0.0382
  128OSM   H13A13604   1.825   3.274   1.550 -0.4476  0.7703 -2.9101
  128OSM   H13B13605   1.930   3.418   1.560 -0.6218  1.6150 -0.0362
  128OSM   H13C13606   1.756   3.414   1.509  1.4644 -1.0345 -2.3321
  128OSM    C1213607   1.856   3.281   1.809 -0.2473  0.3217 -0.4135
  128OSM   H12A13608   1.819   3.276   1.911 -0.0711 -0.8581 -0.3922
  128OSM   H12B13609   1.955   3.316   1.834 -0.0460 -1.0864  0.9358
  128OSM    C1113610   1.867   3.133   1.767 -0.5278  0.1643 -0.0987
  128OSM   H11A13611   1.923   3.070   1.839 -2.4536 -1.2424  0.2553
  128OSM   H11B13612   1.927   3.132   1.674  0.3758 -0.7952  0.4752
  128OSM      P13613   1.652   3.008   1.851 -0.1717 -0.4335  0.4799
  128OSM    O1313614   1.542   3.106   1.879  0.0467  0.5894  0.2420
  128OSM    O1413615   1.616   2.867   1.815 -0.3686 -0.6534  0.2456
  128OSM    O1113616   1.752   3.003   1.977 -0.6564  0.2039  0.4771
  128OSM    O1213617   1.739   3.074   1.737  0.4416 -0.3530  0.2289
  128OSM    C1S13618   1.717   3.041   2.112 -0.6063 -0.4290 -0.0115
  128OSM    H1S13619   1.618   3.000   2.140  0.5793 -1.4884  2.9550
  128OSM    H1T13620   1.716   3.152   2.124 -0.9211 -0.5649  1.3146
  128OSM     NF13621   1.760   3.021   2.348 -0.2475 -0.2518 -0.1354
  128OSM    HNF13622   1.805   3.090   2.403  1.0607 -1.4498  0.3664
  128OSM    C2S13623   1.818   2.985   2.222  0.0062 -0.2952 -0.1003
  128OSM    H2S13624   1.817   2.877   2.199  0.0804 -0.1949 -0.5724
  128OSM    C3S13625   1.960   3.036   2.194  0.3722 -0.7332  0.0906
  128OSM    H3S13626   1.959   3.146   2.182  1.0104 -0.8751 -1.4316
  128OSM     O313627   2.005   3.007   2.066  0.4419  0.2797  0.3432
  128OSM    HO313628   1.924   2.975   2.025 -0.8971  3.7006 -0.0374
  128OSM    C4S13629   2.051   2.987   2.300 -0.4942  0.4790 -0.1812
  128OSM    H4S13630   2.034   3.040   2.394 -3.4630  0.4165 -0.5799
  128OSM    C5S13631   2.138   2.881   2.291  0.0122 -0.8702 -0.4398
  128OSM    H5S13632   2.133   2.822   2.198  0.7495  0.1229 -1.1311
  128OSM    C6S13633   2.230   2.834   2.400  0.1874  0.3097  0.2203
  128OSM    H6S13634   2.325   2.811   2.348 -0.8208  1.4349 -2.2922
  128OSM    H6T13635   2.190   2.743   2.449 -0.3166 -0.0662 -0.8573
  128OSM    C7S13636   2.253   2.938   2.515 -0.5199 -0.0397  0.1164
  128OSM    H7S13637   2.164   2.994   2.550 -1.8940 -2.2361  0.3277
  128OSM    H7T13638   2.318   3.017   2.472 -0.1416 -0.3959  0.0285
  128OSM    C8S13639   2.330   2.872   2.641 -0.5277 -0.2863 -0.6530
  128OSM    H8S13640   2.423   2.819   2.612  0.3465  2.4798 -3.4925
  128OSM    H8T13641   2.271   2.785   2.677  0.5889 -0.2985  1.3047
  128OSM    C9S13642   2.360   2.982   2.743 -0.1812 -0.0959 -0.9079
  128OSM    H9S13643   2.266   3.011   2.794  0.7450 -0.5062  1.1443
  128OSM    H9T13644   2.405   3.069   2.692  0.7449 -0.1141 -0.1558
  128OSM   C10S13645   2.456   2.942   2.862 -0.0544  0.6240  0.1168
  128OSM   H10S13646   2.483   3.030   2.924  1.0097 -0.8273  1.8065
  128OSM   H10T13647   2.556   2.922   2.818 -1.1666 -0.6427 -1.9909
  128OSM   C11S13648   2.415   2.813   2.943  0.4280 -0.4513  0.5520
  128OSM   H11S13649   2.415   2.718   2.886 -0.7474 -0.4891  0.6042
  128OSM   H11T13650   2.311   2.820   2.982  0.1703 -1.1839  0.0014
  128OSM   C12S13651   2.513   2.810   3.060  0.5649 -0.2944  0.2548
  128OSM   H12S13652   2.531   2.912   3.102  2.1362 -1.1292  1.7445
  128OSM   H12T13653   2.609   2.768   3.023 -0.7168 -3.4393  0.1743
  128OSM   C13S13654   2.473   2.714   3.176 -1.2909 -0.9747 -0.9633
  128OSM   H13S13655   2.478   2.606   3.150 -1.6452 -1.0796 -0.5976
  128OSM   H13T13656   2.374   2.736   3.220  0.4099  0.4463  2.5990
  128OSM   C14S13657   2.570   2.739   3.304  0.4126 -0.3468  0.0565
  128OSM   H14S13658   2.677   2.715   3.285  0.2088 -0.0011 -1.6221
  128OSM   H14T13659   2.531   2.658   3.371 -0.8360 -1.2858 -1.7229
  128OSM   C15S13660   2.547   2.877   3.370  0.1029  0.4220  1.0874
  128OSM   H15S13661   2.440   2.907   3.362 -1.1117 -3.0435  2.4164
  128OSM   H15T13662   2.608   2.959   3.327  1.5748 -0.8308  0.7099
  128OSM   C16S13663   2.574   2.874   3.521 -0.1238  0.1830  0.4301
  128OSM   H16S13664   2.682   2.853   3.532 -0.3016 -0.0683  1.7765
  128OSM   H16T13665   2.503   2.804   3.569 -1.2828 -0.4353 -2.0258
  128OSM   C17S13666   2.545   3.002   3.592 -0.9818  0.1369 -0.1557
  128OSM   H17S13667   2.586   3.086   3.532  0.7541 -0.9170 -0.5079
  128OSM   H17T13668   2.602   2.996   3.688 -1.6314 -1.1086  0.1699
  128OSM   C18S13669   2.398   3.024   3.623  0.0984  0.2092 -0.5975
  128OSM   H18S13670   2.356   2.940   3.682  1.2018 -0.0260 -0.1224
  128OSM   H18T13671   2.338   3.031   3.529 -1.3691 -0.5295  0.2370
  128OSM   H18U13672   2.375   3.110   3.689  1.2761 -0.2213  0.4092
  128OSM    C1F13673   1.641   2.976   2.399  0.7840 -0.1844  0.8124
  128OSM     OF13674   1.568   2.905   2.327 -0.4036 -0.5161  0.1756
  128OSM    C2F13675   1.586   3.022   2.528  0.4695 -0.1900  0.0999
  128OSM    H2F13676   1.508   3.101   2.530  1.4653  0.8975 -1.4797
  128OSM    H2G13677   1.665   3.081   2.579 -1.2840 -0.5166  3.4701
  128OSM    C3F13678   1.547   2.908   2.620 -0.2846  0.1448 -0.5253
  128OSM    H3F13679   1.629   2.837   2.643 -0.0965 -0.1501 -1.9975
  128OSM    H3G13680   1.458   2.855   2.579 -0.1389 -0.4660 -0.0474
  128OSM    C4F13681   1.502   2.985   2.752  0.1830  0.1472 -0.7361
  128OSM    H4F13682   1.426   3.059   2.719 -0.4760 -0.1671  0.0409
  128OSM    H4G13683   1.599   3.035   2.777  0.7585 -0.9667 -0.6755
  128OSM    C5F13684   1.468   2.894   2.868 -0.6425 -0.8655  0.5941
  128OSM    H5F13685   1.549   2.821   2.888 -0.8064 -1.7124 -1.5426
  128OSM    H5G13686   1.379   2.830   2.852  0.0446 -1.7012  0.0324
  128OSM    C6F13687   1.442   2.981   2.992 -0.3991 -0.0616  0.2818
  128OSM    H6F13688   1.359   3.052   2.969 -1.6896 -1.5178  0.2655
  128OSM    H6G13689   1.538   3.031   3.015 -0.5333 -0.2352  1.2591
  128OSM    C7F13690   1.389   2.891   3.109 -0.4837  0.1824  0.2317
  128OSM    H7F13691   1.462   2.811   3.133  1.5586  0.7899 -3.2566
  128OSM    H7G13692   1.300   2.830   3.083 -1.0025  0.3918  1.4073
  128OSM    C8F13693   1.347   2.986   3.228 -0.2406  0.8903  0.5352
  128OSM    H8F13694   1.249   2.948   3.263 -0.3574 -0.0633 -0.7465
  128OSM    H8G13695   1.337   3.086   3.180 -1.7705  0.2262 -0.6294
  128OSM    C9F13696   1.454   2.974   3.334 -0.0625  0.3633 -0.1727
  128OSM    H9F13697   1.540   3.040   3.315  1.5964 -1.4311  0.8139
  128OSM   C10F13698   1.441   2.924   3.459  0.8240  0.7810 -0.6120
  128OSM   H10F13699   1.526   2.929   3.529  0.5259 -0.9557 -0.0633
  128OSM   C11F13700   1.324   2.835   3.497 -0.3228 -0.1542  0.4210
  128OSM   H11F13701   1.365   2.747   3.550  0.5446 -0.2245 -0.3487
  128OSM   H11G13702   1.277   2.791   3.406 -1.2548 -3.9641  2.5264
  128OSM   C12F13703   1.212   2.901   3.584  0.4253  0.2806  0.0777
  128OSM   H12F13704   1.135   2.821   3.592 -0.4484  1.0700 -0.2293
  128OSM   H12G13705   1.166   2.976   3.515  1.3422 -0.4730 -1.4181
  128OSM   C13F13706   1.262   2.962   3.719  0.0535 -0.3431  0.7238
  128OSM   H13F13707   1.175   3.006   3.773 -0.5068 -0.2481 -0.2294
  128OSM   H13G13708   1.336   3.045   3.708 -0.5431 -0.0840 -1.9007
  128OSM   C14F13709   1.316   2.860   3.820 -0.1712 -0.0389 -0.3549
  128OSM   H14F13710   1.405   2.808   3.778 -0.2052 -1.8895  1.6297
  128OSM   H14G13711   1.245   2.776   3.835  0.2559 -1.1011 -3.6159
  128OSM   C15F13712   1.369   2.925   3.946 -0.2926 -0.2628 -0.5774
  128OSM   H15F13713   1.279   2.980   3.979 -1.6408 -1.8373 -1.4703
  128OSM   H15G13714   1.451   2.994   3.914 -2.9265  2.6243 -1.6087
  128OSM   C16F13715   1.412   2.831   4.059 -0.0273  0.0305  0.6682
  128OSM   H16F13716   1.503   2.776   4.025  0.2837  0.8462  0.1576
  128OSM   H16G13717   1.333   2.753   4.063  1.2428 -1.4817 -1.4641
  128OSM   C17F13718   1.437   2.900   4.192  0.1588 -0.8620  0.6893
  128OSM   H17F13719   1.456   3.002   4.153 -2.9443 -0.8328 -1.0426
  128OSM   H17G13720   1.528   2.857   4.239  1.0927  1.7698  1.4100
  128OSM   C18F13721   1.309   2.904   4.282 -0.9412  0.6688 -0.0361
  128OSM   H18F13722   1.315   2.998   4.341  1.1648 -0.3560  1.4938
  128OSM   H18G13723   1.302   2.827   4.362  1.5418  1.1958  0.7773
  128OSM   H18H13724   1.226   2.892   4.209  1.5709  1.1282 -3.2093
  129OSM      N13725   2.727   1.449   1.432  0.1599 -0.0792  0.3482
  129OSM    C1513726   2.805   1.320   1.452  0.2316  0.6207 -0.7898
  129OSM   H15A13727   2.834   1.310   1.556  0.6747  0.8715 -0.8902
  129OSM   H15B13728   2.903   1.325   1.408  1.3070 -2.4876  0.8806
  129OSM   H15C13729   2.750   1.239   1.406 -0.6304  0.0469  1.1358
  129OSM    C1413730   2.722   1.480   1.284  0.0078  0.2045 -0.6817
  129OSM   H14A13731   2.680   1.580   1.277  1.0981  0.7244 -0.0642
  129OSM   H14B13732   2.674   1.409   1.219 -0.5736 -2.0585  2.0664
  129OSM   H14C13733   2.820   1.487   1.239  0.3185 -1.6979 -0.3683
  129OSM    C1313734   2.585   1.442   1.482  0.2321 -0.0303  0.8528
  129OSM   H13A13735   2.534   1.374   1.415  1.6647 -0.0042 -0.3179
  129OSM   H13B13736   2.536   1.537   1.469  1.4196  0.3196 -1.6771
  129OSM   H13C13737   2.578   1.399   1.581 -2.4369 -0.9124  0.3632
  129OSM    C1213738   2.806   1.556   1.505 -0.5967  0.0039 -0.2283
  129OSM   H12A13739   2.768   1.654   1.479 -0.0242  1.2642  3.1723
  129OSM   H12B13740   2.907   1.566   1.469 -0.2515 -0.3960  0.5992
  129OSM    C1113741   2.817   1.552   1.659  0.8105  0.2182 -0.4047
  129OSM   H11A13742   2.885   1.626   1.707 -1.9027  1.9642  1.0586
  129OSM   H11B13743   2.838   1.448   1.692  0.8849  0.5986  0.8013
  129OSM      P13744   2.630   1.731   1.726  0.4398  0.1440 -0.2997
  129OSM    O1313745   2.697   1.821   1.634 -0.1743 -0.3732  0.3259
  129OSM    O1413746   2.485   1.721   1.724  0.3252 -0.2004  0.0693
  129OSM    O1113747   2.676   1.757   1.878  0.2028 -0.4383  0.2933
  129OSM    O1213748   2.684   1.584   1.701  0.2387  0.6526 -0.2792
  129OSM    C1S13749   2.629   1.658   1.974  0.0309 -0.0998 -0.3819
  129OSM    H1S13750   2.655   1.557   1.936  1.0112  0.1671 -0.4354
  129OSM    H1T13751   2.518   1.662   1.975  0.0214  0.6792 -1.6244
  129OSM     NF13752   2.665   1.567   2.195 -0.4337 -0.5085 -0.3590
  129OSM    HNF13753   2.607   1.590   2.273  2.6772  0.6103  1.8575
  129OSM    C2S13754   2.690   1.680   2.114 -0.7521  0.2308 -0.7393
  129OSM    H2S13755   2.799   1.682   2.092 -0.2507  0.5412  1.5525
  129OSM    C3S13756   2.653   1.823   2.171 -0.0024 -0.0914  0.3783
  129OSM    H3S13757   2.544   1.836   2.183  0.1988  2.2912  0.0592
  129OSM     O313758   2.695   1.924   2.082 -0.1020 -0.6548  0.8496
  129OSM    HO313759   2.703   1.881   1.997 -0.0368 -0.4640  0.7587
  129OSM    C4S13760   2.718   1.835   2.314  0.2081 -0.2068  0.0782
  129OSM    H4S13761   2.825   1.858   2.327 -0.5791  3.2988  1.6686
  129OSM    C5S13762   2.648   1.839   2.431 -0.3561  0.4948  0.5834
  129OSM    H5S13763   2.539   1.829   2.422 -0.5264  2.3186  0.2993
  129OSM    C6S13764   2.713   1.845   2.573  0.0317 -0.4794  0.3160
  129OSM    H6S13765   2.670   1.937   2.617 -0.3479  0.1376 -1.2777
  129OSM    H6T13766   2.823   1.857   2.574  0.2721 -2.0847 -1.3443
  129OSM    C7S13767   2.680   1.724   2.663 -0.6818 -0.6993 -0.3682
  129OSM    H7S13768   2.710   1.631   2.610 -1.6671 -0.2100 -1.8173
  129OSM    H7T13769   2.572   1.713   2.685 -0.8873  1.5219 -0.0083
  129OSM    C8S13770   2.760   1.726   2.795  0.0863 -0.6736  0.2086
  129OSM    H8S13771   2.723   1.817   2.847  0.8804 -0.0056 -0.3710
  129OSM    H8T13772   2.865   1.758   2.778  0.4908 -0.9486  2.0484
  129OSM    C9S13773   2.744   1.609   2.883  0.5217  0.2370  0.3235
  129OSM    H9S13774   2.771   1.524   2.817  0.2210  0.4069 -0.0145
  129OSM    H9T13775   2.640   1.598   2.918  0.9195  0.2931  1.5965
  129OSM   C10S13776   2.838   1.625   2.999  0.2018  0.0641 -0.4886
  129OSM   H10S13777   2.800   1.713   3.054 -1.7473 -1.0999  0.1184
  129OSM   H10T13778   2.941   1.641   2.961  0.4122 -1.6795 -0.7203
  129OSM   C11S13779   2.831   1.509   3.097  0.6490  0.4979 -0.4228
  129OSM   H11S13780   2.893   1.431   3.048 -1.3624 -0.1193 -2.1612
  129OSM   H11T13781   2.727   1.471   3.108  1.7343 -2.7571 -0.3219
  129OSM   C12S13782   2.877   1.547   3.238 -0.1945 -0.2762 -0.1871
  129OSM   H12S13783   2.817   1.632   3.279 -0.3356 -0.7225  0.5404
  129OSM   H12T13784   2.974   1.600   3.230 -0.7794  0.8228 -0.3574
  129OSM   C13S13785   2.881   1.425   3.329 -0.3762  0.0796 -0.1664
  129OSM   H13S13786   2.967   1.362   3.300 -0.8845 -1.0887  0.7575
  129OSM   H13T13787   2.785   1.371   3.313 -1.9599  2.2748  1.1968
  129OSM   C14S13788   2.882   1.453   3.474 -0.5378 -0.0202  0.3448
  129OSM   H14S13789   2.790   1.501   3.515  0.6717  1.7787  1.1005
  129OSM   H14T13790   2.961   1.529   3.494 -1.4014  0.9099  0.3300
  129OSM   C15S13791   2.911   1.335   3.571 -0.3917  0.0530  0.3417
  129OSM   H15S13792   2.941   1.389   3.664  0.5179 -0.5238  0.3872
  129OSM   H15T13793   3.000   1.280   3.536 -0.6731 -0.6144  0.6621
  129OSM   C16S13794   2.804   1.233   3.600  0.2834  0.0585  0.2374
  129OSM   H16S13795   2.770   1.190   3.504 -1.4069  2.7869 -0.4916
  129OSM   H16T13796   2.714   1.269   3.654 -0.1593 -1.5625  0.6143
  129OSM   C17S13797   2.869   1.118   3.679  0.0080 -0.7302  0.4038
  129OSM   H17S13798   2.954   1.082   3.618  0.2152 -1.3787  1.0528
  129OSM   H17T13799   2.788   1.042   3.685 -0.8128 -0.0664 -1.5117
  129OSM   C18S13800   2.924   1.158   3.816  0.8219  0.5689  0.5728
  129OSM   H18S13801   2.840   1.207   3.870 -1.4140 -0.8759 -1.3838
  129OSM   H18T13802   3.005   1.232   3.804  0.6064  0.4441 -2.4564
  129OSM   H18U13803   2.961   1.068   3.870 -2.0501  0.6011  2.8800
  129OSM    C1F13804   2.727   1.445   2.179 -0.2021 -0.1549 -0.2630
  129OSM     OF13805   2.809   1.427   2.091 -0.0830 -0.0285  0.2632
  129OSM    C2F13806   2.687   1.335   2.275 -0.0592 -0.4720 -0.0385
  129OSM    H2F13807   2.730   1.236   2.248 -1.1094 -1.9618  3.2370
  129OSM    H2G13808   2.577   1.336   2.290  0.0600 -1.8247  1.1212
  129OSM    C3F13809   2.749   1.367   2.411  0.0049 -0.3479  0.4388
  129OSM    H3F13810   2.738   1.473   2.443 -0.3808 -0.4684  0.7211
  129OSM    H3G13811   2.857   1.357   2.388  0.1341 -3.6948  2.0099
  129OSM    C4F13812   2.712   1.261   2.518  1.2005 -0.4922 -0.1085
  129OSM    H4F13813   2.721   1.164   2.466  0.8820 -2.0398  2.5603
  129OSM    H4G13814   2.607   1.264   2.556  1.6023 -1.4756  1.1460
  129OSM    C5F13815   2.792   1.270   2.648  0.9406 -0.6428 -0.0087
  129OSM    H5F13816   2.742   1.220   2.734 -1.7336  2.1939  0.3002
  129OSM    H5G13817   2.806   1.379   2.669  0.8979 -0.2593 -1.7934
  129OSM    C6F13818   2.930   1.204   2.634  0.3092 -0.4729  0.3125
  129OSM    H6F13819   2.979   1.246   2.544  1.7234 -3.4821 -0.4674
  129OSM    H6G13820   2.915   1.095   2.616  2.8144 -0.5647 -1.8858
  129OSM    C7F13821   3.017   1.233   2.760 -0.4585  0.0507  0.7281
  129OSM    H7F13822   2.971   1.312   2.824  1.4979  0.5059  1.6417
  129OSM    H7G13823   3.102   1.288   2.715 -0.6943  1.0464  1.4570
  129OSM    C8F13824   3.067   1.115   2.843  0.0245  0.0342 -0.4061
  129OSM    H8F13825   3.153   1.163   2.895 -0.7336  0.6829  0.2690
  129OSM    H8G13826   3.111   1.045   2.769  1.5837  0.1881  0.3191
  129OSM    C9F13827   2.963   1.047   2.934 -0.5809 -0.3653  0.8855
  129OSM    H9F13828   2.882   1.004   2.873  0.2457 -1.2969  0.4043
  129OSM   C10F13829   2.974   1.037   3.068  0.4199 -0.2381  0.2157
  129OSM   H10F13830   2.890   0.989   3.120  0.1738  0.4480  0.4569
  129OSM   C11F13831   3.075   1.108   3.149 -0.3135 -0.0597 -0.1560
  129OSM   H11F13832   3.024   1.109   3.248  1.8705 -3.3013  1.1767
  129OSM   H11G13833   3.087   1.210   3.108  2.5732 -0.5021 -0.6384
  129OSM   C12F13834   3.219   1.048   3.172 -0.1736 -0.7682  0.8758
  129OSM   H12F13835   3.270   1.040   3.074 -0.7525 -0.3253  0.5325
  129OSM   H12G13836   3.198   0.943   3.203 -0.2117 -1.3232 -0.9526
  129OSM   C13F13837   3.306   1.125   3.274 -0.6281  0.5351 -0.5374
  129OSM   H13F13838   3.315   1.231   3.242  0.0250  0.5644 -0.2621
  129OSM   H13G13839   3.408   1.081   3.272 -1.0406 -0.4961  0.1732
  129OSM   C14F13840   3.247   1.109   3.412 -1.1442  0.7698  0.3730
  129OSM   H14F13841   3.260   1.001   3.430  1.4269  0.4183 -2.8280
  129OSM   H14G13842   3.141   1.138   3.430 -1.6432 -1.0985  0.5674
  129OSM   C15F13843   3.342   1.192   3.504  0.6734  0.2160 -0.2339
  129OSM   H15F13844   3.339   1.299   3.477  1.8656  0.2447 -0.3304
  129OSM   H15G13845   3.445   1.154   3.487  0.4364  0.2527 -1.8834
  129OSM   C16F13846   3.305   1.171   3.656  0.7794  0.5732  0.5723
  129OSM   H16F13847   3.298   1.061   3.665 -0.4107  0.6313  0.5624
  129OSM   H16G13848   3.205   1.218   3.672  0.1750 -0.4611 -0.0931
  129OSM   C17F13849   3.398   1.232   3.758 -0.9406  0.4531 -0.3704
  129OSM   H17F13850   3.395   1.343   3.755  0.1542  0.4755 -1.2631
  129OSM   H17G13851   3.504   1.208   3.736 -1.1987  0.4846 -1.7564
  129OSM   C18F13852   3.349   1.192   3.895 -0.1294  0.3716 -0.3270
  129OSM   H18F13853   3.248   1.237   3.912 -1.1540 -2.2147  1.0758
  129OSM   H18G13854   3.420   1.218   3.976  1.0521  0.1565 -1.2653
  129OSM   H18H13855   3.340   1.082   3.909  1.0064  0.4118  0.8292
  130OSM      N13856   3.436   4.710   1.731 -0.4514 -0.1306 -0.4889
  130OSM    C1513857   3.418   4.564   1.706  0.0986 -0.7231 -0.8060
  130OSM   H15A13858   3.511   4.515   1.733 -0.5411 -0.9343  1.1951
  130OSM   H15B13859   3.386   4.543   1.606 -1.7685  1.9446 -0.8677
  130OSM   H15C13860   3.341   4.534   1.776 -0.1551  2.6042  0.5083
  130OSM    C1413861   3.529   4.772   1.630 -0.4301  0.5268  0.4047
  130OSM   H14A13862   3.542   4.876   1.654 -0.6214  0.3209  1.4183
  130OSM   H14B13863   3.489   4.762   1.530 -0.5386 -1.8376  0.6174
  130OSM   H14C13864   3.618   4.711   1.628  0.0250  1.1793 -1.1967
  130OSM    C1313865   3.314   4.790   1.715  0.4726  0.0240  0.2940
  130OSM   H13A13866   3.241   4.769   1.792 -1.1401 -0.7914 -1.4063
  130OSM   H13B13867   3.277   4.785   1.614  0.0630 -3.2557  0.5157
  130OSM   H13C13868   3.344   4.891   1.741  1.2529 -0.2280  0.4171
  130OSM    C1213869   3.503   4.732   1.868 -0.3966  0.4995 -0.7698
  130OSM   H12A13870   3.591   4.670   1.866 -0.6369  0.1680 -2.1338
  130OSM   H12B13871   3.439   4.687   1.942 -1.0896  1.3272 -0.8495
  130OSM    C1113872   3.524   4.877   1.919 -0.0612 -0.4195  0.3224
  130OSM   H11A13873   3.564   4.870   2.022  3.7624  1.7786 -0.7884
  130OSM   H11B13874   3.421   4.918   1.924 -0.4383 -1.4538  1.8256
  130OSM      P13875   3.611   5.114   1.859  0.3722 -0.0591 -0.1378
  130OSM    O1313876   3.743   5.174   1.817 -0.2242 -0.4601 -0.2438
  130OSM    O1413877   3.489   5.175   1.804  0.4380 -0.3175 -0.0752
  130OSM    O1113878   3.591   5.102   2.014 -0.0581  0.1359  0.2779
  130OSM    O1213879   3.609   4.953   1.832  0.0249  0.5395 -0.5433
  130OSM    C1S13880   3.468   5.144   2.078 -0.1891 -0.2673  0.2146
  130OSM    H1S13881   3.376   5.112   2.025 -2.3448  0.5912  3.1972
  130OSM    H1T13882   3.464   5.254   2.093 -0.0915 -0.0620 -1.1831
  130OSM     NF13883   3.350   5.144   2.287  0.4186 -0.2567  0.0626
  130OSM    HNF13884   3.376   5.202   2.364  1.4401  2.6954 -2.3044
  130OSM    C2S13885   3.459   5.083   2.223 -0.0201 -0.1190  0.0877
  130OSM    H2S13886   3.436   4.976   2.204 -0.0013  0.2948 -2.6036
  130OSM    C3S13887   3.586   5.096   2.307 -0.1966  0.8312  0.4906
  130OSM    H3S13888   3.601   5.205   2.324  1.0893  0.8616 -0.7208
  130OSM     O313889   3.702   5.048   2.247  0.0728 -0.5359  0.1890
  130OSM    HO313890   3.692   5.061   2.152  0.8194 -0.6507  0.0886
  130OSM    C4S13891   3.569   5.023   2.441 -0.6639 -0.1024 -0.2266
  130OSM    H4S13892   3.534   5.096   2.516 -1.6202 -0.7704  0.0018
  130OSM    C5S13893   3.587   4.897   2.475  0.5049  0.2494 -0.5085
  130OSM    H5S13894   3.624   4.830   2.396  2.0798  0.3900  0.0724
  130OSM    C6S13895   3.579   4.837   2.614  0.3845  0.1717 -0.8993
  130OSM    H6S13896   3.567   4.726   2.605  1.7149 -0.1302  0.6087
  130OSM    H6T13897   3.488   4.879   2.663 -0.6751 -0.5435 -2.1750
  130OSM    C7S13898   3.706   4.879   2.694  0.0789 -0.3259  0.4687
  130OSM    H7S13899   3.701   4.988   2.716  0.1980  0.1915 -1.8102
  130OSM    H7T13900   3.794   4.843   2.637 -0.8357 -1.0155 -0.5504
  130OSM    C8S13901   3.707   4.813   2.829  0.2173 -0.0702 -0.5132
  130OSM    H8S13902   3.812   4.814   2.866  0.0325 -0.1935  0.0219
  130OSM    H8T13903   3.678   4.706   2.824  0.4315 -0.1857  0.4060
  130OSM    C9S13904   3.603   4.875   2.925  0.0965  1.0142 -0.1415
  130OSM    H9S13905   3.503   4.861   2.878 -0.6818  0.9460  1.4586
  130OSM    H9T13906   3.621   4.984   2.932  1.7963  0.7097  0.7039
  130OSM   C10S13907   3.614   4.811   3.067 -0.1524 -0.0157  0.5618
  130OSM   H10S13908   3.720   4.818   3.100  0.0779  0.1788 -0.1991
  130OSM   H10T13909   3.588   4.705   3.048 -1.3643  0.5348 -1.0660
  130OSM   C11S13910   3.520   4.860   3.180  0.5909 -0.2699  0.2229
  130OSM   H11S13911   3.414   4.865   3.148  0.7679  0.9477 -0.2257
  130OSM   H11T13912   3.554   4.966   3.189  0.8036 -0.1286 -1.7991
  130OSM   C12S13913   3.526   4.792   3.314 -0.2488 -0.4931  0.0598
  130OSM   H12S13914   3.632   4.764   3.334 -0.5733 -1.5309  0.3921
  130OSM   H12T13915   3.472   4.696   3.295 -0.3283 -0.0542 -2.3088
  130OSM   C13S13916   3.479   4.882   3.428  0.3614 -0.3108 -0.3122
  130OSM   H13S13917   3.371   4.903   3.409  0.6068  1.3288 -0.0181
  130OSM   H13T13918   3.535   4.978   3.427  1.0559 -0.4824  4.1527
  130OSM   C14S13919   3.500   4.822   3.568 -0.2230 -0.1092 -0.3638
  130OSM   H14S13920   3.474   4.892   3.651 -0.6602  0.4347 -0.9472
  130OSM   H14T13921   3.607   4.801   3.588 -0.6736 -0.5768  1.8483
  130OSM   C15S13922   3.430   4.694   3.609 -0.4029 -0.4126 -0.5067
  130OSM   H15S13923   3.465   4.609   3.545 -1.5262  0.5434 -2.4826
  130OSM   H15T13924   3.323   4.693   3.580 -0.4363  0.3815 -0.4118
  130OSM   C16S13925   3.441   4.669   3.765  0.3036  0.2092 -0.0033
  130OSM   H16S13926   3.379   4.745   3.816 -1.4834 -1.3179  0.1777
  130OSM   H16T13927   3.547   4.678   3.798  0.4051  4.3131 -0.9391
  130OSM   C17S13928   3.368   4.544   3.803 -0.3189  0.3584 -1.0104
  130OSM   H17S13929   3.436   4.460   3.780  0.5527 -0.0599  2.5812
  130OSM   H17T13930   3.272   4.525   3.750  0.6765 -1.8994 -2.1629
  130OSM   C18S13931   3.342   4.543   3.962  0.3682  0.0750  0.5406
  130OSM   H18S13932   3.256   4.474   3.977  0.2695 -0.4126 -1.8245
  130OSM   H18T13933   3.306   4.642   3.995  0.1702  1.1604 -2.5793
  130OSM   H18U13934   3.441   4.521   4.008  0.7386  1.0349  0.2157
  130OSM    C1F13935   3.226   5.147   2.240  0.0067  0.7629  0.5248
  130OSM     OF13936   3.183   5.058   2.168  0.4589 -0.1811 -0.0429
  130OSM    C2F13937   3.141   5.266   2.272 -0.4088 -0.0082 -0.6714
  130OSM    H2F13938   3.117   5.305   2.171 -0.8276 -0.0525 -0.5903
  130OSM    H2G13939   3.203   5.348   2.317 -2.4489  1.3817 -0.2682
  130OSM    C3F13940   3.019   5.242   2.364  0.2942  0.7878 -0.3440
  130OSM    H3F13941   2.950   5.172   2.313 -1.1812  2.0827 -0.2103
  130OSM    H3G13942   2.958   5.335   2.374 -1.2187 -0.2762  0.5853
  130OSM    C4F13943   3.035   5.188   2.515  0.3751 -0.3323  0.1881
  130OSM    H4F13944   3.078   5.269   2.579  0.1248 -0.3601  0.3960
  130OSM    H4G13945   3.105   5.102   2.518 -0.7529 -1.2676  0.5961
  130OSM    C5F13946   2.900   5.151   2.578  0.4836  0.1879  0.4635
  130OSM    H5F13947   2.874   5.044   2.567 -1.9941  0.6974  0.8156
  130OSM    H5G13948   2.819   5.206   2.526  0.9591 -1.3136 -2.0027
  130OSM    C6F13949   2.894   5.171   2.730  0.7601  0.6003 -0.8164
  130OSM    H6F13950   2.911   5.279   2.750  0.0369  0.6149 -0.2386
  130OSM    H6G13951   2.985   5.135   2.784  0.5251  0.1826 -0.6944
  130OSM    C7F13952   2.770   5.110   2.799  0.0756 -0.4953 -0.3920
  130OSM    H7F13953   2.756   5.002   2.779  1.4111 -0.4251 -1.8986
  130OSM    H7G13954   2.687   5.158   2.742  0.1012 -1.1209 -0.9590
  130OSM    C8F13955   2.761   5.134   2.953 -0.4738  1.0391 -0.0355
  130OSM    H8F13956   2.663   5.095   2.989  0.8635  0.4830  3.4459
  130OSM    H8G13957   2.775   5.242   2.975  2.5936  0.9296 -1.0319
  130OSM    C9F13958   2.867   5.067   3.027 -0.6380 -0.3654 -0.4390
  130OSM    H9F13959   2.935   4.997   2.975  0.1080 -0.4661  0.6365
  130OSM   C10F13960   2.898   5.091   3.160 -0.0168  0.1161 -0.1892
  130OSM   H10F13961   2.990   5.050   3.205  1.2921  1.8101 -1.2028
  130OSM   C11F13962   2.831   5.197   3.244 -0.4401  0.6064  0.1003
  130OSM   H11F13963   2.763   5.268   3.193 -0.8404  1.4621  1.7517
  130OSM   H11G13964   2.914   5.256   3.290 -0.4708 -0.0779  1.0449
  130OSM   C12F13965   2.744   5.130   3.350  0.5001  0.1867  0.4140
  130OSM   H12F13966   2.787   5.042   3.403 -1.1290  0.3519  2.1285
  130OSM   H12G13967   2.661   5.082   3.294  0.5123 -0.1927  0.7164
  130OSM   C13F13968   2.688   5.220   3.468 -0.2593  0.3644  1.1742
  130OSM   H13F13969   2.617   5.299   3.435  0.2773  0.4136  0.0937
  130OSM   H13G13970   2.768   5.288   3.503 -0.5100  2.5418 -2.0044
  130OSM   C14F13971   2.638   5.146   3.593  0.5201  0.1172 -0.5474
  130OSM   H14F13972   2.708   5.067   3.626 -0.1621  0.4795  2.0145
  130OSM   H14G13973   2.545   5.094   3.563  1.9361 -3.8187  1.1819
  130OSM   C15F13974   2.609   5.235   3.710 -0.9163 -0.6454 -0.2727
  130OSM   H15F13975   2.538   5.313   3.675 -0.9776 -0.8948 -0.7057
  130OSM   H15G13976   2.689   5.298   3.754 -2.5378  0.1289  1.7949
  130OSM   C16F13977   2.548   5.158   3.831  0.3009 -0.5036 -0.0522
  130OSM   H16F13978   2.623   5.111   3.899 -0.2165  0.1087  0.9704
  130OSM   H16G13979   2.482   5.079   3.790  2.1495 -4.5783  3.8823
  130OSM   C17F13980   2.478   5.252   3.924  0.4428 -0.3797  0.7652
  130OSM   H17F13981   2.387   5.286   3.870  0.2790 -0.9253  0.6912
  130OSM   H17G13982   2.544   5.331   3.965 -0.4926  1.3433 -0.8833
  130OSM   C18F13983   2.416   5.192   4.047  0.9687  0.0580 -0.0223
  130OSM   H18F13984   2.394   5.084   4.030 -0.9493  0.6987 -1.9764
  130OSM   H18G13985   2.319   5.242   4.068 -1.6191 -2.8571 -3.6860
  130OSM   H18H13986   2.482   5.191   4.137 -0.2293  0.4538  0.8975
  131OSM      N13987   0.652   2.196   2.158 -0.4184  0.1868  0.0082
  131OSM    C1513988   0.532   2.142   2.103  0.5584 -0.4844 -0.7519
  131OSM   H15A13989   0.553   2.042   2.067  0.6475 -0.0761 -1.8727
  131OSM   H15B13990   0.507   2.200   2.015  1.2529  0.2804 -0.4630
  131OSM   H15C13991   0.450   2.143   2.173 -0.3431 -1.1587 -1.7691
  131OSM    C1413992   0.639   2.346   2.168  0.0395 -0.0757 -0.1377
  131OSM   H14A13993   0.560   2.381   2.233 -1.0195  0.3688 -1.5948
  131OSM   H14B13994   0.639   2.394   2.071  0.3922  3.0209  1.2646
  131OSM   H14C13995   0.734   2.379   2.208 -1.2025 -0.3119  3.3423
  131OSM    C1313996   0.658   2.140   2.303  0.1666  0.8056  0.4701
  131OSM   H13A13997   0.639   2.035   2.288 -2.2161  1.2907 -0.2704
  131OSM   H13B13998   0.574   2.181   2.357 -0.8666  2.4796 -2.2117
  131OSM   H13C13999   0.747   2.171   2.355  0.6586  0.1434  0.0467
  131OSM    C1214000   0.769   2.151   2.078 -0.1733 -0.0436  0.1720
  131OSM   H12A14001   0.751   2.180   1.975 -1.0723  2.6572  0.9986
  131OSM   H12B14002   0.790   2.045   2.082  1.8303  0.1894 -2.1720
  131OSM    C1114003   0.899   2.224   2.116  0.1452 -0.3329 -0.5131
  131OSM   H11A14004   0.990   2.169   2.086 -0.0127 -0.0479 -1.5599
  131OSM   H11B14005   0.896   2.243   2.225  0.4026  0.0322 -0.5673
  131OSM      P14006   0.968   2.381   1.903 -0.2301  0.2207 -0.0178
  131OSM    O1314007   0.967   2.265   1.811  1.3161 -0.5790 -0.1113
  131OSM    O1414008   0.910   2.505   1.849  0.3079  0.5467 -0.1710
  131OSM    O1114009   1.120   2.413   1.949 -0.1906 -0.1533  1.0961
  131OSM    O1214010   0.898   2.350   2.040 -0.7640 -0.1685  0.2515
  131OSM    C1S14011   1.152   2.530   2.020 -0.1342 -0.5481 -0.1316
  131OSM    H1S14012   1.079   2.608   1.989  1.3607  0.9035 -0.0997
  131OSM    H1T14013   1.258   2.558   2.004  0.1181  0.9142  3.2702
  131OSM     NF14014   1.196   2.642   2.242  0.2200 -0.4043 -0.1840
  131OSM    HNF14015   1.281   2.644   2.295  0.4328  1.1489 -0.5081
  131OSM    C2S14016   1.156   2.520   2.178 -0.0899 -0.3147 -0.3501
  131OSM    H2S14017   1.049   2.501   2.204 -0.2817  0.0638 -0.8417
  131OSM    C3S14018   1.241   2.395   2.225 -0.0341 -0.0287 -0.4746
  131OSM    H3S14019   1.348   2.418   2.207  0.8053 -3.1375 -0.1090
  131OSM     O314020   1.207   2.268   2.169  0.0731 -0.1013 -0.9090
  131OSM    HO314021   1.156   2.293   2.092 -0.2327  1.1551 -0.3139
  131OSM    C4S14022   1.225   2.379   2.377 -0.0588 -0.1567  0.2138
  131OSM    H4S14023   1.121   2.357   2.406 -0.8593  2.2125 -0.6601
  131OSM    C5S14024   1.326   2.372   2.466 -0.0984  0.2631  0.3084
  131OSM    H5S14025   1.427   2.383   2.425  0.2240 -1.7098  0.5053
  131OSM    C6S14026   1.313   2.348   2.610  0.4387 -0.1925 -0.0969
  131OSM    H6S14027   1.330   2.240   2.634  0.4615 -0.4080 -1.0386
  131OSM    H6T14028   1.215   2.386   2.645  0.4087 -0.9376  0.6811
  131OSM    C7S14029   1.421   2.429   2.689 -0.1905 -0.7120 -0.1268
  131OSM    H7S14030   1.408   2.539   2.678  1.5017 -0.4546  0.0750
  131OSM    H7T14031   1.520   2.407   2.644 -0.4362 -2.7060  0.2187
  131OSM    C8S14032   1.419   2.385   2.842  0.2598 -0.4969  1.3095
  131OSM    H8S14033   1.445   2.278   2.850 -1.1271 -1.1617 -1.8814
  131OSM    H8T14034   1.310   2.396   2.862  0.0059  1.9602 -0.8551
  131OSM    C9S14035   1.503   2.492   2.909  0.2150 -0.7448 -0.0836
  131OSM    H9S14036   1.477   2.589   2.862  1.2840 -0.2720  0.2647
  131OSM    H9T14037   1.605   2.469   2.870 -1.0926 -0.8705 -3.8395
  131OSM   C10S14038   1.481   2.492   3.064 -0.3591 -0.4536  0.3286
  131OSM   H10S14039   1.466   2.388   3.099 -0.2056 -0.4656  0.3602
  131OSM   H10T14040   1.389   2.542   3.101 -0.3873  0.8667 -1.3851
  131OSM   C11S14041   1.612   2.542   3.126  0.3091  0.2887  0.3171
  131OSM   H11S14042   1.627   2.645   3.086 -0.0129  0.0322 -0.4803
  131OSM   H11T14043   1.690   2.469   3.097 -0.5763 -0.3712 -0.4575
  131OSM   C12S14044   1.622   2.567   3.274 -0.0174 -0.6485 -1.0859
  131OSM   H12S14045   1.546   2.643   3.300  0.5347 -0.7358  0.9109
  131OSM   H12T14046   1.719   2.616   3.297 -1.1636  2.2199 -1.9131
  131OSM   C13S14047   1.607   2.437   3.357 -0.3679 -0.3891 -0.0532
  131OSM   H13S14048   1.695   2.372   3.342  1.1839  1.2854  1.3269
  131OSM   H13T14049   1.510   2.391   3.328 -1.6512  2.2923 -0.3285
  131OSM   C14S14050   1.597   2.461   3.509  0.5507 -1.0869  0.5795
  131OSM   H14S14051   1.552   2.371   3.556 -0.0864 -0.7003  0.7292
  131OSM   H14T14052   1.521   2.541   3.520 -0.5296 -1.8313 -1.1776
  131OSM   C15S14053   1.727   2.515   3.572  0.1049  0.4631  0.2100
  131OSM   H15S14054   1.785   2.598   3.526  0.1839  0.5395  0.4474
  131OSM   H15T14055   1.794   2.428   3.552 -0.7169 -0.4519  1.2575
  131OSM   C16S14056   1.740   2.536   3.718  0.2046  0.1283 -0.4054
  131OSM   H16S14057   1.840   2.538   3.766  0.1107  1.5052 -0.2158
  131OSM   H16T14058   1.695   2.442   3.758  1.2213 -0.5387 -0.8193
  131OSM   C17S14059   1.660   2.656   3.776  0.4765 -0.2319  0.1374
  131OSM   H17S14060   1.621   2.637   3.878 -0.3971  2.1358  0.3053
  131OSM   H17T14061   1.562   2.658   3.722  0.0994  0.9391  0.8172
  131OSM   C18S14062   1.725   2.791   3.772 -0.1338 -0.1908  0.2327
  131OSM   H18S14063   1.762   2.802   3.668  0.7246 -2.1460  0.2845
  131OSM   H18T14064   1.811   2.798   3.843  2.7625 -2.8638 -2.6859
  131OSM   H18U14065   1.653   2.874   3.785 -1.6253 -0.9050 -2.6137
  131OSM    C1F14066   1.113   2.750   2.244 -0.1638  0.0374  0.0709
  131OSM     OF14067   1.007   2.743   2.191  0.2696  0.2628  0.2423
  131OSM    C2F14068   1.159   2.880   2.310  0.4872  0.3500 -0.0082
  131OSM    H2F14069   1.172   2.957   2.231 -0.6139  0.6814  0.1208
  131OSM    H2G14070   1.252   2.873   2.371 -0.6075  2.1142  1.9898
  131OSM    C3F14071   1.052   2.934   2.409 -0.1180  0.2706  0.8757
  131OSM    H3F14072   1.043   2.871   2.500  0.3533 -0.1440  0.6446
  131OSM    H3G14073   0.954   2.937   2.359  0.1194  0.6678  0.4290
  131OSM    C4F14074   1.092   3.073   2.457  0.6827  0.2750  0.6561
  131OSM    H4F14075   1.077   3.142   2.371 -0.5520 -2.0678 -1.1302
  131OSM    H4G14076   1.200   3.083   2.481  0.2653  1.3554  2.1996
  131OSM    C5F14077   0.999   3.125   2.571 -0.2054  0.0230  0.4535
  131OSM    H5F14078   0.900   3.079   2.550  0.4915 -0.4076 -2.3780
  131OSM    H5G14079   1.001   3.236   2.567 -2.5539  0.2109  2.2252
  131OSM    C6F14080   1.063   3.094   2.708  0.0012  0.4390  0.1715
  131OSM    H6F14081   1.144   3.164   2.735  1.4612 -0.8525 -0.7302
  131OSM    H6G14082   1.108   2.995   2.686  0.8109  0.6928  0.6496
  131OSM    C7F14083   0.955   3.065   2.820  0.2895 -0.1913 -0.2993
  131OSM    H7F14084   0.901   2.971   2.793  0.3480 -0.5569  0.8089
  131OSM    H7G14085   0.879   3.147   2.822  2.1596  1.5977  1.5574
  131OSM    C8F14086   1.023   3.047   2.955  0.0607  0.5465  0.3167
  131OSM    H8F14087   1.106   2.973   2.943 -1.0008 -0.3990 -1.6179
  131OSM    H8G14088   0.951   2.995   3.022  2.1926 -1.2033  1.3861
  131OSM    C9F14089   1.068   3.175   3.012 -0.3065 -0.4475  0.8268
  131OSM    H9F14090   1.086   3.253   2.937  0.3382 -0.5051  0.9223
  131OSM   C10F14091   1.067   3.213   3.140  0.0260  0.5386  0.0084
  131OSM   H10F14092   1.102   3.314   3.165  1.3419  0.1485 -0.2197
  131OSM   C11F14093   1.035   3.121   3.256  0.2452  0.4433  0.0643
  131OSM   H11F14094   1.116   3.136   3.329  0.1590 -2.2092  0.8103
  131OSM   H11G14095   1.047   3.013   3.231 -1.9679 -0.0557  0.9441
  131OSM   C12F14096   0.889   3.142   3.298  0.0414 -0.6467 -0.8438
  131OSM   H12F14097   0.817   3.111   3.220 -1.4396  0.8791 -0.1338
  131OSM   H12G14098   0.880   3.252   3.308  1.8560 -0.5749  0.6026
  131OSM   C13F14099   0.860   3.068   3.432 -0.2031 -0.2370  0.0867
  131OSM   H13F14100   0.916   2.972   3.430  0.4956  0.0144  2.8417
  131OSM   H13G14101   0.751   3.066   3.453  0.0719 -0.4665  1.6554
  131OSM   C14F14102   0.915   3.142   3.560 -0.2834 -0.4201 -0.0284
  131OSM   H14F14103   0.843   3.227   3.565  0.5343  0.2970 -0.2177
  131OSM   H14G14104   1.017   3.187   3.555  0.6446 -2.4701 -0.6179
  131OSM   C15F14105   0.914   3.058   3.685  0.5174  0.4866 -0.2189
  131OSM   H15F14106   0.994   2.981   3.687 -0.7982 -0.9388  1.0055
  131OSM   H15G14107   0.816   3.005   3.688 -0.1781  1.5803 -2.1729
  131OSM   C16F14108   0.940   3.146   3.809 -0.1790  0.1691  0.3320
  131OSM   H16F14109   0.861   3.225   3.808 -1.0171 -0.6474  0.6249
  131OSM   H16G14110   1.038   3.197   3.817  0.6358 -0.9831 -1.6254
  131OSM   C17F14111   0.923   3.053   3.931 -0.1579 -0.1745  0.2173
  131OSM   H17F14112   1.004   2.977   3.925  1.4467  1.3733  1.2277
  131OSM   H17G14113   0.838   2.982   3.919 -0.4772  0.3276 -0.5573
  131OSM   C18F14114   0.918   3.123   4.068  0.2045 -0.0462  0.1030
  131OSM   H18F14115   0.899   3.048   4.148  1.0982 -0.4591 -0.0617
  131OSM   H18G14116   0.846   3.209   4.066 -1.3202 -1.2916 -1.2306
  131OSM   H18H14117   1.020   3.159   4.090  0.2331  0.1580 -0.3470
  132OSM      N14118   0.201   1.689   2.118  0.1739  0.5515  0.3691
  132OSM    C1514119   0.098   1.581   2.140 -0.3919 -0.2601 -0.1053
  132OSM   H15A14120   0.026   1.585   2.060  0.9799  1.6118 -1.3184
  132OSM   H15B14121   0.039   1.590   2.230  0.6967 -1.6645  0.7936
  132OSM   H15C14122   0.127   1.478   2.120 -1.8214 -0.2746 -2.4744
  132OSM    C1414123   0.312   1.660   2.209  0.3631  0.0263 -0.6428
  132OSM   H14A14124   0.288   1.642   2.313  0.5286 -1.5104 -0.8523
  132OSM   H14B14125   0.381   1.742   2.217  1.1711 -0.7566  0.8389
  132OSM   H14C14126   0.369   1.578   2.168 -0.5105 -1.4710  0.9992
  132OSM    C1314127   0.249   1.699   1.978 -0.0230  0.2846 -0.3560
  132OSM   H13A14128   0.262   1.603   1.929  0.7159 -1.0343  2.2488
  132OSM   H13B14129   0.348   1.743   1.984 -0.8641  2.1418  0.5345
  132OSM   H13C14130   0.191   1.766   1.916  1.5139  2.0979  0.0591
  132OSM    C1214131   0.140   1.828   2.168  0.0893 -0.1036  0.7545
  132OSM   H12A14132   0.143   1.852   2.273 -0.9142  4.0748 -0.0083
  132OSM   H12B14133   0.039   1.835   2.132  0.2558  1.1233  0.4820
  132OSM    C1114134   0.210   1.953   2.109 -0.2499  0.3674 -0.2621
  132OSM   H11A14135   0.320   1.938   2.107 -0.4001 -1.0314  0.5864
  132OSM   H11B14136   0.191   2.034   2.183 -0.0852 -1.8248  2.3066
  132OSM      P14137   0.203   2.110   1.902 -0.0400  0.3491  0.1338
  132OSM    O1314138   0.340   2.100   1.854 -0.7566 -0.4271  0.1635
  132OSM    O1414139   0.099   2.148   1.799  0.2110 -0.5877  0.5611
  132OSM    O1114140   0.205   2.216   2.022 -0.4701 -0.4060  0.3699
  132OSM    O1214141   0.159   1.982   1.978 -0.0817 -0.4861  0.0969
  132OSM    C1S14142   0.091   2.266   2.085  0.1003  0.5300 -0.0173
  132OSM    H1S14143   0.011   2.190   2.079  0.3658  0.2171  0.3456
  132OSM    H1T14144   0.052   2.356   2.032  0.6766  1.9662  1.8511
  132OSM     NF14145   0.000   2.329   2.297 -0.3962 -0.1703  0.1023
  132OSM    HNF14146  -0.026   2.426   2.297  2.4446  0.6880  0.1592
  132OSM    C2S14147   0.124   2.316   2.230  0.4478 -0.0801  0.2610
  132OSM    H2S14148   0.177   2.233   2.283  0.4183 -0.9176 -0.9679
  132OSM    C3S14149   0.207   2.447   2.225 -0.3262  0.3084 -1.2155
  132OSM    H3S14150   0.149   2.524   2.171  0.4160  0.4266 -1.8752
  132OSM     O314151   0.328   2.432   2.146  0.1993  0.1770  0.0251
  132OSM    HO314152   0.311   2.349   2.101  1.4474  1.0025 -2.1556
  132OSM    C4S14153   0.235   2.487   2.371  0.0481 -0.0773  0.2155
  132OSM    H4S14154   0.325   2.442   2.414 -0.0882  0.3950  1.0187
  132OSM    C5S14155   0.183   2.598   2.416 -1.1541  0.2076  0.1133
  132OSM    H5S14156   0.153   2.674   2.343  0.9382  0.5290 -0.4723
  132OSM    C6S14157   0.224   2.657   2.543 -0.0033 -0.0083 -0.2840
  132OSM    H6S14158   0.132   2.683   2.598 -0.1449 -0.1501 -0.4525
  132OSM    H6T14159   0.287   2.747   2.527  1.1521 -0.4256  1.6450
  132OSM    C7S14160   0.290   2.563   2.646 -0.6417  0.5434 -0.2598
  132OSM    H7S14161   0.386   2.517   2.615 -0.8049 -0.2319  0.3508
  132OSM    H7T14162   0.222   2.477   2.665  0.6504 -0.9175 -1.8999
  132OSM    C8S14163   0.294   2.635   2.785 -0.6138 -0.3904  0.0545
  132OSM    H8S14164   0.197   2.686   2.806 -0.3276 -0.5152  1.7976
  132OSM    H8T14165   0.376   2.709   2.792 -0.3243 -0.6565 -0.4641
  132OSM    C9S14166   0.312   2.543   2.907 -0.1881  0.5116  0.7457
  132OSM    H9S14167   0.403   2.484   2.883  0.1991  1.6411 -0.7605
  132OSM    H9T14168   0.224   2.475   2.908 -0.1933  0.4532 -0.7537
  132OSM   C10S14169   0.320   2.612   3.043 -0.3390  0.6228  0.5196
  132OSM   H10S14170   0.232   2.680   3.053 -0.2862  0.5912  1.3196
  132OSM   H10T14171   0.410   2.674   3.061 -1.5377  2.5557  0.2191
  132OSM   C11S14172   0.326   2.511   3.164 -0.1757  0.5581  0.3232
  132OSM   H11S14173   0.417   2.452   3.138 -1.1302 -0.1242 -1.7060
  132OSM   H11T14174   0.240   2.441   3.160 -0.4072  0.8857 -1.6978
  132OSM   C12S14175   0.331   2.568   3.301 -0.0091  0.5083  0.9631
  132OSM   H12S14176   0.397   2.657   3.297 -0.2462  0.6577 -1.3378
  132OSM   H12T14177   0.372   2.497   3.376 -1.3673  1.8702  3.0882
  132OSM   C13S14178   0.199   2.607   3.361 -0.2073  0.0860 -0.7505
  132OSM   H13S14179   0.129   2.522   3.376 -0.6387  0.7501  1.4104
  132OSM   H13T14180   0.144   2.677   3.295  0.0695  1.1101  0.0712
  132OSM   C14S14181   0.211   2.672   3.505  0.5091 -0.0898  0.6984
  132OSM   H14S14182   0.113   2.714   3.534  1.5542  2.9973  0.0977
  132OSM   H14T14183   0.285   2.752   3.484 -0.0231 -0.1017 -1.5494
  132OSM   C15S14184   0.258   2.570   3.613 -0.2430  0.2732  0.6583
  132OSM   H15S14185   0.356   2.531   3.577  1.1859  0.9849  3.4653
  132OSM   H15T14186   0.178   2.493   3.616 -1.4107  1.2075 -2.5470
  132OSM   C16S14187   0.284   2.632   3.744  0.3272 -0.7716  0.0715
  132OSM   H16S14188   0.290   2.743   3.746  0.6843 -0.7446 -1.4277
  132OSM   H16T14189   0.385   2.597   3.774  0.6371  0.6263  0.7366
  132OSM   C17S14190   0.183   2.590   3.854  0.1290 -0.1823  0.7239
  132OSM   H17S14191   0.163   2.481   3.857 -0.0058 -0.1315  1.8065
  132OSM   H17T14192   0.091   2.640   3.816  0.1299 -0.6300  0.1048
  132OSM   C18S14193   0.225   2.646   3.990 -1.0047 -0.0404 -0.5989
  132OSM   H18S14194   0.147   2.620   4.065  0.4638  0.9008  1.3427
  132OSM   H18T14195   0.237   2.755   3.978 -0.4759  0.0563  0.6139
  132OSM   H18U14196   0.318   2.605   4.034 -1.7119  0.0195  1.0565
  132OSM    C1F14197  -0.070   2.232   2.353  0.0708  1.3168  0.5876
  132OSM     OF14198  -0.035   2.116   2.332  0.1294 -0.0092 -0.2088
  132OSM    C2F14199  -0.195   2.269   2.415  0.3407 -0.2358  0.1301
  132OSM    H2F14200  -0.273   2.194   2.391  1.1899 -0.4200 -2.3273
  132OSM    H2G14201  -0.228   2.359   2.357  0.1252 -1.0441 -1.0321
  132OSM    C3F14202  -0.184   2.311   2.561  0.8665 -0.2479  0.1454
  132OSM    H3F14203  -0.168   2.217   2.618  0.5952 -0.5688 -0.3026
  132OSM    H3G14204  -0.280   2.353   2.597  0.7841  0.3344 -0.7321
  132OSM    C4F14205  -0.092   2.428   2.582  0.6239 -0.0781 -0.2083
  132OSM    H4F14206  -0.116   2.514   2.516 -2.1708 -1.3458 -0.9535
  132OSM    H4G14207   0.014   2.396   2.577  0.5084 -0.5902  0.4776
  132OSM    C5F14208  -0.112   2.485   2.733  0.0872  1.0131 -0.5181
  132OSM    H5F14209  -0.210   2.536   2.735 -0.4461 -0.0082  0.4441
  132OSM    H5G14210  -0.026   2.549   2.759  0.7321 -0.4319  1.1653
  132OSM    C6F14211  -0.107   2.377   2.840  0.7392 -0.1945  0.2123
  132OSM    H6F14212  -0.033   2.300   2.810  0.4162 -1.4975  2.4915
  132OSM    H6G14213  -0.209   2.336   2.832  0.7099 -0.2674  0.8962
  132OSM    C7F14214  -0.083   2.421   2.990 -0.3108 -0.1174 -0.4090
  132OSM    H7F14215   0.008   2.484   3.002 -0.3037 -0.3254  0.6986
  132OSM    H7G14216  -0.067   2.322   3.037 -1.3207 -0.1402 -0.1021
  132OSM    C8F14217  -0.202   2.495   3.055  0.2700  0.3690  0.4035
  132OSM    H8F14218  -0.167   2.501   3.160  1.1132 -1.0907  0.2255
  132OSM    H8G14219  -0.285   2.422   3.063  0.6598 -0.0260  0.9224
  132OSM    C9F14220  -0.236   2.632   2.998  0.1608 -0.0219  0.4741
  132OSM    H9F14221  -0.309   2.621   2.917 -0.7939  0.7822  1.2055
  132OSM   C10F14222  -0.210   2.754   3.039  0.5932 -0.3842  0.3678
  132OSM   H10F14223  -0.255   2.837   2.982 -0.9791 -0.2258  1.7596
  132OSM   C11F14224  -0.122   2.794   3.150  0.3422 -0.0122 -0.6027
  132OSM   H11F14225  -0.076   2.718   3.217  1.1745  2.0380  1.3026
  132OSM   H11G14226  -0.189   2.845   3.222 -3.0049 -1.3519 -2.5671
  132OSM   C12F14227  -0.017   2.901   3.120  0.7617  1.2888  0.2571
  132OSM   H12F14228   0.054   2.863   3.044 -1.1340 -0.4710 -0.7270
  132OSM   H12G14229   0.045   2.917   3.211  0.3504  0.5673  0.6784
  132OSM   C13F14230  -0.068   3.027   3.065 -0.0922  0.1376  0.5298
  132OSM   H13F14231  -0.148   3.065   3.133  0.0950  0.3128  0.6524
  132OSM   H13G14232  -0.120   3.004   2.969  0.7338 -0.8891  0.3161
  132OSM   C14F14233   0.027   3.147   3.039 -0.3192 -0.1505  0.3518
  132OSM   H14F14234   0.064   3.183   3.137  0.7748  2.1934 -0.8444
  132OSM   H14G14235  -0.039   3.225   2.994 -1.1971 -1.0524  0.0272
  132OSM   C15F14236   0.144   3.110   2.953 -0.1477  0.0682  0.3075
  132OSM   H15F14237   0.204   3.032   3.005  0.6863 -0.0772 -0.8314
  132OSM   H15G14238   0.213   3.197   2.949 -0.5879  0.4338  0.5935
  132OSM   C16F14239   0.105   3.100   2.804  0.2273 -0.7094 -0.2588
  132OSM   H16F14240   0.200   3.125   2.753  1.5566 -0.9745  1.9483
  132OSM   H16G14241   0.021   3.172   2.795 -0.0325 -1.1465 -1.4752
  132OSM   C17F14242   0.063   2.959   2.761  0.8116 -0.1188  0.7182
  132OSM   H17F14243  -0.018   2.926   2.829  2.0241 -0.8003  1.9004
  132OSM   H17G14244   0.151   2.891   2.769  1.3725  0.3100 -1.2830
  132OSM   C18F14245   0.013   2.949   2.619  0.0490  0.0353 -0.1257
  132OSM   H18F14246  -0.002   2.841   2.595  1.0689 -0.1471 -0.0076
  132OSM   H18G14247   0.089   2.980   2.543 -0.0766 -1.7200 -1.0295
  132OSM   H18H14248  -0.078   3.011   2.608 -0.9036 -1.2679  0.1662
  133OSM      N14249   5.139   3.183   1.754 -0.2525  0.1579 -0.0641
  133OSM    C1514250   5.077   3.061   1.711  0.5653  0.4439 -0.2643
  133OSM   H15A14251   5.129   2.966   1.717 -1.2995 -0.6726 -0.7679
  133OSM   H15B14252   5.054   3.078   1.606 -2.5402  2.4961  0.6111
  133OSM   H15C14253   4.983   3.044   1.761  1.0231 -0.0082  0.4602
  133OSM    C1414254   5.278   3.184   1.693 -0.5934  0.3513 -0.3703
  133OSM   H14A14255   5.268   3.195   1.586 -0.1877 -0.1524 -0.4648
  133OSM   H14B14256   5.342   3.100   1.714 -0.5494  0.5008  0.1004
  133OSM   H14C14257   5.333   3.263   1.741 -3.1967  1.3110  1.2756
  133OSM    C1314258   5.070   3.301   1.700  0.3937  0.0357  0.4350
  133OSM   H13A14259   5.110   3.401   1.705 -0.2099  0.2572  0.9565
  133OSM   H13B14260   4.981   3.305   1.761  0.1120  1.3118 -0.0369
  133OSM   H13C14261   5.051   3.292   1.594  1.1675 -1.8957  0.4222
  133OSM    C1214262   5.149   3.195   1.900  0.0375  0.6387 -0.4163
  133OSM   H12A14263   5.225   3.270   1.916 -1.0086  1.5406  0.5154
  133OSM   H12B14264   5.191   3.104   1.940  0.8126 -0.1838 -2.9202
  133OSM    C1114265   5.023   3.239   1.980  0.4143 -0.4565  0.0876
  133OSM   H11A14266   4.997   3.346   1.964 -0.1613 -0.5329  0.5022
  133OSM   H11B14267   5.060   3.237   2.085  0.4163 -2.2679  0.0896
  133OSM      P14268   4.861   3.037   2.047 -0.3517  0.0244  0.5498
  133OSM    O1314269   4.720   3.053   2.076 -0.0272  0.0340  0.1860
  133OSM    O1414270   4.889   2.911   1.984  0.4194 -0.1035 -0.3816
  133OSM    O1114271   4.956   3.043   2.177  0.1134  0.2340  0.2828
  133OSM    O1214272   4.916   3.150   1.956  0.2003  0.9841  0.1378
  133OSM    C1S14273   4.918   3.113   2.296  0.5155 -0.5549  0.3037
  133OSM    H1S14274   4.809   3.134   2.291  0.5308 -0.5483 -0.0315
  133OSM    H1T14275   4.970   3.211   2.305  0.0906 -0.2710 -0.2855
  133OSM     NF14276   4.908   3.092   2.539 -0.7866 -0.2856  0.2145
  133OSM    HNF14277   4.969   3.155   2.586  0.9364 -0.7920 -1.2141
  133OSM    C2S14278   4.958   3.032   2.415  0.7208  0.5802  0.4050
  133OSM    H2S14279   4.906   2.934   2.408 -0.1347  1.0563  0.0207
  133OSM    C3S14280   5.114   3.003   2.414 -0.3235 -0.9940 -0.5105
  133OSM    H3S14281   5.149   3.106   2.436 -2.3069  0.3666 -3.1526
  133OSM     O314282   5.176   2.975   2.288 -0.2332 -0.1847 -0.1493
  133OSM    HO314283   5.114   2.993   2.217  0.3925 -1.8007 -1.1481
  133OSM    C4S14284   5.158   2.909   2.527  0.1364  0.4911  0.3775
  133OSM    H4S14285   5.190   2.967   2.614 -1.9506  0.1812  1.4112
  133OSM    C5S14286   5.145   2.770   2.517 -0.0347 -0.1533  0.4171
  133OSM    H5S14287   5.109   2.723   2.424 -0.5328  0.6033  0.2255
  133OSM    C6S14288   5.171   2.675   2.629 -0.5191  0.5151  0.4096
  133OSM    H6S14289   5.266   2.621   2.609 -0.5402  0.8885 -0.8052
  133OSM    H6T14290   5.094   2.596   2.638  0.2250 -0.4378 -1.1628
  133OSM    C7S14291   5.176   2.734   2.769 -0.1957  0.2276 -0.2140
  133OSM    H7S14292   5.233   2.830   2.770 -1.6087  1.1192 -0.8649
  133OSM    H7T14293   5.237   2.674   2.840 -0.7208 -1.5510 -1.2285
  133OSM    C8S14294   5.043   2.762   2.835  0.3283  0.2982 -0.2031
  133OSM    H8S14295   4.983   2.669   2.843  2.5613 -1.2088 -0.0077
  133OSM    H8T14296   4.987   2.842   2.783  1.1958  0.5082 -0.8271
  133OSM    C9S14297   5.063   2.812   2.977  0.5047  0.1032 -0.1924
  133OSM    H9S14298   5.027   2.917   2.976 -0.2342 -0.1418 -1.0789
  133OSM    H9T14299   5.173   2.820   2.989  0.8415  1.8395 -3.3449
  133OSM   C10S14300   4.997   2.740   3.090  0.2183 -0.2421 -0.2951
  133OSM   H10S14301   5.029   2.633   3.085  0.9925  0.0137 -1.0161
  133OSM   H10T14302   4.888   2.752   3.074  0.0589  1.5035  1.6716
  133OSM   C11S14303   5.039   2.802   3.227  0.0427  0.0952  0.5978
  133OSM   H11S14304   4.984   2.898   3.242  1.5487  1.1237 -0.1311
  133OSM   H11T14305   5.148   2.821   3.224 -0.4026  3.1559 -1.5257
  133OSM   C12S14306   4.996   2.703   3.338 -0.7633 -0.4918  0.4624
  133OSM   H12S14307   5.026   2.759   3.429 -1.2575  1.3785 -0.4713
  133OSM   H12T14308   5.051   2.606   3.336  1.1668  0.5556 -0.0748
  133OSM   C13S14309   4.850   2.683   3.351  0.4350  0.7377 -0.3047
  133OSM   H13S14310   4.831   2.622   3.261  0.8403 -1.2477  0.8982
  133OSM   H13T14311   4.784   2.772   3.363 -0.6945  0.1899 -2.0975
  133OSM   C14S14312   4.811   2.603   3.483  0.3487 -0.3465  0.3314
  133OSM   H14S14313   4.822   2.673   3.569  0.3181  0.9757 -0.7041
  133OSM   H14T14314   4.880   2.516   3.484 -0.0296 -0.6607 -0.4209
  133OSM   C15S14315   4.663   2.557   3.472 -0.0755 -0.1738  0.2747
  133OSM   H15S14316   4.647   2.483   3.391 -1.8670 -0.2909  0.6926
  133OSM   H15T14317   4.610   2.652   3.451  3.1075  1.8682  0.7539
  133OSM   C16S14318   4.603   2.500   3.608 -0.0854  0.2000 -0.0391
  133OSM   H16S14319   4.652   2.401   3.621 -0.0040  0.1500 -0.6732
  133OSM   H16T14320   4.496   2.478   3.590 -0.2386 -0.1141  1.2389
  133OSM   C17S14321   4.619   2.586   3.734  0.0575 -0.4150 -0.1013
  133OSM   H17S14322   4.725   2.616   3.737  0.6691 -2.2760 -1.2974
  133OSM   H17T14323   4.593   2.523   3.821  1.0667  0.5051  0.8873
  133OSM   C18S14324   4.537   2.712   3.739  0.0421 -0.4407 -0.4777
  133OSM   H18S14325   4.564   2.774   3.651  1.0093  1.0919  0.8489
  133OSM   H18T14326   4.554   2.772   3.831  1.2480 -0.7106 -0.5065
  133OSM   H18U14327   4.430   2.683   3.740 -0.2684  0.6427 -0.5203
  133OSM    C1F14328   4.777   3.103   2.573 -0.2385 -0.4076  0.6417
  133OSM     OF14329   4.692   3.043   2.507  0.4536 -0.0244  0.4532
  133OSM    C2F14330   4.732   3.190   2.681 -0.1758  0.5071 -0.5795
  133OSM    H2F14331   4.704   3.290   2.642 -1.7850 -0.3099 -1.6212
  133OSM    H2G14332   4.820   3.220   2.741  0.0409 -0.5361 -0.3566
  133OSM    C3F14333   4.616   3.133   2.767 -0.4942 -0.2336  0.3110
  133OSM    H3F14334   4.527   3.114   2.704 -0.9639  0.1028  0.8595
  133OSM    H3G14335   4.594   3.221   2.831  3.3916  2.1585 -1.2938
  133OSM    C4F14336   4.654   3.015   2.847 -0.0358 -0.1981  0.4440
  133OSM    H4F14337   4.763   3.000   2.863 -0.2659 -1.6982  0.7260
  133OSM    H4G14338   4.647   2.927   2.780  0.8064  0.4738 -0.5690
  133OSM    C5F14339   4.574   2.998   2.971  0.0901 -0.5393  0.2729
  133OSM    H5F14340   4.476   2.956   2.941  0.0473 -0.4244  0.2480
  133OSM    H5G14341   4.558   3.092   3.028 -0.0882  0.0994 -0.7934
  133OSM    C6F14342   4.632   2.894   3.063 -0.4077 -0.6164 -0.5074
  133OSM    H6F14343   4.730   2.933   3.098 -0.6090 -1.0471  0.5544
  133OSM    H6G14344   4.647   2.801   3.004  1.0606 -1.8166  1.6246
  133OSM    C7F14345   4.534   2.864   3.177  0.1186 -0.7764  0.0294
  133OSM    H7F14346   4.559   2.763   3.216 -0.3661 -0.5361  1.0023
  133OSM    H7G14347   4.429   2.867   3.141 -0.1285  0.3916  0.8055
  133OSM    C8F14348   4.539   2.970   3.297 -0.5310 -0.3859  0.3690
  133OSM    H8F14349   4.477   3.054   3.259  2.0087  1.7370  0.6652
  133OSM    H8G14350   4.639   3.010   3.325 -0.9061  1.8127 -1.1754
  133OSM    C9F14351   4.469   2.910   3.416 -0.1859 -0.3542 -0.4417
  133OSM    H9F14352   4.416   2.814   3.405  0.7737 -1.6258  3.9624
  133OSM   C10F14353   4.448   2.986   3.528 -0.4767  0.5596  1.0957
  133OSM   H10F14354   4.405   2.937   3.617  2.3395 -1.4738  1.4793
  133OSM   C11F14355   4.491   3.133   3.555  0.0918  0.7776  0.6673
  133OSM   H11F14356   4.406   3.204   3.567  0.3018  1.1929 -0.2228
  133OSM   H11G14357   4.542   3.163   3.461 -1.8784 -2.0848 -1.4853
  133OSM   C12F14358   4.579   3.143   3.677  0.1615 -0.6947  0.1800
  133OSM   H12F14359   4.526   3.094   3.761 -1.7026 -1.3495 -1.2919
  133OSM   H12G14360   4.579   3.252   3.699 -1.8649 -0.3535 -1.2211
  133OSM   C13F14361   4.719   3.086   3.660  0.2952  0.2232  0.7690
  133OSM   H13F14362   4.760   3.159   3.587 -0.3032 -1.2181 -1.0839
  133OSM   H13G14363   4.721   3.001   3.589  1.8030  1.2162 -0.4500
  133OSM   C14F14364   4.792   3.082   3.792  0.4287  0.1406 -0.5252
  133OSM   H14F14365   4.725   3.043   3.873  0.8943  0.3394 -0.0424
  133OSM   H14G14366   4.806   3.186   3.829  0.0141  0.0595 -0.1144
  133OSM   C15F14367   4.935   3.018   3.798 -0.0894 -0.7088 -0.2650
  133OSM   H15F14368   4.998   3.070   3.873 -0.8650  1.8667 -1.3142
  133OSM   H15G14369   4.994   3.023   3.704 -0.0444 -1.0248 -0.2549
  133OSM   C16F14370   4.927   2.866   3.832 -0.0287  0.1539  0.4663
  133OSM   H16F14371   4.866   2.811   3.759 -0.3955  0.4215  0.5704
  133OSM   H16G14372   4.881   2.848   3.932  0.3291  0.5386  0.7081
  133OSM   C17F14373   5.068   2.801   3.849  0.6339  0.2422  0.1111
  133OSM   H17F14374   5.073   2.712   3.916 -0.3939  0.4804  0.5226
  133OSM   H17G14375   5.146   2.867   3.890  1.1434  0.2564 -0.8545
  133OSM   C18F14376   5.130   2.752   3.718 -0.1047  1.1286  0.2837
  133OSM   H18F14377   5.212   2.680   3.737 -0.9042 -0.0928 -0.7503
  133OSM   H18G14378   5.175   2.836   3.661 -0.4445  1.0506 -0.1033
  133OSM   H18H14379   5.056   2.698   3.654  2.0605  0.3888 -1.7182
  134OSM      N14380   5.005   5.994   1.642 -0.2433 -0.8385  0.0937
  134OSM    C1514381   5.061   6.039   1.514  0.8934  0.7153  0.6383
  134OSM   H15A14382   5.050   6.145   1.499 -0.3689  0.4786 -0.2126
  134OSM   H15B14383   5.006   5.990   1.435 -0.5140  0.5624  1.6859
  134OSM   H15C14384   5.163   6.004   1.508  0.6821  0.2002 -0.0411
  134OSM    C1414385   4.866   6.041   1.640  0.9608 -0.1542  0.3072
  134OSM   H14A14386   4.869   6.148   1.628  1.3903 -0.3220 -1.3902
  134OSM   H14B14387   4.810   6.007   1.726  1.9474  1.8335  1.8290
  134OSM   H14C14388   4.812   6.009   1.552  1.7284  2.9423 -1.4280
  134OSM    C1314389   5.001   5.844   1.639 -0.4619 -0.0901  1.2595
  134OSM   H13A14390   4.959   5.804   1.730  0.4097  1.1203  2.2357
  134OSM   H13B14391   5.102   5.808   1.628 -0.2392  1.0196 -1.0198
  134OSM   H13C14392   4.935   5.808   1.561 -0.7422 -3.3370  2.8664
  134OSM    C1214393   5.083   6.033   1.765 -0.0697 -0.2335  0.0997
  134OSM   H12A14394   5.100   6.139   1.750 -1.2255  0.1832  1.5659
  134OSM   H12B14395   5.182   5.991   1.759  1.0630  2.3698 -1.3466
  134OSM    C1114396   5.025   6.008   1.911 -0.4440 -0.0602  0.4107
  134OSM   H11A14397   4.924   6.053   1.915  0.6167  2.5782  0.1102
  134OSM   H11B14398   5.090   6.055   1.989  0.1616  1.6298 -1.0436
  134OSM      P14399   4.909   5.802   2.012 -0.0900  0.1625 -0.3370
  134OSM    O1314400   4.773   5.832   1.970 -0.2434 -0.0526 -0.3400
  134OSM    O1414401   4.939   5.657   2.028 -0.2752  0.5625  0.3416
  134OSM    O1114402   4.926   5.860   2.159 -0.3503 -0.1420  0.3458
  134OSM    O1214403   5.030   5.865   1.930  0.2633  0.6020  0.0819
  134OSM    C1S14404   4.835   5.828   2.262  0.0272  0.2435  0.2493
  134OSM    H1S14405   4.745   5.774   2.225  0.2537 -1.1406  1.6029
  134OSM    H1T14406   4.802   5.924   2.307 -1.4680 -0.0942 -0.0465
  134OSM     NF14407   4.804   5.715   2.469 -1.0830 -0.0291  0.1584
  134OSM    HNF14408   4.807   5.767   2.554  0.2989 -2.5142  1.7647
  134OSM    C2S14409   4.899   5.752   2.377  0.1781 -0.3262  0.2355
  134OSM    H2S14410   4.947   5.665   2.328  0.2172 -0.2225  0.0884
  134OSM    C3S14411   5.012   5.837   2.436  0.1646  0.2333  0.1676
  134OSM    H3S14412   4.981   5.941   2.461 -0.1245  0.4946 -1.1847
  134OSM     O314413   5.123   5.857   2.347 -0.4462  0.3066 -0.3586
  134OSM    HO314414   5.081   5.843   2.262 -1.6224 -1.5484  0.4745
  134OSM    C4S14415   5.063   5.770   2.559 -0.5347  0.1171 -0.4907
  134OSM    H4S14416   5.032   5.814   2.654 -1.6122 -1.7204  0.0635
  134OSM    C5S14417   5.149   5.664   2.565  0.0998 -0.2391 -0.1993
  134OSM    H5S14418   5.160   5.611   2.469  0.5338  0.5737 -0.6129
  134OSM    C6S14419   5.215   5.612   2.689 -0.6734  0.5254 -0.6954
  134OSM    H6S14420   5.326   5.622   2.682 -0.6080 -0.1252 -0.6761
  134OSM    H6T14421   5.207   5.501   2.687  2.8145  0.1394 -2.1048
  134OSM    C7S14422   5.162   5.667   2.820 -0.5103 -0.5507  0.0007
  134OSM    H7S14423   5.053   5.685   2.819 -0.1586  2.6685 -2.9457
  134OSM    H7T14424   5.196   5.773   2.822  1.6336 -1.1232 -1.5969
  134OSM    C8S14425   5.205   5.592   2.946 -0.1440  0.1183  0.1718
  134OSM    H8S14426   5.316   5.595   2.947 -0.0116 -2.3621  0.3309
  134OSM    H8T14427   5.167   5.488   2.943 -0.5675  0.2028  1.8933
  134OSM    C9S14428   5.145   5.649   3.069 -0.2722 -0.1727  0.1200
  134OSM    H9S14429   5.077   5.578   3.120  0.9700 -1.2608  0.3237
  134OSM    H9T14430   5.096   5.747   3.050 -0.9579 -0.6468 -0.6231
  134OSM   C10S14431   5.264   5.689   3.163 -0.3057 -0.0307 -0.6325
  134OSM   H10S14432   5.331   5.755   3.104  0.9880 -0.7152  0.0378
  134OSM   H10T14433   5.315   5.595   3.194 -1.6582 -0.8223 -0.7368
  134OSM   C11S14434   5.221   5.761   3.287  0.6145 -0.1419 -0.4992
  134OSM   H11S14435   5.154   5.689   3.339 -0.7594  1.0888 -0.4979
  134OSM   H11T14436   5.165   5.854   3.265  0.9964 -0.1041 -1.3314
  134OSM   C12S14437   5.329   5.802   3.389 -0.4020 -0.7568  0.4480
  134OSM   H12S14438   5.418   5.843   3.337  0.5901 -1.7898  1.2664
  134OSM   H12T14439   5.367   5.704   3.426  0.3572 -1.8496 -2.8825
  134OSM   C13S14440   5.295   5.897   3.500  0.4004 -0.8486  0.3927
  134OSM   H13S14441   5.265   6.002   3.479  0.4697 -0.6613  1.2017
  134OSM   H13T14442   5.373   5.900   3.579  2.5515 -3.8797 -1.3930
  134OSM   C14S14443   5.167   5.843   3.572 -0.2522 -1.0494 -0.4253
  134OSM   H14S14444   5.177   5.733   3.581  3.3085 -0.8796 -0.9227
  134OSM   H14T14445   5.081   5.856   3.503 -0.8905 -2.2965  0.1052
  134OSM   C15S14446   5.146   5.894   3.709 -0.2587 -0.6536  0.2910
  134OSM   H15S14447   5.151   6.005   3.714  0.7269 -0.6588 -0.2460
  134OSM   H15T14448   5.233   5.868   3.774 -1.5713  2.0229  3.4480
  134OSM   C16S14449   5.024   5.826   3.777  0.0079  0.5525  0.4427
  134OSM   H16S14450   5.041   5.717   3.787  0.3635  0.4453 -1.0731
  134OSM   H16T14451   4.934   5.856   3.718 -1.2254  0.0813  2.0040
  134OSM   C17S14452   4.983   5.882   3.917 -0.3048  0.1337  0.5186
  134OSM   H17S14453   4.963   5.989   3.896 -0.4519  0.3362  1.6420
  134OSM   H17T14454   5.073   5.876   3.982  0.5286 -1.2799 -0.7017
  134OSM   C18S14455   4.869   5.810   3.984 -0.1006  0.3196  0.8852
  134OSM   H18S14456   4.841   5.867   4.076  0.1271  1.3882  0.3150
  134OSM   H18T14457   4.902   5.706   4.005  3.8660  0.9516 -1.2579
  134OSM   H18U14458   4.778   5.807   3.921 -0.5975  4.1398  1.1434
  134OSM    C1F14459   4.712   5.630   2.445  0.6875 -0.6799 -0.2509
  134OSM     OF14460   4.707   5.565   2.337  0.2087 -0.1729 -0.6257
  134OSM    C2F14461   4.624   5.597   2.560  0.0342 -1.1326  0.8023
  134OSM    H2F14462   4.652   5.653   2.652 -1.5079  2.6815 -0.8287
  134OSM    H2G14463   4.641   5.490   2.585  2.5301 -0.6645  1.4104
  134OSM    C3F14464   4.469   5.623   2.536 -0.0249  0.8091  0.3925
  134OSM    H3F14465   4.439   5.553   2.455 -0.1590  0.3645  0.8210
  134OSM    H3G14466   4.447   5.727   2.504  0.6927  0.3157 -1.8588
  134OSM    C4F14467   4.379   5.602   2.667  0.2804 -0.0446  0.5606
  134OSM    H4F14468   4.413   5.502   2.702  1.6230  0.2949  0.2739
  134OSM    H4G14469   4.270   5.597   2.643  0.1394 -0.1448  1.1810
  134OSM    C5F14470   4.400   5.708   2.780  0.1534 -0.5714 -0.0570
  134OSM    H5F14471   4.359   5.807   2.751  1.8985  0.6235  1.3315
  134OSM    H5G14472   4.509   5.726   2.793  0.3255 -1.5455 -0.0840
  134OSM    C6F14473   4.341   5.654   2.917  0.4497 -0.4703  0.4415
  134OSM    H6F14474   4.419   5.607   2.981 -1.0258  0.0564  2.7536
  134OSM    H6G14475   4.253   5.588   2.902 -0.7557  1.4379 -1.4621
  134OSM    C7F14476   4.290   5.785   3.000  0.7482 -0.2188  0.0535
  134OSM    H7F14477   4.228   5.853   2.937 -0.1474 -0.8105  0.2892
  134OSM    H7G14478   4.381   5.847   3.017  0.5918 -0.6782  2.9109
  134OSM    C8F14479   4.239   5.737   3.135 -0.5511 -0.5179 -0.5868
  134OSM    H8F14480   4.331   5.704   3.188 -0.3774 -0.3804 -0.8000
  134OSM    H8G14481   4.181   5.644   3.120 -0.9800 -0.8786  2.5494
  134OSM    C9F14482   4.165   5.842   3.220  0.0412  0.3803  0.5810
  134OSM    H9F14483   4.059   5.854   3.196  0.3104  0.9710 -0.3751
  134OSM   C10F14484   4.217   5.902   3.328 -0.1758  0.0259  0.1127
  134OSM   H10F14485   4.153   5.970   3.386  1.0301 -0.2450  1.8519
  134OSM   C11F14486   4.354   5.873   3.387 -0.3859  0.6894 -0.0388
  134OSM   H11F14487   4.424   5.850   3.304 -0.4163  0.9839 -0.1506
  134OSM   H11G14488   4.353   5.789   3.459  1.7643 -0.6812 -1.5205
  134OSM   C12F14489   4.413   6.004   3.453  0.5468  0.5093  0.2388
  134OSM   H12F14490   4.343   6.033   3.534  0.3012  1.4850 -0.2973
  134OSM   H12G14491   4.415   6.085   3.377  0.0471  0.3516  0.0557
  134OSM   C13F14492   4.548   5.986   3.516 -0.0748 -0.7140 -0.3837
  134OSM   H13F14493   4.598   6.084   3.510 -1.6798  0.1553 -0.0552
  134OSM   H13G14494   4.606   5.922   3.447 -1.0864 -0.3310 -1.6266
  134OSM   C14F14495   4.560   5.937   3.658  0.4238 -1.0796  0.0064
  134OSM   H14F14496   4.649   5.869   3.655  3.0705  2.1377 -2.8704
  134OSM   H14G14497   4.467   5.884   3.687 -0.1513  0.6753  1.5436
  134OSM   C15F14498   4.596   6.034   3.765  0.4478 -0.1557 -0.0265
  134OSM   H15F14499   4.702   6.053   3.739 -0.2640  2.5751 -1.3408
  134OSM   H15G14500   4.618   5.980   3.860 -0.0770  0.0510  0.2174
  134OSM   C16F14501   4.497   6.145   3.797  0.1182 -0.0403 -0.1505
  134OSM   H16F14502   4.397   6.096   3.809 -0.2784  0.4999 -1.1794
  134OSM   H16G14503   4.489   6.223   3.719 -0.1694  1.8075  1.6428
  134OSM   C17F14504   4.532   6.222   3.929  0.2927 -0.3935 -0.6171
  134OSM   H17F14505   4.624   6.281   3.913  1.0137 -1.0262  1.0464
  134OSM   H17G14506   4.552   6.149   4.010  1.6973  0.6871  0.0399
  134OSM   C18F14507   4.420   6.320   3.977 -0.2892 -0.5046  0.1390
  134OSM   H18F14508   4.457   6.415   3.932 -0.6423 -0.5220 -0.1917
  134OSM   H18G14509   4.410   6.327   4.088 -1.0081 -0.3773  0.0736
  134OSM   H18H14510   4.319   6.297   3.938 -0.6850 -0.0414  0.8556
  135OSM      N14511   0.411   3.986   1.555 -0.0764  0.0801 -0.3653
  135OSM    C1514512   0.285   3.931   1.496 -0.2574  0.6755  0.6012
  135OSM   H15A14513   0.199   3.993   1.519 -0.5195  0.8668 -0.7954
  135OSM   H15B14514   0.273   3.832   1.540  1.9248 -0.3951 -1.0234
  135OSM   H15C14515   0.296   3.910   1.391  0.5356 -2.1668  1.1525
  135OSM    C1414516   0.534   3.912   1.510 -0.0843 -0.3320  0.5637
  135OSM   H14A14517   0.619   3.978   1.519  2.5821 -3.5598  1.2180
  135OSM   H14B14518   0.532   3.887   1.405  1.1575  0.2499  0.3912
  135OSM   H14C14519   0.563   3.828   1.571 -0.5157 -1.2151 -0.4196
  135OSM    C1314520   0.419   4.126   1.514  0.6263 -0.2818  0.0221
  135OSM   H13A14521   0.476   4.138   1.423 -2.2933  0.3598 -1.8631
  135OSM   H13B14522   0.454   4.186   1.596 -2.2623  1.0493  0.4025
  135OSM   H13C14523   0.330   4.178   1.479  1.2615  0.4170 -0.5951
  135OSM    C1214524   0.407   3.978   1.706  0.0970 -0.3673 -0.6636
  135OSM   H12A14525   0.490   4.033   1.748 -0.2274 -0.4282  0.0896
  135OSM   H12B14526   0.423   3.876   1.739 -1.0488  0.5927  3.4233
  135OSM    C1114527   0.280   4.009   1.782 -0.5572  0.3368 -0.3221
  135OSM   H11A14528   0.292   3.982   1.889 -1.4215 -0.9719 -0.5222
  135OSM   H11B14529   0.188   3.959   1.745  0.1413 -1.7965  0.6563
  135OSM      P14530   0.362   4.264   1.849 -0.0214  0.0339 -0.1330
  135OSM    O1314531   0.500   4.224   1.817  0.6477  0.3750  0.0166
  135OSM    O1414532   0.316   4.404   1.827 -0.0681  0.6177  0.4160
  135OSM    O1114533   0.340   4.250   2.004 -0.7795  0.0964 -0.3992
  135OSM    O1214534   0.265   4.155   1.781 -0.0040  0.0491 -0.3790
  135OSM    C1S14535   0.210   4.239   2.059  0.3920 -0.1849 -0.3837
  135OSM    H1S14536   0.159   4.142   2.038  1.9705 -1.7536  2.4877
  135OSM    H1T14537   0.148   4.327   2.032 -1.7419 -2.3765 -3.4123
  135OSM     NF14538   0.081   4.197   2.267  0.4604  0.7430 -0.9202
  135OSM    HNF14539   0.039   4.270   2.321 -0.2446 -0.3846  0.1041
  135OSM    C2S14540   0.213   4.225   2.215  0.1668 -0.7293 -0.4632
  135OSM    H2S14541   0.278   4.138   2.234 -0.3548 -1.0346 -0.0662
  135OSM    C3S14542   0.281   4.355   2.277 -0.2602 -0.1117  0.1206
  135OSM    H3S14543   0.198   4.429   2.271  0.9294  1.1659 -1.8282
  135OSM     O314544   0.385   4.418   2.195  0.3712  0.1007 -0.1605
  135OSM    HO314545   0.394   4.359   2.121 -0.7756 -0.5167  0.1776
  135OSM    C4S14546   0.307   4.355   2.425  0.1648 -0.1876 -0.6191
  135OSM    H4S14547   0.215   4.374   2.483  0.5067  1.7204 -0.6208
  135OSM    C5S14548   0.424   4.344   2.487  0.5664  0.0831  0.1751
  135OSM    H5S14549   0.514   4.318   2.430  0.3349  0.2664 -0.2779
  135OSM    C6S14550   0.441   4.340   2.633  0.4538  0.0753 -0.5242
  135OSM    H6S14551   0.496   4.428   2.675 -1.9734  1.0944  0.7405
  135OSM    H6T14552   0.508   4.260   2.670 -1.8376 -1.6004  0.2372
  135OSM    C7S14553   0.308   4.333   2.718 -0.1040 -0.0936 -0.7852
  135OSM    H7S14554   0.242   4.251   2.682 -0.6518  0.3429 -0.7918
  135OSM    H7T14555   0.260   4.433   2.707 -0.0120  0.4363  2.5948
  135OSM    C8S14556   0.345   4.328   2.875 -0.5520  0.0400  0.4112
  135OSM    H8S14557   0.413   4.415   2.893  0.4117 -1.0128  2.0886
  135OSM    H8T14558   0.406   4.236   2.886 -2.7786 -1.3727  1.7014
  135OSM    C9S14559   0.227   4.321   2.972  0.0434  0.6513 -0.7183
  135OSM    H9S14560   0.158   4.240   2.942  0.1602 -0.3370  1.4214
  135OSM    H9T14561   0.179   4.420   2.985 -0.2689  0.6833 -1.9966
  135OSM   C10S14562   0.269   4.275   3.115 -0.0277 -0.0107  0.3295
  135OSM   H10S14563   0.352   4.334   3.160 -1.6841  1.9145  0.9853
  135OSM   H10T14564   0.310   4.171   3.111 -1.9252 -0.7604 -1.3468
  135OSM   C11S14565   0.149   4.262   3.216  0.1165 -0.3051  1.1186
  135OSM   H11S14566   0.080   4.194   3.162 -1.5219  2.4784 -0.5335
  135OSM   H11T14567   0.094   4.358   3.225 -1.8290 -1.3765  1.1314
  135OSM   C12S14568   0.197   4.212   3.355 -0.1022 -0.6833  0.6069
  135OSM   H12S14569   0.280   4.273   3.397 -0.3249 -1.0279  1.5716
  135OSM   H12T14570   0.225   4.105   3.358  0.5148 -0.5804 -0.6184
  135OSM   C13S14571   0.087   4.229   3.455 -1.1559  0.0654 -0.4736
  135OSM   H13S14572  -0.012   4.189   3.424 -1.8929 -0.4263  2.2258
  135OSM   H13T14573   0.085   4.340   3.463  1.9911  0.1644  0.1589
  135OSM   C14S14574   0.127   4.172   3.596 -0.5444 -0.1228 -0.1237
  135OSM   H14S14575   0.230   4.214   3.592 -0.9548  0.8077 -3.0493
  135OSM   H14T14576   0.133   4.062   3.606 -0.3406 -0.0021  1.2934
  135OSM   C15S14577   0.054   4.233   3.710  0.2977 -0.2546 -0.4691
  135OSM   H15S14578  -0.050   4.193   3.714 -0.3224  1.3619  0.2112
  135OSM   H15T14579   0.041   4.342   3.695  0.1447 -0.3820 -1.3133
  135OSM   C16S14580   0.121   4.196   3.840  0.4064  0.4679  0.8845
  135OSM   H16S14581   0.224   4.238   3.841 -0.2337  2.1558  2.5329
  135OSM   H16T14582   0.120   4.086   3.859 -1.7758 -0.3541 -2.9455
  135OSM   C17S14583   0.043   4.267   3.952  0.6308 -0.7995 -0.6436
  135OSM   H17S14584  -0.064   4.238   3.941 -0.8600  3.4781  0.6421
  135OSM   H17T14585   0.047   4.376   3.932  2.4131 -0.9927 -1.5033
  135OSM   C18S14586   0.082   4.231   4.095  0.3941  0.3424 -0.6087
  135OSM   H18S14587   0.046   4.290   4.182  1.6211  0.3980 -0.1130
  135OSM   H18T14588   0.192   4.245   4.102  0.0059  3.2781  1.8853
  135OSM   H18U14589   0.054   4.124   4.105 -2.7495  0.9100 -2.1852
  135OSM    C1F14590   0.023   4.083   2.244 -0.0931 -0.3005  0.1568
  135OSM     OF14591   0.091   3.989   2.202  0.2743 -0.1986  0.7353
  135OSM    C2F14592  -0.133   4.066   2.261  0.1087 -0.7245  0.3048
  135OSM    H2F14593  -0.153   3.990   2.183 -0.1721 -0.9522  0.5994
  135OSM    H2G14594  -0.183   4.165   2.256 -0.6449 -1.0843  0.7228
  135OSM    C3F14595  -0.162   4.005   2.399  0.1543  0.0420 -0.0466
  135OSM    H3F14596  -0.100   3.917   2.424 -2.5697 -1.6486  1.2380
  135OSM    H3G14597  -0.265   3.966   2.392 -0.9085  2.4322  0.9882
  135OSM    C4F14598  -0.141   4.113   2.512 -0.3224  0.4838 -0.1000
  135OSM    H4F14599  -0.230   4.106   2.578 -0.6546  3.3988 -0.1205
  135OSM    H4G14600  -0.150   4.215   2.470 -0.0218 -0.6060 -2.9933
  135OSM    C5F14601  -0.003   4.110   2.592  0.0038 -0.2349 -0.1921
  135OSM    H5F14602  -0.008   4.207   2.647  1.7912 -1.1825  1.7658
  135OSM    H5G14603   0.077   4.113   2.515 -0.2034  0.5660 -0.3876
  135OSM    C6F14604   0.011   3.988   2.685 -0.7793 -0.3427  0.2781
  135OSM    H6F14605   0.117   3.988   2.718 -1.2556  0.1636  1.8546
  135OSM    H6G14606  -0.003   3.901   2.617 -0.8094  0.1274 -0.3322
  135OSM    C7F14607  -0.092   3.981   2.799 -0.0164  1.1458  0.2024
  135OSM    H7F14608  -0.191   3.972   2.749  0.5354  0.3396 -0.7986
  135OSM    H7G14609  -0.091   4.082   2.847 -0.2301  1.6613 -0.8357
  135OSM    C8F14610  -0.066   3.864   2.896  0.5125 -0.4196 -0.9488
  135OSM    H8F14611  -0.035   3.777   2.834 -2.0278 -1.4626 -0.8815
  135OSM    H8G14612  -0.160   3.832   2.944  0.9418  0.4370  0.5089
  135OSM    C9F14613   0.026   3.892   3.009 -1.0093  0.5656 -0.0010
  135OSM    H9F14614   0.117   3.935   2.965 -0.9740 -2.1850 -2.9435
  135OSM   C10F14615   0.017   3.881   3.143 -0.8122  0.5150 -0.4282
  135OSM   H10F14616   0.104   3.903   3.207  1.5804  1.3181 -3.6901
  135OSM   C11F14617  -0.107   3.836   3.219 -0.5835  0.8292  0.5770
  135OSM   H11F14618  -0.169   3.780   3.146 -0.2927 -0.6480  1.4326
  135OSM   H11G14619  -0.164   3.925   3.254 -3.0471 -0.1582 -0.7405
  135OSM   C12F14620  -0.070   3.735   3.324  0.0323  0.0451 -0.3374
  135OSM   H12F14621   0.012   3.665   3.295 -0.9550 -0.8877 -0.9805
  135OSM   H12G14622  -0.169   3.688   3.341 -0.8055  1.5656 -0.8197
  135OSM   C13F14623  -0.019   3.796   3.456  0.6216  0.7398 -0.4225
  135OSM   H13F14624  -0.084   3.882   3.483 -1.0002 -0.2599 -0.9852
  135OSM   H13G14625   0.086   3.829   3.441  1.7707 -2.0401  0.8239
  135OSM   C14F14626  -0.015   3.699   3.584 -0.1238 -0.3026 -0.1357
  135OSM   H14F14627   0.042   3.605   3.568 -0.6976 -0.6654 -0.0941
  135OSM   H14G14628  -0.116   3.662   3.610  0.9537 -3.4542  0.0052
  135OSM   C15F14629   0.040   3.777   3.697  0.2601  0.8384  0.1698
  135OSM   H15F14630  -0.025   3.865   3.717 -4.9364 -2.4361 -0.1769
  135OSM   H15G14631   0.140   3.812   3.665  1.3483 -2.0618  0.0890
  135OSM   C16F14632   0.047   3.683   3.816 -0.0275  0.0641 -0.9240
  135OSM   H16F14633  -0.043   3.619   3.800 -0.3007  0.2129 -0.0482
  135OSM   H16G14634   0.062   3.731   3.915  2.8963  0.2504 -1.3789
  135OSM   C17F14635   0.176   3.588   3.808  1.0950 -0.4867  0.3405
  135OSM   H17F14636   0.263   3.655   3.800  1.1604 -0.2583  2.4459
  135OSM   H17G14637   0.181   3.539   3.708  2.1978  1.9179 -0.8513
  135OSM   C18F14638   0.205   3.506   3.929 -0.0145 -0.0108  0.0397
  135OSM   H18F14639   0.216   3.584   4.007  1.1519 -0.8193  0.7135
  135OSM   H18G14640   0.295   3.443   3.909  0.3270  0.9784 -1.7422
  135OSM   H18H14641   0.125   3.432   3.951  0.1038 -0.1638 -0.0412
  136OSM      N14642   3.857   0.036   2.022 -0.0143 -0.2269  0.8219
  136OSM    C1514643   3.756  -0.055   1.959 -0.0340 -0.7193  0.1084
  136OSM   H15A14644   3.677  -0.086   2.025 -0.6689  0.9130  0.1719
  136OSM   H15B14645   3.805  -0.143   1.919  2.4570 -0.1829  1.7707
  136OSM   H15C14646   3.708  -0.003   1.877  0.7914  0.6493  0.4611
  136OSM    C1414647   3.919  -0.039   2.140 -0.1021 -0.3410  0.1189
  136OSM   H14A14648   3.843  -0.042   2.217 -2.9622  2.3333 -2.3057
  136OSM   H14B14649   4.006   0.016   2.173  0.0102 -0.4665  0.0291
  136OSM   H14C14650   3.949  -0.134   2.100 -0.6788 -0.3295 -0.3670
  136OSM    C1314651   3.967   0.062   1.921  0.6843  0.2256  0.1103
  136OSM   H13A14652   4.015  -0.030   1.889  3.0965  1.0210  1.1847
  136OSM   H13B14653   4.044   0.126   1.960  2.3024 -0.9738 -0.9954
  136OSM   H13C14654   3.933   0.118   1.836 -2.4657  1.6014  2.0652
  136OSM    C1214655   3.805   0.174   2.066 -0.1055 -0.0679 -0.0070
  136OSM   H12A14656   3.786   0.239   1.982 -1.0478 -0.6532 -0.2712
  136OSM   H12B14657   3.882   0.218   2.126  0.4667 -2.1290  0.8622
  136OSM    C1114658   3.675   0.176   2.157 -0.0372 -0.3832  0.6309
  136OSM   H11A14659   3.662   0.277   2.200 -0.2526 -0.5411  0.9385
  136OSM   H11B14660   3.695   0.105   2.241  1.1687  1.0755  1.6251
  136OSM      P14661   3.497   0.231   1.986 -0.0044  0.1273  0.0799
  136OSM    O1314662   3.597   0.293   1.898  0.8365  0.0761 -0.3854
  136OSM    O1414663   3.375   0.181   1.919  0.4190 -0.0340 -0.0666
  136OSM    O1114664   3.449   0.341   2.086  0.1610  0.3423 -0.0633
  136OSM    O1214665   3.565   0.130   2.081 -0.4270  0.5873 -0.5158
  136OSM    C1S14666   3.323   0.329   2.151 -0.2550  0.2031  0.1256
  136OSM    H1S14667   3.248   0.265   2.098 -0.4884  2.6124 -2.6620
  136OSM    H1T14668   3.280   0.431   2.153  2.0673  1.2674 -1.1827
  136OSM     NF14669   3.227   0.225   2.357 -0.2385 -0.1615  0.1187
  136OSM    HNF14670   3.193   0.260   2.444  0.6389 -0.4083  0.5708
  136OSM    C2S14671   3.346   0.292   2.297  0.0312  0.3217  0.0787
  136OSM    H2S14672   3.423   0.212   2.294 -1.5011 -1.2362  0.4287
  136OSM    C3S14673   3.396   0.410   2.379 -0.4358  0.6679  0.8528
  136OSM    H3S14674   3.309   0.476   2.399 -1.6279 -0.7275  0.4617
  136OSM     O314675   3.480   0.504   2.312  0.0502 -0.2624  0.5172
  136OSM    HO314676   3.470   0.476   2.221  0.9769  0.7095  0.0866
  136OSM    C4S14677   3.451   0.367   2.512  0.5637  0.1342  0.7050
  136OSM    H4S14678   3.373   0.349   2.588 -0.4758  1.3785 -0.0075
  136OSM    C5S14679   3.585   0.350   2.544 -0.3066  0.2802 -0.0090
  136OSM    H5S14680   3.650   0.352   2.455  1.3154  0.7246  1.1481
  136OSM    C6S14681   3.631   0.317   2.682  0.2396  0.4924  0.0132
  136OSM    H6S14682   3.707   0.389   2.719  2.2952 -0.4860 -2.0755
  136OSM    H6T14683   3.700   0.230   2.677  0.4362  0.1992  4.0770
  136OSM    C7S14684   3.529   0.283   2.794  0.1694 -0.6677 -0.2971
  136OSM    H7S14685   3.428   0.321   2.769  0.1247  1.1756  2.2238
  136OSM    H7T14686   3.569   0.341   2.880 -0.6347  0.0816 -0.4228
  136OSM    C8S14687   3.525   0.138   2.821 -0.3164 -0.1173 -0.6985
  136OSM    H8S14688   3.624   0.108   2.863 -0.0205  3.8421  1.9416
  136OSM    H8T14689   3.495   0.084   2.728  2.0675 -2.7555 -0.0910
  136OSM    C9S14690   3.416   0.103   2.920  1.1107  0.0724  0.2436
  136OSM    H9S14691   3.433  -0.006   2.935  4.2213  0.3600 -0.4300
  136OSM    H9T14692   3.314   0.123   2.881  0.9467 -0.8050  0.1946
  136OSM   C10S14693   3.440   0.169   3.058 -0.2117 -0.6687  0.1638
  136OSM   H10S14694   3.407   0.275   3.054 -0.0966 -0.6480 -0.3874
  136OSM   H10T14695   3.549   0.175   3.075  0.5344 -2.5514 -3.1040
  136OSM   C11S14696   3.389   0.086   3.178 -0.2181  0.0022 -0.3997
  136OSM   H11S14697   3.422  -0.021   3.176 -1.5592 -0.4211 -2.4569
  136OSM   H11T14698   3.278   0.083   3.172 -0.3524  0.9045  1.0260
  136OSM   C12S14699   3.411   0.153   3.314  0.2827  0.3738  1.3334
  136OSM   H12S14700   3.380   0.259   3.300  0.2490  0.1556 -0.5293
  136OSM   H12T14701   3.520   0.163   3.329  0.6278  0.0232 -0.6859
  136OSM   C13S14702   3.340   0.077   3.422 -0.0187 -0.0417  0.2236
  136OSM   H13S14703   3.377  -0.028   3.424  2.2712  0.7015 -0.0812
  136OSM   H13T14704   3.232   0.071   3.397 -0.2042 -0.4916  1.0717
  136OSM   C14S14705   3.359   0.119   3.566 -0.0013  0.0559  0.9684
  136OSM   H14S14706   3.302   0.211   3.592  2.2012  1.5530  0.7146
  136OSM   H14T14707   3.467   0.128   3.587  0.7356 -1.2566 -1.8443
  136OSM   C15S14708   3.301   0.013   3.667  0.4659  0.6431  0.4431
  136OSM   H15S14709   3.369  -0.073   3.650 -0.5576 -0.3060  1.0233
  136OSM   H15T14710   3.202  -0.029   3.639  0.6295  1.2587 -1.2056
  136OSM   C16S14711   3.293   0.055   3.811 -0.4152  0.2343 -0.2478
  136OSM   H16S14712   3.392   0.064   3.861 -0.3742 -0.3246 -0.2190
  136OSM   H16T14713   3.256  -0.037   3.862 -1.0257  0.5334 -0.1506
  136OSM   C17S14714   3.205   0.171   3.857 -0.6134 -0.3257 -0.3788
  136OSM   H17S14715   3.240   0.263   3.806  1.0110 -0.3519  0.6209
  136OSM   H17T14716   3.225   0.191   3.965  0.2655  2.0038 -0.9133
  136OSM   C18S14717   3.059   0.135   3.846  0.4758 -0.7531  0.3095
  136OSM   H18S14718   3.064   0.026   3.862  0.5461 -0.6995  0.6666
  136OSM   H18T14719   3.014   0.161   3.748 -1.0908  0.4308  1.2893
  136OSM   H18U14720   2.996   0.184   3.924 -0.5234 -1.9354  0.2786
  136OSM    C1F14721   3.186   0.104   2.318 -0.8126  0.1213 -0.0359
  136OSM     OF14722   3.252   0.035   2.242 -0.6847 -0.1330  0.2644
  136OSM    C2F14723   3.051   0.062   2.372 -0.3737  0.0885 -0.3865
  136OSM    H2F14724   2.978   0.044   2.290 -0.6796 -1.6380  0.2172
  136OSM    H2G14725   3.003   0.131   2.445 -1.6348 -1.0988 -0.0366
  136OSM    C3F14726   3.072  -0.071   2.442 -0.3889 -0.2122 -0.2311
  136OSM    H3F14727   3.161  -0.074   2.508 -0.9323  1.5841  0.6340
  136OSM    H3G14728   3.091  -0.144   2.360 -0.6853 -1.1773  0.5397
  136OSM    C4F14729   2.954  -0.121   2.525  0.6526  0.8597  0.3782
  136OSM    H4F14730   2.995  -0.217   2.560  3.0781  0.7087 -2.4549
  136OSM    H4G14731   2.872  -0.140   2.452  2.5329  2.8650 -2.4557
  136OSM    C5F14732   2.898  -0.027   2.633 -0.0656 -0.0383 -0.2835
  136OSM    H5F14733   2.818  -0.075   2.694  1.5842 -0.9333  1.2846
  136OSM    H5G14734   2.860   0.063   2.580  0.2605 -0.1759 -0.7567
  136OSM    C6F14735   3.008   0.018   2.730  0.6529 -0.0876  0.6741
  136OSM    H6F14736   2.952   0.098   2.783 -1.0061 -0.3542 -0.5858
  136OSM    H6G14737   3.084   0.067   2.666 -0.0525 -0.1720 -0.2346
  136OSM    C7F14738   3.072  -0.083   2.829  0.3010 -0.1361  0.0514
  136OSM    H7F14739   3.152  -0.032   2.887 -0.8868  2.2150 -0.2291
  136OSM    H7G14740   3.126  -0.150   2.759  0.5331 -1.0482  1.0734
  136OSM    C8F14741   2.979  -0.168   2.911 -0.4549  0.4323  0.2651
  136OSM    H8F14742   3.051  -0.239   2.957  0.1828  0.9138  0.0204
  136OSM    H8G14743   2.922  -0.245   2.854  0.0486 -0.6096  1.1393
  136OSM    C9F14744   2.901  -0.103   3.016 -0.5575 -0.4854 -0.4530
  136OSM    H9F14745   2.801  -0.082   2.973 -0.4481 -0.2899 -0.6129
  136OSM   C10F14746   2.933  -0.083   3.146  0.1616 -0.3664 -0.3824
  136OSM   H10F14747   2.863  -0.025   3.207  0.4908 -1.9193  1.5766
  136OSM   C11F14748   3.059  -0.133   3.213  0.0144 -0.1037  0.4281
  136OSM   H11F14749   3.122  -0.044   3.237 -0.0507  1.2704 -3.7735
  136OSM   H11G14750   3.120  -0.193   3.142 -0.1247  0.4679 -0.1834
  136OSM   C12F14751   3.033  -0.194   3.353  0.5103 -0.2648  0.5289
  136OSM   H12F14752   3.129  -0.216   3.404  0.7795  2.2208  1.1852
  136OSM   H12G14753   2.978  -0.291   3.351 -1.6286  0.9017 -0.3359
  136OSM   C13F14754   2.950  -0.113   3.454 -0.2371  0.0182 -0.0346
  136OSM   H13F14755   2.855  -0.086   3.403 -0.1506  1.1348  0.3740
  136OSM   H13G14756   2.999  -0.017   3.481 -0.5738 -0.3175  1.8576
  136OSM   C14F14757   2.930  -0.193   3.587 -0.0741 -0.4722  0.1877
  136OSM   H14F14758   3.020  -0.215   3.648 -0.8178 -0.8066  1.1945
  136OSM   H14G14759   2.880  -0.287   3.558  0.2839 -0.0667 -1.9151
  136OSM   C15F14760   2.823  -0.124   3.682  0.0718 -0.4046 -0.4623
  136OSM   H15F14761   2.732  -0.103   3.622  0.0596 -0.4525 -0.4610
  136OSM   H15G14762   2.861  -0.024   3.712  2.0564 -0.5600 -2.2099
  136OSM   C16F14763   2.780  -0.216   3.792  0.0251 -0.1410 -1.2088
  136OSM   H16F14764   2.862  -0.250   3.858 -0.5176 -0.3209 -0.6178
  136OSM   H16G14765   2.740  -0.308   3.744  0.4256 -0.2184 -1.3933
  136OSM   C17F14766   2.682  -0.179   3.900 -0.3843  0.6497  0.1448
  136OSM   H17F14767   2.675  -0.256   3.979  2.6699  1.4874  1.3440
  136OSM   H17G14768   2.574  -0.171   3.872 -1.8250 -3.0301  3.6838
  136OSM   C18F14769   2.715  -0.051   3.971  0.2793  0.5282 -0.1526
  136OSM   H18F14770   2.710   0.038   3.904  0.8422 -0.0908 -1.0305
  136OSM   H18G14771   2.815  -0.059   4.018  0.7855 -2.0848 -1.5087
  136OSM   H18H14772   2.642  -0.030   4.053 -0.6725  3.0309 -1.5290
  137OSM      N14773   0.277   5.204   1.885 -0.4259  0.1348  0.3400
  137OSM    C1514774   0.150   5.166   1.826  0.4823 -0.5941  0.2196
  137OSM   H15A14775   0.080   5.248   1.832  2.4598  1.2943 -0.8585
  137OSM   H15B14776   0.099   5.078   1.861  1.2047 -0.2969  2.1047
  137OSM   H15C14777   0.152   5.157   1.718  1.4544  1.1373  0.0661
  137OSM    C1414778   0.377   5.096   1.859  0.0686 -0.6795 -0.0826
  137OSM   H14A14779   0.358   5.061   1.758  2.0806 -1.1859 -0.3360
  137OSM   H14B14780   0.356   5.005   1.913 -0.3842 -1.5075 -1.5886
  137OSM   H14C14781   0.478   5.133   1.860 -0.5694  1.2950 -1.5889
  137OSM    C1314782   0.333   5.312   1.801 -0.4695  0.0146 -1.1610
  137OSM   H13A14783   0.432   5.334   1.837 -1.3579  0.1952  1.3710
  137OSM   H13B14784   0.272   5.400   1.812  0.5577  0.6101  0.0571
  137OSM   H13C14785   0.341   5.285   1.696 -0.4966  2.1722 -1.7545
  137OSM    C1214786   0.271   5.232   2.029  0.1598  0.3520  0.6280
  137OSM   H12A14787   0.192   5.304   2.041 -0.2117  0.0467  0.0551
  137OSM   H12B14788   0.360   5.288   2.054 -0.0094  0.8722  0.0843
  137OSM    C1114789   0.251   5.115   2.124 -0.7761 -0.5117 -0.5595
  137OSM   H11A14790   0.288   5.132   2.228  1.8082 -0.9749 -1.3336
  137OSM   H11B14791   0.324   5.037   2.093  0.4700  0.1202  0.6709
  137OSM      P14792   0.076   4.921   2.084  0.5428  0.2481 -0.2333
  137OSM    O1314793  -0.074   4.902   2.085 -0.5722  0.0312 -0.2342
  137OSM    O1414794   0.138   4.880   1.959  0.1307  0.5912  0.3181
  137OSM    O1114795   0.133   4.829   2.203 -0.5617  0.7427 -0.2029
  137OSM    O1214796   0.116   5.070   2.131  0.0763  0.0804  0.3111
  137OSM    C1S14797   0.119   4.851   2.342  0.2055 -0.2747  0.4873
  137OSM    H1S14798   0.021   4.808   2.373  1.2775 -3.2847  0.0020
  137OSM    H1T14799   0.120   4.959   2.366 -0.6336 -0.0075 -0.5739
  137OSM     NF14800   0.201   4.786   2.564  0.8423 -0.7738 -0.2294
  137OSM    HNF14801   0.257   4.857   2.606  2.1908 -2.2062  0.4953
  137OSM    C2S14802   0.224   4.778   2.425 -0.7626  0.6841 -1.0805
  137OSM    H2S14803   0.215   4.670   2.397 -4.7997  0.3872  0.7206
  137OSM    C3S14804   0.363   4.830   2.382 -0.1411 -0.2087 -0.1294
  137OSM    H3S14805   0.369   4.937   2.411 -0.0648 -1.0380  3.4020
  137OSM     O314806   0.403   4.817   2.243 -0.0427 -0.1909  0.1875
  137OSM    HO314807   0.317   4.837   2.204  0.0904  0.2747  0.1313
  137OSM    C4S14808   0.472   4.753   2.460  0.2165 -0.6400 -0.3931
  137OSM    H4S14809   0.482   4.648   2.429 -0.1010 -0.2490 -1.9061
  137OSM    C5S14810   0.537   4.809   2.561 -0.3039  0.5246 -0.5733
  137OSM    H5S14811   0.515   4.915   2.580  0.7213  0.5162  0.7593
  137OSM    C6S14812   0.645   4.744   2.649 -0.8481  0.0016  0.7973
  137OSM    H6S14813   0.734   4.787   2.600 -1.3500 -2.0331 -2.2273
  137OSM    H6T14814   0.653   4.634   2.634 -0.3642  0.2895 -1.3158
  137OSM    C7S14815   0.640   4.784   2.796  0.3341  0.1751 -1.0668
  137OSM    H7S14816   0.622   4.893   2.800  0.7468  0.2096  1.8769
  137OSM    H7T14817   0.737   4.762   2.844  1.6427  2.1741 -2.6228
  137OSM    C8S14818   0.523   4.709   2.871 -0.7356  0.2685 -0.1324
  137OSM    H8S14819   0.555   4.602   2.880 -0.8204  0.4024  2.3424
  137OSM    H8T14820   0.436   4.703   2.803 -1.4964 -1.2264  0.9095
  137OSM    C9S14821   0.494   4.759   3.013  0.4475  0.1116 -0.4459
  137OSM    H9S14822   0.453   4.863   3.013  1.1519  0.3927 -0.4170
  137OSM    H9T14823   0.584   4.767   3.077 -0.3216  0.4156  0.6342
  137OSM   C10S14824   0.388   4.666   3.085 -0.3462 -0.1196 -0.8118
  137OSM   H10S14825   0.443   4.573   3.108 -1.6816 -1.1660 -1.6945
  137OSM   H10T14826   0.305   4.657   3.012 -1.0603  2.8151 -0.5082
  137OSM   C11S14827   0.345   4.704   3.224 -0.2955 -0.0576 -0.2121
  137OSM   H11S14828   0.284   4.796   3.214  0.9397  1.1087  2.1179
  137OSM   H11T14829   0.426   4.731   3.295  1.0369 -0.5638 -1.5009
  137OSM   C12S14830   0.265   4.594   3.302 -1.0804  0.3966 -0.0444
  137OSM   H12S14831   0.342   4.517   3.320 -0.6094  1.3306  2.4180
  137OSM   H12T14832   0.192   4.539   3.240 -0.0855 -2.0390  0.8297
  137OSM   C13S14833   0.205   4.646   3.437 -0.0648 -0.2358 -0.5412
  137OSM   H13S14834   0.101   4.607   3.448  0.2496 -0.7826  0.6763
  137OSM   H13T14835   0.190   4.755   3.428 -1.2704 -0.5375 -3.4085
  137OSM   C14S14836   0.285   4.600   3.552  0.4842 -0.0533 -0.2379
  137OSM   H14S14837   0.386   4.646   3.551  1.4893 -2.1072  1.5013
  137OSM   H14T14838   0.305   4.492   3.564 -0.2261 -0.0493  1.1209
  137OSM   C15S14839   0.216   4.644   3.685  0.5334 -0.1582  0.1381
  137OSM   H15S14840   0.108   4.622   3.690  0.5446 -1.3385 -2.6012
  137OSM   H15T14841   0.229   4.754   3.695 -0.1088 -0.1156  0.5261
  137OSM   C16S14842   0.275   4.583   3.812  0.1657  0.6140 -0.4657
  137OSM   H16S14843   0.381   4.614   3.809  0.9594 -1.9949 -2.3358
  137OSM   H16T14844   0.279   4.474   3.828  0.5235  0.8592  1.2682
  137OSM   C17S14845   0.207   4.646   3.935  0.1568  0.9652  0.4344
  137OSM   H17S14846   0.109   4.601   3.963  0.2815  1.7576  2.3172
  137OSM   H17T14847   0.184   4.751   3.907 -0.5175  0.0113 -3.1007
  137OSM   C18S14848   0.296   4.645   4.061 -0.1451 -0.2669 -0.3389
  137OSM   H18S14849   0.290   4.538   4.093 -1.7023  0.2519  1.2880
  137OSM   H18T14850   0.235   4.703   4.134 -2.0589 -1.1714 -1.1413
  137OSM   H18U14851   0.396   4.689   4.043 -0.2221  0.7066  1.4046
  137OSM    C1F14852   0.099   4.722   2.626  0.0781  0.2729 -0.5500
  137OSM     OF14853   0.035   4.637   2.571  1.0186  0.4342  0.1236
  137OSM    C2F14854   0.072   4.762   2.766  0.6329 -0.7011  0.2493
  137OSM    H2F14855   0.028   4.864   2.770 -0.0800 -0.9042 -1.4929
  137OSM    H2G14856   0.172   4.771   2.813  0.9982 -0.7240 -0.5144
  137OSM    C3F14857  -0.016   4.657   2.849 -0.7597 -0.2504  1.0482
  137OSM    H3F14858   0.034   4.560   2.871  0.6247  0.3605  0.6937
  137OSM    H3G14859  -0.111   4.639   2.794 -0.3503  1.5950 -0.3561
  137OSM    C4F14860  -0.056   4.698   2.994  0.2818  0.5318  0.6603
  137OSM    H4F14861  -0.114   4.790   2.972 -0.1895  0.3915  1.2917
  137OSM    H4G14862   0.035   4.722   3.054  1.1066 -1.1746  0.1701
  137OSM    C5F14863  -0.131   4.581   3.053  0.6174  0.0856  0.2216
  137OSM    H5F14864  -0.054   4.503   3.069 -0.0624 -0.8454 -0.9215
  137OSM    H5G14865  -0.197   4.534   2.977  3.0807 -1.3849 -1.1215
  137OSM    C6F14866  -0.216   4.615   3.179 -0.2295  0.6627 -0.6205
  137OSM    H6F14867  -0.290   4.536   3.203  0.3518 -0.0028 -0.9963
  137OSM    H6G14868  -0.282   4.705   3.176  0.3423  1.0625 -3.0115
  137OSM    C7F14869  -0.124   4.628   3.302 -0.4679 -0.0571 -0.0676
  137OSM    H7F14870  -0.052   4.713   3.297 -0.3455 -0.0449  1.4310
  137OSM    H7G14871  -0.068   4.532   3.304  0.9240  0.7237  2.7315
  137OSM    C8F14872  -0.202   4.645   3.436  0.7163 -0.3968  0.3853
  137OSM    H8F14873  -0.258   4.741   3.430  2.0566  0.5126  1.6840
  137OSM    H8G14874  -0.131   4.671   3.518  1.2142  3.3412 -1.0246
  137OSM    C9F14875  -0.312   4.543   3.452 -0.7140 -0.0443 -0.0574
  137OSM    H9F14876  -0.387   4.560   3.374 -0.7410  3.5048  0.5556
  137OSM   C10F14877  -0.314   4.460   3.559 -0.4278  0.0899  0.3013
  137OSM   H10F14878  -0.390   4.380   3.558  1.1903 -1.6446  2.8843
  137OSM   C11F14879  -0.215   4.453   3.666 -0.5621 -0.3106  0.3222
  137OSM   H11F14880  -0.113   4.468   3.626 -1.0726  0.9918 -0.5518
  137OSM   H11G14881  -0.218   4.350   3.708 -0.8523  0.0944  1.3116
  137OSM   C12F14882  -0.232   4.552   3.780  0.3574 -0.1937 -0.1220
  137OSM   H12F14883  -0.208   4.653   3.739  1.5743 -0.0421  0.8878
  137OSM   H12G14884  -0.161   4.542   3.864  0.0394  0.5459  0.2411
  137OSM   C13F14885  -0.381   4.554   3.834  0.2258  0.1533  0.1383
  137OSM   H13F14886  -0.452   4.521   3.756 -2.3202  0.3618  2.2362
  137OSM   H13G14887  -0.390   4.660   3.866  0.7223  0.6929 -1.4318
  137OSM   C14F14888  -0.422   4.462   3.951  0.2059 -0.2592 -0.4205
  137OSM   H14F14889  -0.356   4.493   4.035  1.9004 -0.2541 -1.7021
  137OSM   H14G14890  -0.392   4.363   3.912  1.1028 -0.2448  0.1990
  137OSM   C15F14891  -0.571   4.472   3.977 -0.6223  0.1238  0.1261
  137OSM   H15F14892  -0.628   4.483   3.882 -0.2371  5.2729  0.2031
  137OSM   H15G14893  -0.601   4.567   4.026 -0.6091 -0.5472  1.4870
  137OSM   C16F14894  -0.629   4.354   4.057 -0.3625 -0.6033  1.1467
  137OSM   H16F14895  -0.582   4.358   4.158  1.6344 -0.8388  0.2569
  137OSM   H16G14896  -0.602   4.262   4.001 -0.7744  0.8410 -1.5510
  137OSM   C17F14897  -0.775   4.363   4.099  0.3220 -0.3009  0.1324
  137OSM   H17F14898  -0.850   4.362   4.016  0.8316 -0.8891 -0.3294
  137OSM   H17G14899  -0.793   4.462   4.146 -1.6389 -1.3558  1.7537
  137OSM   C18F14900  -0.801   4.248   4.200 -0.3550 -1.5459  0.0427
  137OSM   H18F14901  -0.786   4.151   4.148  1.5857 -0.6703 -1.1503
  137OSM   H18G14902  -0.909   4.249   4.227 -1.3714 -1.0857 -3.4910
  137OSM   H18H14903  -0.737   4.254   4.290  1.3268 -1.2562 -1.1316
  138OSM      N14904   6.200   0.271   1.963 -0.0939 -0.2337  0.2728
  138OSM    C1514905   6.279   0.385   1.899 -0.0209 -0.0446 -0.7760
  138OSM   H15A14906   6.277   0.394   1.791  1.5174  1.3705 -0.7260
  138OSM   H15B14907   6.384   0.375   1.921 -0.2843  0.5132  0.9250
  138OSM   H15C14908   6.240   0.482   1.927  0.6273 -0.1465  0.5765
  138OSM    C1414909   6.254   0.142   1.900  0.0526 -0.6954 -0.5955
  138OSM   H14A14910   6.238   0.144   1.793 -2.9771 -1.8181 -0.2475
  138OSM   H14B14911   6.210   0.056   1.946  0.1706  0.2099  1.3005
  138OSM   H14C14912   6.360   0.138   1.922  0.4313  2.6001 -1.1787
  138OSM    C1314913   6.234   0.259   2.108  0.1463 -0.2802 -0.2574
  138OSM   H13A14914   6.337   0.289   2.123  0.1183 -0.3768  0.1322
  138OSM   H13B14915   6.207   0.166   2.155  0.9411 -0.7307 -0.6582
  138OSM   H13C14916   6.169   0.329   2.159  0.9026  0.9047 -0.8723
  138OSM    C1214917   6.045   0.287   1.946 -0.6771 -0.3753  0.2093
  138OSM   H12A14918   6.027   0.376   2.004  0.5268 -0.1153  0.2180
  138OSM   H12B14919   5.999   0.200   1.990  0.2814 -2.7948 -3.1510
  138OSM    C1114920   5.995   0.297   1.800  0.3132  0.2294  0.3989
  138OSM   H11A14921   6.056   0.376   1.750 -0.2216  1.5475  1.7181
  138OSM   H11B14922   5.901   0.357   1.803  0.4837  0.5574 -0.6424
  138OSM      P14923   5.860   0.088   1.739  0.4830  0.1357  0.2710
  138OSM    O1314924   5.754   0.150   1.658  0.0979 -0.7506 -0.3280
  138OSM    O1414925   5.900  -0.052   1.699  0.2748 -0.8288  0.2921
  138OSM    O1114926   5.813   0.095   1.887  0.4162 -0.3116  0.3425
  138OSM    O1214927   5.985   0.175   1.735  0.2482  0.1152 -0.4003
  138OSM    C1S14928   5.872  -0.009   1.974 -0.1253  0.2896 -0.2939
  138OSM    H1S14929   5.981  -0.023   1.962 -0.0579  0.7925 -0.2738
  138OSM    H1T14930   5.824  -0.105   1.943 -0.2115 -0.0224  0.7887
  138OSM     NF14931   5.901  -0.077   2.210  0.2068  0.3892 -0.5995
  138OSM    HNF14932   5.868  -0.171   2.217 -0.5514  0.5040 -2.1650
  138OSM    C2S14933   5.837   0.020   2.125 -0.3767  0.4835 -0.2764
  138OSM    H2S14934   5.869   0.118   2.165  1.5288  0.7603 -2.2534
  138OSM    C3S14935   5.683   0.017   2.145  0.2429  0.3748 -0.8470
  138OSM    H3S14936   5.642  -0.070   2.090  0.3166 -0.8271  0.9138
  138OSM     O314937   5.622   0.135   2.087 -0.0463  0.5819 -0.0022
  138OSM    HO314938   5.686   0.150   2.018  1.1917  0.0192  0.9830
  138OSM    C4S14939   5.646   0.010   2.292 -0.0770  0.5836 -0.0522
  138OSM    H4S14940   5.623  -0.090   2.332 -0.4066  0.7181  0.0951
  138OSM    C5S14941   5.629   0.117   2.368 -0.2368 -0.0515  0.3267
  138OSM    H5S14942   5.657   0.213   2.322 -2.1868  0.1481 -0.5359
  138OSM    C6S14943   5.598   0.102   2.517  0.2704 -0.1237  0.8372
  138OSM    H6S14944   5.538   0.009   2.533 -1.7736  0.9819 -0.0166
  138OSM    H6T14945   5.532   0.186   2.547  0.4036 -0.0093  0.8116
  138OSM    C7S14946   5.729   0.111   2.592  0.6466 -0.0313 -0.2720
  138OSM    H7S14947   5.770   0.212   2.571 -0.0470  0.4641  0.6456
  138OSM    H7T14948   5.802   0.042   2.545  1.4476  1.3512 -1.1152
  138OSM    C8S14949   5.714   0.088   2.744  0.4503 -0.6015 -0.5410
  138OSM    H8S14950   5.636   0.157   2.783 -0.5160 -1.6500 -0.5960
  138OSM    H8T14951   5.806   0.112   2.801 -0.1536 -3.9487  2.1497
  138OSM    C9S14952   5.696  -0.053   2.791 -0.0042 -0.1455  0.2221
  138OSM    H9S14953   5.787  -0.114   2.772 -0.5200 -0.6769 -0.6166
  138OSM    H9T14954   5.614  -0.099   2.732 -0.6603  1.2638  0.0036
  138OSM   C10S14955   5.669  -0.063   2.944 -0.3091 -0.2862 -0.1202
  138OSM   H10S14956   5.653  -0.170   2.971  2.4829 -0.5883  0.6635
  138OSM   H10T14957   5.580  -0.006   2.975  1.1885  1.4231  1.2488
  138OSM   C11S14958   5.774  -0.008   3.045 -0.1131  0.5401  0.8620
  138OSM   H11S14959   5.790   0.101   3.035 -1.6458  0.9421  2.3841
  138OSM   H11T14960   5.867  -0.067   3.029 -0.9740 -0.7414  0.3994
  138OSM   C12S14961   5.723  -0.040   3.188 -0.7252  0.1535  0.5155
  138OSM   H12S14962   5.700  -0.149   3.191  0.4454 -0.1213 -0.0560
  138OSM   H12T14963   5.627   0.009   3.216 -1.7038 -2.1151  1.4742
  138OSM   C13S14964   5.830  -0.012   3.292  0.7712 -0.2423 -0.5183
  138OSM   H13S14965   5.850   0.097   3.298 -0.9552  0.0590  0.8117
  138OSM   H13T14966   5.924  -0.067   3.270  0.4281 -0.4777 -1.4358
  138OSM   C14S14967   5.774  -0.042   3.436  0.3323 -0.1304  0.3544
  138OSM   H14S14968   5.749  -0.151   3.431 -1.4604  0.1885  1.5090
  138OSM   H14T14969   5.671  -0.003   3.448 -0.9072 -3.4539  1.8903
  138OSM   C15S14970   5.861   0.000   3.552 -0.7535 -0.4527 -0.3405
  138OSM   H15S14971   5.870   0.111   3.548  2.3976 -0.4667  1.9013
  138OSM   H15T14972   5.964  -0.036   3.530  0.7759  2.2913  1.6412
  138OSM   C16S14973   5.810  -0.059   3.690  0.1348  0.7747 -0.3952
  138OSM   H16S14974   5.798  -0.169   3.688  2.3671  0.4761  0.2510
  138OSM   H16T14975   5.713  -0.007   3.706  0.2698  1.1623 -0.8029
  138OSM   C17S14976   5.890  -0.030   3.816  0.2975  0.5786  0.3907
  138OSM   H17S14977   5.921   0.076   3.808 -1.0978  0.9776  0.1098
  138OSM   H17T14978   5.980  -0.095   3.820 -0.8310 -0.9875  3.0016
  138OSM   C18S14979   5.811  -0.040   3.950  0.3997 -0.4981 -0.4970
  138OSM   H18S14980   5.726   0.031   3.947 -0.8891 -2.0121 -1.9751
  138OSM   H18T14981   5.880  -0.013   4.033 -0.2730 -3.7834  1.2972
  138OSM   H18U14982   5.778  -0.142   3.979 -1.5597  0.9654  3.0440
  138OSM    C1F14983   6.027  -0.060   2.254  0.3961 -0.1971 -0.2462
  138OSM     OF14984   6.086   0.040   2.224 -0.4356 -0.6144  0.8381
  138OSM    C2F14985   6.085  -0.170   2.343  0.0806 -0.3760  0.3815
  138OSM    H2F14986   6.146  -0.240   2.282  0.1051  0.8855 -1.0989
  138OSM    H2G14987   6.009  -0.233   2.395  0.5465  0.4988  2.2139
  138OSM    C3F14988   6.178  -0.124   2.457 -0.1020 -0.4273 -0.3540
  138OSM    H3F14989   6.254  -0.054   2.418 -0.0441  0.4389  1.2188
  138OSM    H3G14990   6.238  -0.213   2.487 -0.2942 -0.5616 -0.3608
  138OSM    C4F14991   6.106  -0.069   2.578  0.1226  0.6461  0.3248
  138OSM    H4F14992   6.054  -0.150   2.633  0.0748  1.2830  1.2436
  138OSM    H4G14993   6.026   0.001   2.546 -0.3420  0.1416  0.3652
  138OSM    C5F14994   6.195   0.002   2.679 -0.0915  1.0538 -0.2965
  138OSM    H5F14995   6.247   0.094   2.644 -0.2050  2.7578  3.4706
  138OSM    H5G14996   6.275  -0.074   2.692  0.6130  1.6678 -0.9706
  138OSM    C6F14997   6.126   0.035   2.812  0.1107 -1.4090  0.5291
  138OSM    H6F14998   6.083  -0.056   2.859 -1.4137 -0.4389  1.0558
  138OSM    H6G14999   6.040   0.101   2.788  2.7035  1.7156 -0.9845
  138OSM    C7F15000   6.226   0.095   2.917  0.5089 -1.3897 -1.0602
  138OSM    H7F15001   6.268   0.192   2.881 -1.3866  0.1045  0.4761
  138OSM    H7G15002   6.311   0.023   2.923  2.3337  0.6565 -1.0264
  138OSM    C8F15003   6.172   0.114   3.063 -0.9606 -0.3703  0.0441
  138OSM    H8F15004   6.138   0.016   3.104 -0.2797 -0.9519 -0.7359
  138OSM    H8G15005   6.086   0.184   3.055 -1.0594 -0.5305 -0.3674
  138OSM    C9F15006   6.278   0.176   3.146  0.1028  0.0014 -0.0707
  138OSM    H9F15007   6.315   0.277   3.123 -0.8004  0.5805  0.9467
  138OSM   C10F15008   6.354   0.120   3.243 -0.4850 -0.2510 -0.1999
  138OSM   H10F15009   6.438   0.179   3.282  0.2680 -0.4326 -1.4941
  138OSM   C11F15010   6.358  -0.022   3.285  0.8293 -0.2692 -0.6512
  138OSM   H11F15011   6.463  -0.044   3.314 -0.0046 -0.6432  2.4195
  138OSM   H11G15012   6.325  -0.086   3.201 -0.7537  0.6526 -0.7701
  138OSM   C12F15013   6.281  -0.054   3.409 -0.8699 -0.2921  0.6287
  138OSM   H12F15014   6.244  -0.158   3.396 -1.2091 -0.1237  0.2208
  138OSM   H12G15015   6.185   0.001   3.413 -0.7894  0.2818 -2.4936
  138OSM   C13F15016   6.366  -0.024   3.542  0.7533  0.2251  0.0567
  138OSM   H13F15017   6.420   0.073   3.543  1.0379  0.0719 -0.3694
  138OSM   H13G15018   6.444  -0.101   3.559 -0.6182 -1.2318  0.0190
  138OSM   C14F15019   6.278  -0.047   3.665 -0.0773 -1.3554 -0.0988
  138OSM   H14F15020   6.240  -0.151   3.661 -0.6820 -1.1141 -1.3768
  138OSM   H14G15021   6.189   0.020   3.661 -0.5048 -1.8657  0.6765
  138OSM   C15F15022   6.349   0.007   3.795  0.1295  0.4668  0.8710
  138OSM   H15F15023   6.375   0.113   3.777 -0.0967  0.1082 -2.1671
  138OSM   H15G15024   6.446  -0.045   3.810  1.5275  2.4674 -0.6260
  138OSM   C16F15025   6.261  -0.004   3.924 -0.1887 -0.1219 -0.2491
  138OSM   H16F15026   6.221  -0.108   3.933  1.7431 -0.9321 -0.4668
  138OSM   H16G15027   6.169   0.057   3.916 -0.3964 -0.1823  1.4435
  138OSM   C17F15028   6.337   0.036   4.050  0.3914 -0.1115  0.6150
  138OSM   H17F15029   6.380   0.137   4.033  0.1779 -0.5301 -3.6298
  138OSM   H17G15030   6.421  -0.035   4.069  0.4033 -1.1494 -2.6784
  138OSM   C18F15031   6.254   0.049   4.178  0.2439  0.5476  0.4170
  138OSM   H18F15032   6.159  -0.008   4.166  1.8007 -1.7898 -2.0081
  138OSM   H18G15033   6.227   0.155   4.197  2.7656  1.3731 -0.2687
  138OSM   H18H15034   6.315   0.022   4.267  1.3242  0.8113 -0.2358
  139OSM      N15035   1.377   4.176   1.792  0.2929  0.0419 -0.5841
  139OSM    C1515036   1.519   4.181   1.759 -1.3177  0.0790  1.0349
  139OSM   H15A15037   1.574   4.116   1.827 -1.9168 -0.7016  0.7946
  139OSM   H15B15038   1.566   4.277   1.774  2.1023 -0.9721 -1.6173
  139OSM   H15C15039   1.539   4.147   1.658 -0.1428  0.0177  1.2658
  139OSM    C1415040   1.310   4.271   1.697  0.2717  0.5702 -0.2227
  139OSM   H14A15041   1.352   4.371   1.697  1.6192  0.0091 -0.7092
  139OSM   H14B15042   1.205   4.285   1.720 -0.8759  0.0553 -4.4282
  139OSM   H14C15043   1.314   4.238   1.595 -1.1232 -0.6782  0.0887
  139OSM    C1315044   1.318   4.040   1.765 -0.5441 -0.1340  0.7226
  139OSM   H13A15045   1.338   4.014   1.663  0.7663 -0.8320  1.1347
  139OSM   H13B15046   1.210   4.038   1.776 -0.5234  1.3779  1.4253
  139OSM   H13C15047   1.353   3.968   1.837 -0.6970 -0.6780  0.2579
  139OSM    C1215048   1.351   4.222   1.938 -0.4515 -0.1615 -0.0222
  139OSM   H12A15049   1.379   4.326   1.949 -0.3680 -0.2315  0.4443
  139OSM   H12B15050   1.425   4.173   2.000 -0.2176 -1.4539 -1.2777
  139OSM    C1115051   1.218   4.206   2.008  0.6459  0.1669 -0.7363
  139OSM   H11A15052   1.134   4.252   1.951 -0.2589 -0.9429 -0.3354
  139OSM   H11B15053   1.214   4.263   2.104  1.4280 -0.3889 -0.3601
  139OSM      P15054   1.282   3.988   2.131  0.0908 -0.0273 -0.1810
  139OSM    O1315055   1.245   3.844   2.135 -0.0521  0.1865 -0.2741
  139OSM    O1415056   1.431   4.012   2.102  0.0573  0.6122  0.5453
  139OSM    O1115057   1.236   4.048   2.269 -0.1041 -0.0790 -0.3304
  139OSM    O1215058   1.191   4.066   2.028  0.2775  0.0720 -0.5827
  139OSM    C1S15059   1.108   4.071   2.315 -0.1254  0.3555 -0.2375
  139OSM    H1S15060   1.029   4.053   2.239 -0.0150  2.5440 -0.9326
  139OSM    H1T15061   1.094   4.180   2.333 -1.0971  0.3261 -0.7509
  139OSM     NF15062   0.941   3.966   2.475  0.2543 -0.8236  0.4574
  139OSM    HNF15063   0.901   4.014   2.553 -0.0415 -1.9862  1.0424
  139OSM    C2S15064   1.082   3.987   2.447  0.0262 -0.4726 -1.1991
  139OSM    H2S15065   1.118   3.884   2.426  1.4921  0.0215 -1.2450
  139OSM    C3S15066   1.167   4.040   2.563  0.7132 -0.1792 -0.2995
  139OSM    H3S15067   1.136   4.142   2.594  1.8817  1.1298 -3.0930
  139OSM     O315068   1.300   4.063   2.528  0.2258 -0.1990 -0.3811
  139OSM    HO315069   1.288   4.081   2.434 -1.8310  0.7002 -0.0152
  139OSM    C4S15070   1.156   3.943   2.676 -0.1999  0.1702  0.2022
  139OSM    H4S15071   1.201   3.844   2.660 -0.3965  0.2330 -0.7747
  139OSM    C5S15072   1.095   3.971   2.799  0.0592 -0.2160  0.0596
  139OSM    H5S15073   1.050   4.066   2.833  0.5464 -0.1036  0.4005
  139OSM    C6S15074   1.088   3.857   2.894  0.2594 -0.6043 -0.9055
  139OSM    H6S15075   1.147   3.763   2.880 -0.2585 -1.5235  2.3007
  139OSM    H6T15076   0.983   3.827   2.915  0.0765  0.9038  0.4720
  139OSM    C7S15077   1.141   3.898   3.034  0.2960 -0.2324 -0.7218
  139OSM    H7S15078   1.247   3.931   3.023  0.4985 -1.0423 -1.3299
  139OSM    H7T15079   1.148   3.807   3.097  0.6477 -0.5181 -1.1696
  139OSM    C8S15080   1.058   4.008   3.119 -0.4595 -0.0354 -0.2245
  139OSM    H8S15081   0.961   3.967   3.154  0.2554 -0.8460  0.8757
  139OSM    H8T15082   1.030   4.095   3.056 -1.0283  2.4635  3.2039
  139OSM    C9S15083   1.136   4.073   3.241  0.4879  0.0301 -0.1100
  139OSM    H9S15084   1.232   4.115   3.204  0.3330  0.4774 -0.0097
  139OSM    H9T15085   1.154   3.987   3.309  1.4832  1.8252  2.0500
  139OSM   C10S15086   1.052   4.175   3.323  0.2099 -0.5083 -0.4426
  139OSM   H10S15087   0.962   4.121   3.360 -0.5534  0.7475 -0.3912
  139OSM   H10T15088   1.020   4.262   3.260 -1.0451 -0.7221 -0.1299
  139OSM   C11S15089   1.129   4.237   3.437  0.2059  0.6061 -0.2651
  139OSM   H11S15090   1.208   4.293   3.383 -0.8463  2.3071 -0.1259
  139OSM   H11T15091   1.187   4.163   3.495 -1.4242  0.5691  1.4284
  139OSM   C12S15092   1.051   4.337   3.516  0.5019 -0.4113 -0.5601
  139OSM   H12S15093   0.976   4.390   3.454  0.4231  2.3229  1.6741
  139OSM   H12T15094   1.120   4.412   3.561 -0.4675 -0.7863  1.7108
  139OSM   C13S15095   0.978   4.281   3.642  0.3691 -0.5066 -0.0201
  139OSM   H13S15096   1.057   4.219   3.690 -1.3372 -2.1006  0.8332
  139OSM   H13T15097   0.894   4.212   3.620 -0.4158  0.0725  1.0586
  139OSM   C14S15098   0.927   4.379   3.749 -0.2603  0.0103 -0.0724
  139OSM   H14S15099   0.837   4.435   3.719 -0.5251  0.3739  1.3090
  139OSM   H14T15100   0.996   4.463   3.773 -0.7201  0.4413 -0.2607
  139OSM   C15S15101   0.892   4.308   3.882  0.3000 -0.4521  0.4142
  139OSM   H15S15102   0.837   4.213   3.866  1.0095 -0.7159 -0.5436
  139OSM   H15T15103   0.827   4.367   3.951  1.6521 -0.7729  2.0129
  139OSM   C16S15104   1.013   4.284   3.971 -0.9336 -0.3896  0.0099
  139OSM   H16S15105   1.078   4.374   3.961 -0.0874 -0.3321  4.2137
  139OSM   H16T15106   1.076   4.195   3.949  4.3812  1.9141  3.5986
  139OSM   C17S15107   0.971   4.283   4.127  0.2978 -0.0865  0.7141
  139OSM   H17S15108   0.884   4.216   4.146  0.0441  0.0742  0.1353
  139OSM   H17T15109   0.928   4.385   4.140 -0.9409 -0.2925 -1.3154
  139OSM   C18S15110   1.081   4.263   4.221  0.2439 -0.2650  0.6113
  139OSM   H18S15111   1.054   4.253   4.328 -1.3569  1.1162  0.3851
  139OSM   H18T15112   1.160   4.341   4.210  0.4306 -0.4555  0.6055
  139OSM   H18U15113   1.133   4.168   4.196  1.3118  0.0708  1.4843
  139OSM    C1F15114   0.856   3.899   2.397  0.7697 -0.1019  0.2017
  139OSM     OF15115   0.895   3.826   2.301 -0.2743 -0.0541 -0.5126
  139OSM    C2F15116   0.711   3.919   2.423  0.3322  0.4490  0.4644
  139OSM    H2F15117   0.652   3.858   2.351  0.5056  0.3449  0.4089
  139OSM    H2G15118   0.683   4.025   2.404  0.4435  0.5065  0.6157
  139OSM    C3F15119   0.678   3.883   2.572  0.0842 -0.2127  0.8459
  139OSM    H3F15120   0.729   3.952   2.642 -3.9297  0.9613  2.8754
  139OSM    H3G15121   0.726   3.785   2.593  2.2657  0.9445  1.5843
  139OSM    C4F15122   0.526   3.878   2.601  0.4022 -0.3527  0.3221
  139OSM    H4F15123   0.478   3.804   2.534  2.7300 -0.5638 -1.2029
  139OSM    H4G15124   0.486   3.979   2.579 -0.3361 -0.6314  0.3661
  139OSM    C5F15125   0.483   3.840   2.747 -0.1920  0.0798 -0.1990
  139OSM    H5F15126   0.506   3.733   2.769  0.5606  0.3922  0.5869
  139OSM    H5G15127   0.374   3.854   2.758  0.1175  1.1683  2.0014
  139OSM    C6F15128   0.560   3.938   2.846  0.5261 -0.3424  0.5116
  139OSM    H6F15129   0.577   4.036   2.796 -2.2898  0.9146  1.8395
  139OSM    H6G15130   0.660   3.890   2.857  0.2810 -1.9724 -2.8615
  139OSM    C7F15131   0.482   3.965   2.972  0.1413 -0.0767  0.0363
  139OSM    H7F15132   0.378   4.000   2.956 -0.0050  1.0554  2.8578
  139OSM    H7G15133   0.539   4.045   3.023 -0.7517  1.0382 -0.6816
  139OSM    C8F15134   0.489   3.845   3.063 -0.1761  0.0349 -0.3597
  139OSM    H8F15135   0.592   3.814   3.090  0.2648  0.1507 -1.8233
  139OSM    H8G15136   0.435   3.761   3.014 -0.8436  0.3632 -0.2057
  139OSM    C9F15137   0.412   3.867   3.193 -0.2708  0.4315  0.0007
  139OSM    H9F15138   0.306   3.838   3.189 -0.4995  1.1529  0.5257
  139OSM   C10F15139   0.462   3.917   3.306 -0.0579  0.3711 -0.5978
  139OSM   H10F15140   0.392   3.927   3.390  0.3881 -1.6057  0.0588
  139OSM   C11F15141   0.601   3.981   3.332 -0.1201  0.0017 -0.3389
  139OSM   H11F15142   0.592   4.083   3.375  0.6229  1.4941 -3.4133
  139OSM   H11G15143   0.661   4.009   3.242  0.0763 -1.3462 -0.6433
  139OSM   C12F15144   0.670   3.888   3.433  0.3063 -0.7238 -0.1601
  139OSM   H12F15145   0.684   3.791   3.381  1.4695  0.2180 -1.6752
  139OSM   H12G15146   0.611   3.881   3.527  0.4553  0.4779  0.0364
  139OSM   C13F15147   0.806   3.940   3.470  0.5147 -0.4143  0.0474
  139OSM   H13F15148   0.797   4.051   3.477 -1.9221 -0.5869  0.6844
  139OSM   H13G15149   0.882   3.904   3.398  1.4521  0.7308  0.4327
  139OSM   C14F15150   0.855   3.882   3.603  0.2687  0.9368 -0.2237
  139OSM   H14F15151   0.849   3.771   3.596  1.8729  0.7449  1.1429
  139OSM   H14G15152   0.781   3.932   3.669  1.4245  0.8778  1.1544
  139OSM   C15F15153   0.995   3.910   3.632 -0.1775 -0.4282 -0.1403
  139OSM   H15F15154   1.004   4.019   3.613  0.7074 -0.4964 -0.1479
  139OSM   H15G15155   1.056   3.864   3.552  0.4664 -1.5740  0.9698
  139OSM   C16F15156   1.041   3.887   3.775 -0.1431 -0.4016 -0.3675
  139OSM   H16F15157   1.038   3.779   3.800  0.5489 -0.3729 -0.1314
  139OSM   H16G15158   0.963   3.931   3.841 -1.3333 -2.2159 -0.4923
  139OSM   C17F15159   1.182   3.937   3.802 -0.1230 -0.3585  0.5168
  139OSM   H17F15160   1.173   4.047   3.795 -0.5684 -0.4621 -1.0150
  139OSM   H17G15161   1.246   3.889   3.725  1.9803 -0.2102  2.0899
  139OSM   C18F15162   1.238   3.911   3.937 -0.4665 -1.1566 -0.5502
  139OSM   H18F15163   1.162   3.939   4.014  2.3557 -0.9332  2.3837
  139OSM   H18G15164   1.338   3.956   3.955 -0.4422 -1.4713  0.1694
  139OSM   H18H15165   1.246   3.801   3.949  2.1313 -1.1647 -1.6861
  140OSM      N15166   5.822   1.484   1.907  0.5964 -0.0292 -0.3123
  140OSM    C1515167   5.753   1.580   1.814 -0.1573 -0.0512 -0.5832
  140OSM   H15A15168   5.783   1.570   1.711 -0.1229  0.4862 -0.6253
  140OSM   H15B15169   5.760   1.682   1.845 -0.4201 -0.4298  0.7734
  140OSM   H15C15170   5.649   1.552   1.825  0.0054 -0.3217  0.3002
  140OSM    C1415171   5.825   1.343   1.853 -0.4951  0.0079  0.7240
  140OSM   H14A15172   5.723   1.314   1.835 -1.5038  3.3459  0.3398
  140OSM   H14B15173   5.878   1.283   1.924  0.7731  0.4169  0.1542
  140OSM   H14C15174   5.881   1.350   1.761  0.2834  2.2320  1.2860
  140OSM    C1315175   5.966   1.531   1.923 -0.2832  0.1287 -0.1820
  140OSM   H13A15176   6.019   1.529   1.830  1.0876 -0.2885  0.5808
  140OSM   H13B15177   6.011   1.460   1.990  1.3019  1.0811 -0.1883
  140OSM   H13C15178   5.962   1.631   1.965  0.3707  0.2989 -0.5164
  140OSM    C1215179   5.758   1.479   2.048  0.9489 -0.7687  0.1293
  140OSM   H12A15180   5.661   1.434   2.033  1.5845 -2.1735  0.0629
  140OSM   H12B15181   5.747   1.581   2.081  2.8773 -0.2286 -0.7536
  140OSM    C1115182   5.839   1.405   2.156  0.3664 -0.3389 -0.9407
  140OSM   H11A15183   5.792   1.392   2.256  2.3891 -0.5474  0.0521
  140OSM   H11B15184   5.931   1.467   2.168 -0.3182  0.5982 -0.3646
  140OSM      P15185   5.777   1.151   2.136  0.1388  0.0217 -0.2538
  140OSM    O1315186   5.637   1.192   2.136  0.2503 -0.8536 -0.4799
  140OSM    O1415187   5.812   1.049   2.040  0.3168 -0.5316 -0.3146
  140OSM    O1115188   5.801   1.096   2.289  0.2649  0.2182  0.6513
  140OSM    O1215189   5.880   1.273   2.118  0.2723  0.2278 -0.7689
  140OSM    C1S15190   5.928   1.113   2.350  0.7400 -0.4725  0.4994
  140OSM    H1S15191   5.969   1.216   2.349  2.3894 -1.0628  1.9904
  140OSM    H1T15192   6.002   1.051   2.294  0.8401  0.5937 -0.5909
  140OSM     NF15193   6.064   1.067   2.554  0.1016  0.4919  0.0045
  140OSM    HNF15194   6.108   0.977   2.554  0.2023  0.5097 -1.6622
  140OSM    C2S15195   5.933   1.073   2.501  0.6948 -0.0637  0.6191
  140OSM    H2S15196   5.876   1.149   2.559 -0.7790 -0.6751  0.0263
  140OSM    C3S15197   5.853   0.938   2.512 -0.3613  0.0003 -0.1552
  140OSM    H3S15198   5.909   0.859   2.458  0.7335 -0.1326  1.1092
  140OSM     O315199   5.725   0.924   2.453 -0.8514  0.3295  0.1144
  140OSM    HO315200   5.718   1.011   2.413 -2.5750  1.4606  2.5922
  140OSM    C4S15201   5.853   0.880   2.656 -0.3503  0.2873  0.8526
  140OSM    H4S15202   5.945   0.824   2.675  0.4828  1.2340 -0.2446
  140OSM    C5S15203   5.759   0.896   2.751  0.2218  0.3775  1.1423
  140OSM    H5S15204   5.668   0.952   2.727  0.0613  0.4403  1.8845
  140OSM    C6S15205   5.758   0.822   2.882 -0.0172 -0.6852 -0.5394
  140OSM    H6S15206   5.847   0.757   2.894 -0.4140 -1.0133  0.7607
  140OSM    H6T15207   5.669   0.757   2.892  0.1505 -1.3594 -2.9373
  140OSM    C7S15208   5.758   0.909   3.013  0.3894 -0.4481 -0.0401
  140OSM    H7S15209   5.666   0.968   3.030  2.1029  2.2471  0.5288
  140OSM    H7T15210   5.834   0.989   3.000 -0.1140 -0.0874 -0.7617
  140OSM    C8S15211   5.807   0.834   3.138  0.6392 -0.2632 -0.1116
  140OSM    H8S15212   5.900   0.780   3.113  0.4669 -0.6679  0.1109
  140OSM    H8T15213   5.736   0.754   3.166 -1.1425  1.3115  0.0737
  140OSM    C9S15214   5.811   0.926   3.261 -0.1951 -0.0988 -0.1699
  140OSM    H9S15215   5.706   0.958   3.282 -0.0257 -0.1761  0.8360
  140OSM    H9T15216   5.860   1.026   3.251 -0.3983  0.4352  3.1671
  140OSM   C10S15217   5.864   0.851   3.392  0.0811  0.5881  0.3502
  140OSM   H10S15218   5.961   0.802   3.369  1.1434  2.1686  1.2557
  140OSM   H10T15219   5.791   0.770   3.414  1.2933 -0.7871 -0.5081
  140OSM   C11S15220   5.882   0.935   3.513 -0.2711 -0.3981  0.0851
  140OSM   H11S15221   5.789   0.995   3.521 -0.2921 -0.3725 -0.3185
  140OSM   H11T15222   5.969   1.002   3.501 -0.5530  0.0615  0.5585
  140OSM   C12S15223   5.890   0.849   3.649  0.0039 -0.1702  0.7383
  140OSM   H12S15224   5.959   0.769   3.615 -1.7309 -0.6502 -1.8540
  140OSM   H12T15225   5.793   0.801   3.674 -0.6289  0.6202 -0.1362
  140OSM   C13S15226   5.952   0.914   3.772 -0.5338 -0.0511  0.4487
  140OSM   H13S15227   5.894   1.003   3.805  1.3256  2.2041 -1.9402
  140OSM   H13T15228   6.055   0.940   3.740 -0.6274 -0.7088 -0.4206
  140OSM   C14S15229   5.959   0.819   3.890 -0.1780 -0.0831  1.0692
  140OSM   H14S15230   6.036   0.852   3.964  1.8834 -0.7004 -0.6873
  140OSM   H14T15231   6.003   0.722   3.861  1.8914  1.1128 -0.0365
  140OSM   C15S15232   5.822   0.776   3.949  0.2791  0.4524 -0.3650
  140OSM   H15S15233   5.745   0.766   3.870  0.3219 -2.5899 -0.1495
  140OSM   H15T15234   5.794   0.860   4.016  1.1082  1.3723 -1.1417
  140OSM   C16S15235   5.831   0.642   4.032  0.1326 -0.1039  0.4046
  140OSM   H16S15236   5.913   0.657   4.105  0.5089  1.9171 -0.3439
  140OSM   H16T15237   5.866   0.561   3.965  1.6517  0.1815  0.8106
  140OSM   C17S15238   5.693   0.608   4.102 -0.0036 -0.2281  0.2921
  140OSM   H17S15239   5.661   0.704   4.147  0.6743  0.7740 -1.2560
  140OSM   H17T15240   5.711   0.522   4.170 -1.1772 -0.9808 -0.3172
  140OSM   C18S15241   5.590   0.559   4.006 -0.4346 -0.7755 -0.2971
  140OSM   H18S15242   5.628   0.472   3.948  1.3222  0.4229 -1.0283
  140OSM   H18T15243   5.565   0.647   3.943 -0.1358 -0.1541  0.4431
  140OSM   H18U15244   5.496   0.524   4.054 -0.0283 -1.1246  0.2492
  140OSM    C1F15245   6.134   1.172   2.591 -0.0865 -0.1156  0.2192
  140OSM     OF15246   6.094   1.287   2.567 -0.6153 -0.4203 -0.1431
  140OSM    C2F15247   6.258   1.155   2.669  0.0344  0.0679 -0.2842
  140OSM    H2F15248   6.338   1.214   2.619  0.3303  0.9723  1.2121
  140OSM    H2G15249   6.283   1.047   2.657 -0.6128  0.0502 -1.5891
  140OSM    C3F15250   6.235   1.213   2.808  0.1881  0.6802 -0.7081
  140OSM    H3F15251   6.195   1.316   2.796 -1.0685  0.1545 -1.2333
  140OSM    H3G15252   6.324   1.222   2.874 -0.2525 -0.9456  0.1572
  140OSM    C4F15253   6.142   1.118   2.885 -0.1109  0.1267 -0.6236
  140OSM    H4F15254   6.182   1.014   2.883  1.3761  0.6947 -0.8025
  140OSM    H4G15255   6.040   1.122   2.839 -1.2645 -0.5676  1.7153
  140OSM    C5F15256   6.127   1.167   3.027 -0.4398  0.0626  0.3522
  140OSM    H5F15257   6.053   1.094   3.068 -1.5329  1.0262  0.1272
  140OSM    H5G15258   6.080   1.267   3.027  1.9632  1.3356  2.6705
  140OSM    C6F15259   6.243   1.180   3.119 -0.1449  0.0762 -0.0993
  140OSM    H6F15260   6.313   1.261   3.090 -0.4938  0.1229 -0.8201
  140OSM    H6G15261   6.297   1.082   3.123 -0.9246 -0.3936 -0.8845
  140OSM    C7F15262   6.203   1.205   3.267  0.1251  0.5820  0.1838
  140OSM    H7F15263   6.140   1.116   3.286 -2.2036  2.1043 -0.0080
  140OSM    H7G15264   6.157   1.305   3.281 -0.4190  0.2672  0.6833
  140OSM    C8F15265   6.325   1.220   3.366  0.2004 -0.2446  0.0472
  140OSM    H8F15266   6.378   1.123   3.360 -0.6242 -0.6801 -0.2509
  140OSM    H8G15267   6.287   1.240   3.469  1.4316  2.6336  0.0561
  140OSM    C9F15268   6.425   1.326   3.339 -0.5294  0.2220 -0.4459
  140OSM    H9F15269   6.461   1.336   3.236 -1.6027 -0.0956 -0.8659
  140OSM   C10F15270   6.487   1.398   3.430 -0.2318  0.4094 -0.4132
  140OSM   H10F15271   6.560   1.471   3.392  0.2175  1.3705  2.1103
  140OSM   C11F15272   6.468   1.394   3.578 -0.8550 -0.1374 -0.8654
  140OSM   H11F15273   6.362   1.405   3.609 -0.4318 -1.0436  1.0604
  140OSM   H11G15274   6.526   1.480   3.619  0.5793 -1.3512 -0.2262
  140OSM   C12F15275   6.516   1.267   3.651 -0.3280 -0.2652  0.6373
  140OSM   H12F15276   6.623   1.255   3.627 -0.8288 -0.8628 -1.4960
  140OSM   H12G15277   6.469   1.180   3.601  2.2779 -0.1197 -2.3993
  140OSM   C13F15278   6.499   1.269   3.809  0.4951  0.1742  0.5502
  140OSM   H13F15279   6.560   1.189   3.856  1.5641  1.5277  1.5684
  140OSM   H13G15280   6.396   1.238   3.833  0.4531  0.7095  1.0887
  140OSM   C14F15281   6.530   1.406   3.875 -0.2595  0.3326  0.4180
  140OSM   H14F15282   6.464   1.484   3.832  0.4305 -0.2678 -1.8485
  140OSM   H14G15283   6.633   1.435   3.847  0.0097  1.5690  2.4702
  140OSM   C15F15284   6.527   1.404   4.037 -0.3658 -0.2674  0.0415
  140OSM   H15F15285   6.566   1.309   4.080 -0.3769 -0.4625 -0.3855
  140OSM   H15G15286   6.422   1.426   4.067 -0.3530  0.5885 -0.5057
  140OSM   C16F15287   6.616   1.525   4.089  0.4743  0.5370 -0.0841
  140OSM   H16F15288   6.579   1.619   4.042 -1.6661  0.1248  0.6608
  140OSM   H16G15289   6.725   1.515   4.073  0.3615  1.9692 -2.1411
  140OSM   C17F15290   6.613   1.541   4.245 -0.2556  0.1440  0.1420
  140OSM   H17F15291   6.647   1.446   4.291 -0.6525 -1.3677 -2.4952
  140OSM   H17G15292   6.504   1.546   4.265 -0.4396 -0.7968 -0.5758
  140OSM   C18F15293   6.698   1.655   4.306 -0.5961  0.2372 -0.8764
  140OSM   H18F15294   6.808   1.636   4.300 -0.6162  0.3352 -1.6179
  140OSM   H18G15295   6.672   1.674   4.413  1.5359  0.5521 -0.3596
  140OSM   H18H15296   6.673   1.753   4.262  0.5583  0.6331 -0.6896
  141OSM      N15297   1.381   6.195   1.801  0.1919 -0.2533 -0.5692
  141OSM    C1515298   1.452   6.329   1.808 -0.4210  0.0024 -0.0687
  141OSM   H15A15299   1.545   6.330   1.753  0.3122 -0.9743  1.1081
  141OSM   H15B15300   1.470   6.357   1.910  1.4620 -1.1539 -0.0279
  141OSM   H15C15301   1.388   6.410   1.776 -2.8758 -1.0070  1.9659
  141OSM    C1415302   1.351   6.166   1.659 -0.7194 -0.9007 -0.4723
  141OSM   H14A15303   1.310   6.067   1.652  1.2197 -1.8266  0.6446
  141OSM   H14B15304   1.443   6.181   1.605 -0.2142  0.6003  0.7263
  141OSM   H14C15305   1.270   6.230   1.627 -1.3696 -0.9309  1.0161
  141OSM    C1315306   1.468   6.082   1.845 -0.6582 -0.1265  0.0231
  141OSM   H13A15307   1.423   5.985   1.824  1.2650 -0.9005 -0.7315
  141OSM   H13B15308   1.488   6.078   1.950  2.9137 -0.1198 -0.5528
  141OSM   H13C15309   1.562   6.084   1.793 -0.5758 -1.3274  0.0876
  141OSM    C1215310   1.249   6.207   1.879  0.0343  0.4634 -1.0223
  141OSM   H12A15311   1.207   6.306   1.864 -1.6018 -0.0256  0.0962
  141OSM   H12B15312   1.272   6.197   1.984 -0.3838 -1.3447 -1.0713
  141OSM    C1115313   1.143   6.100   1.855 -0.2515 -0.3668 -0.0972
  141OSM   H11A15314   1.112   6.101   1.748 -0.9300  0.3532  0.1021
  141OSM   H11B15315   1.058   6.130   1.919 -0.4047  2.2028 -1.4048
  141OSM      P15316   1.185   5.908   2.019 -0.1048 -0.1449 -0.3389
  141OSM    O1315317   1.062   5.830   2.026 -0.4589 -0.3729  0.0629
  141OSM    O1415318   1.320   5.843   2.057  0.7591 -0.2528  0.2958
  141OSM    O1115319   1.186   6.031   2.120  0.2345  0.3470 -0.4373
  141OSM    O1215320   1.195   5.973   1.877  0.3157  0.4149 -0.8169
  141OSM    C1S15321   1.116   6.015   2.244 -0.2462  0.8319 -0.7145
  141OSM    H1S15322   1.023   5.954   2.243 -0.6172  1.3815 -0.1595
  141OSM    H1T15323   1.094   6.120   2.271  3.6123  1.2555  1.4574
  141OSM     NF15324   1.147   5.986   2.490 -0.4298  0.0765 -0.0837
  141OSM    HNF15325   1.189   6.046   2.557  0.3436 -0.3824 -0.1497
  141OSM    C2S15326   1.218   5.975   2.360  0.6644 -0.4474 -0.0193
  141OSM    H2S15327   1.261   5.874   2.345 -0.4231 -0.7322 -1.3352
  141OSM    C3S15328   1.336   6.073   2.349 -0.9132  0.3102  0.2904
  141OSM    H3S15329   1.304   6.178   2.332 -1.4454  0.4317  1.8391
  141OSM     O315330   1.431   6.050   2.242  0.2077 -0.5449  0.2136
  141OSM    HO315331   1.383   5.990   2.184 -1.6346  1.2314 -0.2053
  141OSM    C4S15332   1.421   6.071   2.476 -0.2089  0.3840  1.2048
  141OSM    H4S15333   1.490   5.988   2.499  2.1283  2.1950  0.9854
  141OSM    C5S15334   1.418   6.172   2.558  0.5857 -0.3813  0.3250
  141OSM    H5S15335   1.366   6.261   2.519  0.4373 -0.7956 -0.4476
  141OSM    C6S15336   1.486   6.182   2.690 -0.2794  0.3174 -0.1124
  141OSM    H6S15337   1.562   6.263   2.687  2.2399 -1.8770  0.5322
  141OSM    H6T15338   1.548   6.091   2.705 -0.0004  0.6013  0.5184
  141OSM    C7S15339   1.409   6.182   2.822  0.2186 -0.5262 -0.0015
  141OSM    H7S15340   1.330   6.259   2.830  1.5911  0.7190  3.5008
  141OSM    H7T15341   1.484   6.199   2.902  0.5717 -2.2598  0.0681
  141OSM    C8S15342   1.343   6.048   2.857 -0.1839  0.1579  0.2385
  141OSM    H8S15343   1.425   5.975   2.871 -1.0028 -1.3602 -2.2605
  141OSM    H8T15344   1.291   6.020   2.763  1.8686 -2.4125 -0.2478
  141OSM    C9S15345   1.249   6.037   2.980 -0.6808 -0.4312  0.1971
  141OSM    H9S15346   1.207   5.935   2.973  0.0804 -0.9081  2.1727
  141OSM    H9T15347   1.182   6.125   2.964  2.2027  1.7318 -0.8650
  141OSM   C10S15348   1.318   6.045   3.115  0.2059  0.8058  0.3694
  141OSM   H10S15349   1.376   6.138   3.129  0.1549  0.6721  1.5217
  141OSM   H10T15350   1.380   5.953   3.116 -1.0018 -0.1284 -1.8697
  141OSM   C11S15351   1.226   6.051   3.242  0.9016  0.3756 -0.0769
  141OSM   H11S15352   1.176   5.952   3.239 -3.7152  2.3753  1.6917
  141OSM   H11T15353   1.131   6.105   3.223 -0.2986 -1.7462 -0.4451
  141OSM   C12S15354   1.311   6.089   3.364 -0.5404 -0.0822  0.2511
  141OSM   H12S15355   1.348   6.192   3.346  2.9243 -1.3435 -0.7863
  141OSM   H12T15356   1.396   6.019   3.381 -0.1635  0.9703  3.2777
  141OSM   C13S15357   1.225   6.085   3.490  0.4990  0.4692 -0.5733
  141OSM   H13S15358   1.198   5.980   3.512  0.5743  0.8212  1.3683
  141OSM   H13T15359   1.133   6.140   3.461  0.3566  0.6563  0.2051
  141OSM   C14S15360   1.282   6.164   3.602 -0.5417  1.1231  0.6285
  141OSM   H14S15361   1.291   6.272   3.575  1.0133  1.2500  1.5371
  141OSM   H14T15362   1.383   6.121   3.618 -0.8947  0.0008 -0.0379
  141OSM   C15S15363   1.203   6.162   3.733 -0.2078  0.1686 -0.2543
  141OSM   H15S15364   1.148   6.067   3.753 -2.9256  2.1259  2.4353
  141OSM   H15T15365   1.120   6.235   3.722 -0.0726  0.2975 -0.4196
  141OSM   C16S15366   1.296   6.203   3.850  0.6598  0.2570  0.2781
  141OSM   H16S15367   1.246   6.254   3.935  0.7123 -0.9349  1.0504
  141OSM   H16T15368   1.374   6.271   3.808  1.3311  0.0286  1.1258
  141OSM   C17S15369   1.374   6.075   3.903 -0.0231 -0.2178 -0.3924
  141OSM   H17S15370   1.326   5.980   3.870 -1.7842  0.2468  0.6891
  141OSM   H17T15371   1.361   6.076   4.014  0.0471  0.8823 -0.3865
  141OSM   C18S15372   1.528   6.077   3.865  0.3668  0.0743 -0.3356
  141OSM   H18S15373   1.546   6.093   3.757  2.3581 -0.3742 -0.1003
  141OSM   H18T15374   1.580   5.983   3.893 -0.7199 -0.9078 -1.4861
  141OSM   H18U15375   1.581   6.164   3.910  0.2382  1.1077 -2.0971
  141OSM    C1F15376   1.044   5.911   2.527  0.2921  0.7308 -0.4487
  141OSM     OF15377   0.987   5.832   2.452 -0.3802 -0.2677 -0.1473
  141OSM    C2F15378   1.014   5.928   2.672 -0.1761 -0.1526  0.2754
  141OSM    H2F15379   1.056   6.027   2.701  0.9022 -0.7941  0.9827
  141OSM    H2G15380   1.077   5.850   2.720  1.7263  0.8292 -0.5368
  141OSM    C3F15381   0.860   5.913   2.708 -0.5331  0.1528  0.5962
  141OSM    H3F15382   0.843   5.808   2.736 -0.0739  0.6956  3.1378
  141OSM    H3G15383   0.802   5.939   2.616 -0.2004 -0.8189  0.1020
  141OSM    C4F15384   0.815   5.990   2.828 -1.0332 -0.2374  0.1081
  141OSM    H4F15385   0.704   5.982   2.828 -1.0683  0.2279 -0.2303
  141OSM    H4G15386   0.838   6.098   2.813 -1.7931 -0.3121 -1.9330
  141OSM    C5F15387   0.865   5.926   2.964 -0.5674 -0.1185 -0.3042
  141OSM    H5F15388   0.975   5.917   2.970 -0.4406  0.8568 -0.9007
  141OSM    H5G15389   0.819   5.825   2.962 -0.0321 -0.5002  2.5249
  141OSM    C6F15390   0.816   5.989   3.097  0.1581 -0.3892  0.0925
  141OSM    H6F15391   0.705   5.989   3.101  0.0681  0.7502 -1.4940
  141OSM    H6G15392   0.843   6.096   3.086  1.8139 -0.9022 -1.1451
  141OSM    C7F15393   0.874   5.916   3.213  0.1872  0.2283 -0.2922
  141OSM    H7F15394   0.978   5.893   3.183 -0.2045  0.8180 -2.2458
  141OSM    H7G15395   0.820   5.820   3.221  0.3346  0.0009 -1.8069
  141OSM    C8F15396   0.871   6.001   3.343 -1.0859  0.5165  0.0720
  141OSM    H8F15397   0.914   6.103   3.329  0.6090  0.0300  1.4474
  141OSM    H8G15398   0.942   5.951   3.412 -0.7402 -0.7249 -1.1556
  141OSM    C9F15399   0.738   6.043   3.394 -0.1961  0.1250 -0.1714
  141OSM    H9F15400   0.674   6.089   3.318  0.2868 -1.8931 -1.8663
  141OSM   C10F15401   0.684   6.032   3.518  0.0402 -0.5265 -0.1308
  141OSM   H10F15402   0.583   6.076   3.520 -0.7118 -1.9613 -2.2995
  141OSM   C11F15403   0.745   5.974   3.644 -0.0033 -0.4605  0.1160
  141OSM   H11F15404   0.849   5.940   3.629 -0.1682 -1.4531  1.1151
  141OSM   H11G15405   0.690   5.881   3.669  0.2931 -1.8703 -3.7432
  141OSM   C12F15406   0.751   6.077   3.763 -0.9600 -0.0659 -0.1339
  141OSM   H12F15407   0.769   6.179   3.723 -2.2000 -0.1271 -0.8948
  141OSM   H12G15408   0.835   6.063   3.834  0.6808  0.8385 -1.8124
  141OSM   C13F15409   0.619   6.092   3.841  0.1126  0.0931 -0.4089
  141OSM   H13F15410   0.535   6.097   3.768 -1.3068 -3.2703  0.7896
  141OSM   H13G15411   0.614   6.183   3.904  0.7458  0.7758 -1.3195
  141OSM   C14F15412   0.595   5.978   3.940 -0.3170  0.2531 -0.2704
  141OSM   H14F15413   0.684   5.981   4.006 -0.4526  0.6848 -0.1073
  141OSM   H14G15414   0.578   5.872   3.911  3.6186 -0.5065 -0.2729
  141OSM   C15F15415   0.486   6.025   4.045  0.0716  0.2057  0.2814
  141OSM   H15F15416   0.390   5.993   3.998  1.5555 -0.1650 -2.6698
  141OSM   H15G15417   0.476   6.135   4.059 -1.8280  0.2192 -0.7848
  141OSM   C16F15418   0.496   5.975   4.185  0.0722  0.4490 -0.0945
  141OSM   H16F15419   0.565   6.044   4.238 -0.0727  2.1266 -1.9473
  141OSM   H16G15420   0.538   5.872   4.181 -3.0572 -0.9103 -2.1348
  141OSM   C17F15421   0.363   5.968   4.262  0.5702  0.1829  0.0190
  141OSM   H17F15422   0.291   5.919   4.194  1.1298 -0.7173  0.0545
  141OSM   H17G15423   0.334   6.071   4.293  1.2425  0.3634  0.0671
  141OSM   C18F15424   0.391   5.888   4.394  0.9580  0.4209 -0.6006
  141OSM   H18F15425   0.463   5.947   4.454  2.1647  0.5575 -2.1329
  141OSM   H18G15426   0.427   5.787   4.363  0.1026  0.3254 -1.3446
  141OSM   H18H15427   0.294   5.869   4.445  0.5147  1.2492 -1.1203
  142OSM      N15428   1.761   1.131   1.441  0.4875 -0.1914  0.2564
  142OSM    C1515429   1.732   1.250   1.368 -0.0968 -0.4285  0.0820
  142OSM   H15A15430   1.690   1.329   1.428  2.3673  0.0961  1.2379
  142OSM   H15B15431   1.679   1.244   1.274  0.6618  1.1625 -0.4920
  142OSM   H15C15432   1.830   1.291   1.348  0.7084 -0.9152  2.6449
  142OSM    C1415433   1.630   1.068   1.486  0.6872 -0.1071 -0.0844
  142OSM   H14A15434   1.553   1.059   1.411 -1.3405  0.6209  1.8104
  142OSM   H14B15435   1.581   1.114   1.571  0.5212  0.5716 -0.5362
  142OSM   H14C15436   1.652   0.967   1.516 -0.9922 -0.5775 -0.3424
  142OSM    C1315437   1.816   1.032   1.348  0.9669  0.4650 -0.1922
  142OSM   H13A15438   1.746   1.000   1.272 -0.3588 -1.5083  1.7341
  142OSM   H13B15439   1.846   0.939   1.396 -1.9590 -1.7586 -2.3065
  142OSM   H13C15440   1.909   1.066   1.305  0.5566  1.8387 -0.0118
  142OSM    C1215441   1.849   1.163   1.556 -0.1707  0.2965  0.2671
  142OSM   H12A15442   1.940   1.206   1.519  0.0337  0.3447  0.8288
  142OSM   H12B15443   1.877   1.073   1.610  4.5352  0.5223 -1.3418
  142OSM    C1115444   1.790   1.253   1.671  0.8997 -0.7294  0.3430
  142OSM   H11A15445   1.755   1.345   1.621 -1.2182 -2.0089 -0.6332
  142OSM   H11B15446   1.876   1.264   1.741  0.6450 -2.0492  0.8899
  142OSM      P15447   1.683   1.097   1.853 -0.1916 -0.1963  0.0287
  142OSM    O1315448   1.547   1.094   1.918  0.3288 -0.7999  0.4112
  142OSM    O1415449   1.735   0.970   1.800  0.3019 -0.4646  1.1122
  142OSM    O1115450   1.789   1.172   1.949  0.4959 -0.0892  0.2791
  142OSM    O1215451   1.673   1.208   1.744 -0.1404  0.3564  0.2479
  142OSM    C1S15452   1.753   1.283   2.024 -1.0635 -0.7755 -0.1821
  142OSM    H1S15453   1.674   1.346   1.977 -0.1537  0.1975 -0.4511
  142OSM    H1T15454   1.839   1.353   2.036 -2.5420  0.6882  3.0662
  142OSM     NF15455   1.641   1.368   2.225 -0.2009 -0.1313 -0.0079
  142OSM    HNF15456   1.703   1.423   2.281 -0.6588 -0.6483  1.0304
  142OSM    C2S15457   1.700   1.251   2.165  0.3339  0.1832 -0.3728
  142OSM    H2S15458   1.622   1.172   2.167  2.4396 -2.0630  2.4085
  142OSM    C3S15459   1.809   1.196   2.252 -0.0197  0.4572  0.3878
  142OSM    H3S15460   1.887   1.274   2.267  0.2456  0.1392  0.6890
  142OSM     O315461   1.875   1.090   2.188  0.3753  0.4845  0.4037
  142OSM    HO315462   1.849   1.101   2.096  0.1518 -0.0662  0.3973
  142OSM    C4S15463   1.755   1.157   2.396  0.2989  0.5599 -0.0764
  142OSM    H4S15464   1.775   1.237   2.469 -0.1382 -0.1526  0.8373
  142OSM    C5S15465   1.686   1.047   2.436  0.0235 -0.3586 -0.4802
  142OSM    H5S15466   1.658   0.969   2.363 -2.9512  0.6118 -0.5032
  142OSM    C6S15467   1.631   1.020   2.571 -0.5602  0.0227 -0.1066
  142OSM    H6S15468   1.657   0.917   2.604 -1.9660 -1.0654 -2.2168
  142OSM    H6T15469   1.523   1.004   2.550 -0.2200  0.0520 -1.9732
  142OSM    C7S15470   1.661   1.116   2.681  0.3648 -0.8073 -0.4917
  142OSM    H7S15471   1.614   1.211   2.648  0.1600 -0.3904  0.9049
  142OSM    H7T15472   1.770   1.137   2.693  0.2133  0.1620 -0.6863
  142OSM    C8S15473   1.596   1.078   2.817 -0.1252 -0.8435 -0.1676
  142OSM    H8S15474   1.654   0.992   2.858  3.0923  0.2984 -1.9663
  142OSM    H8T15475   1.492   1.044   2.798 -0.1807 -0.2069 -1.0603
  142OSM    C9S15476   1.602   1.183   2.928 -0.2260 -0.2412 -0.4531
  142OSM    H9S15477   1.549   1.276   2.900 -0.6630 -0.6364 -0.9891
  142OSM    H9T15478   1.711   1.199   2.941 -0.0837 -2.4336  1.9894
  142OSM   C10S15479   1.549   1.117   3.058 -0.7591  0.3915  0.1672
  142OSM   H10S15480   1.597   1.018   3.067  1.5844  1.4164 -0.2632
  142OSM   H10T15481   1.440   1.098   3.067 -1.1914  1.9685 -1.2459
  142OSM   C11S15482   1.586   1.219   3.161  0.2263  0.1942  0.0117
  142OSM   H11S15483   1.531   1.310   3.131  0.5646 -0.0596 -1.4666
  142OSM   H11T15484   1.694   1.245   3.150  0.6254 -1.5161 -0.5222
  142OSM   C12S15485   1.567   1.183   3.309 -0.0052  0.4860 -0.1104
  142OSM   H12S15486   1.609   1.082   3.332  0.2042  0.9074  1.4247
  142OSM   H12T15487   1.457   1.169   3.317  0.2217 -0.8201  1.2287
  142OSM   C13S15488   1.614   1.285   3.411  0.0425  0.0544  0.2277
  142OSM   H13S15489   1.570   1.384   3.383 -0.9145  0.4082  2.7466
  142OSM   H13T15490   1.724   1.291   3.400 -0.0776 -0.8562 -2.1368
  142OSM   C14S15491   1.562   1.252   3.551 -0.0571  0.7343  0.2713
  142OSM   H14S15492   1.580   1.144   3.569 -0.9936  0.6386  0.6974
  142OSM   H14T15493   1.455   1.280   3.558 -0.5486 -0.5646 -1.5470
  142OSM   C15S15494   1.635   1.325   3.666  0.1928 -0.4150 -0.9751
  142OSM   H15S15495   1.643   1.432   3.637  1.0269 -0.0657  0.4494
  142OSM   H15T15496   1.734   1.284   3.694 -0.9281 -2.3649  0.4461
  142OSM   C16S15497   1.557   1.326   3.804 -0.1094 -0.6400 -0.0014
  142OSM   H16S15498   1.555   1.221   3.839 -1.3908  0.0199  2.0399
  142OSM   H16T15499   1.457   1.359   3.767  1.3998  1.5082 -2.5024
  142OSM   C17S15500   1.620   1.425   3.906  0.5063 -0.0801  0.4840
  142OSM   H17S15501   1.629   1.528   3.867  0.6324 -0.6923 -1.1672
  142OSM   H17T15502   1.723   1.393   3.933 -0.0116 -0.6557  1.8749
  142OSM   C18S15503   1.539   1.420   4.032 -0.1479  0.1267  0.1444
  142OSM   H18S15504   1.433   1.444   4.007 -0.7556  0.6236  2.9293
  142OSM   H18T15505   1.575   1.491   4.109 -2.3190  1.5058 -0.0106
  142OSM   H18U15506   1.555   1.315   4.066  0.2190 -0.3085 -1.3053
  142OSM    C1F15507   1.522   1.422   2.192  0.2968  0.1936 -0.8977
  142OSM     OF15508   1.448   1.369   2.111  0.1983  0.0898  0.0158
  142OSM    C2F15509   1.481   1.556   2.254  0.1171  0.4637  0.3315
  142OSM    H2F15510   1.454   1.621   2.167 -2.0467 -0.6722  0.0789
  142OSM    H2G15511   1.567   1.590   2.315  0.2989 -0.8660  0.8310
  142OSM    C3F15512   1.352   1.537   2.341 -0.6888 -0.8754 -0.1522
  142OSM    H3F15513   1.270   1.502   2.275 -0.5904 -1.8710  0.2429
  142OSM    H3G15514   1.323   1.635   2.386  0.8324 -0.5652  0.2136
  142OSM    C4F15515   1.376   1.429   2.444 -0.4189  0.1142  0.5131
  142OSM    H4F15516   1.482   1.419   2.475 -0.2280 -0.1888 -0.2174
  142OSM    H4G15517   1.348   1.329   2.405  0.9393 -0.6729  1.4592
  142OSM    C5F15518   1.309   1.454   2.582 -0.1774 -0.6706  0.5736
  142OSM    H5F15519   1.330   1.375   2.657 -0.3358 -3.2032 -1.8982
  142OSM    H5G15520   1.199   1.464   2.568  0.0490  1.4182 -0.1057
  142OSM    C6F15521   1.346   1.584   2.655 -0.0033  0.1098  0.4178
  142OSM    H6F15522   1.329   1.673   2.590  0.6161 -0.2458 -0.2526
  142OSM    H6G15523   1.453   1.582   2.686  0.9820 -0.6084 -2.5928
  142OSM    C7F15524   1.273   1.594   2.792 -0.0376  0.0821 -0.0673
  142OSM    H7F15525   1.285   1.494   2.838  0.8559 -0.0416 -0.5538
  142OSM    H7G15526   1.166   1.615   2.768  0.1007  0.1011 -0.6900
  142OSM    C8F15527   1.308   1.718   2.875 -0.5422  0.2701  0.2688
  142OSM    H8F15528   1.278   1.805   2.812  2.5920  0.7245 -0.7761
  142OSM    H8G15529   1.419   1.717   2.871 -0.5381  0.3721 -4.0349
  142OSM    C9F15530   1.249   1.718   3.012  0.2152  0.1136 -0.4406
  142OSM    H9F15531   1.140   1.727   3.014 -0.3778 -4.7702 -0.2910
  142OSM   C10F15532   1.318   1.711   3.128 -0.8770 -0.0011 -0.4589
  142OSM   H10F15533   1.266   1.743   3.219 -1.0929  0.3398 -0.6972
  142OSM   C11F15534   1.471   1.697   3.133  0.3796 -0.4233 -0.0756
  142OSM   H11F15535   1.516   1.798   3.132  0.3998 -0.3973 -2.4929
  142OSM   H11G15536   1.508   1.640   3.045 -1.8485  1.3048 -2.2904
  142OSM   C12F15537   1.513   1.609   3.251  0.3655 -0.4145  0.2010
  142OSM   H12F15538   1.623   1.597   3.253  0.5714  1.3431  1.2545
  142OSM   H12G15539   1.469   1.510   3.229 -0.1917  0.1837 -1.6219
  142OSM   C13F15540   1.472   1.667   3.393 -0.4525 -0.9322  0.1365
  142OSM   H13F15541   1.507   1.595   3.470  1.4973 -0.5876 -0.3803
  142OSM   H13G15542   1.363   1.688   3.405  0.2263  2.6373  1.0447
  142OSM   C14F15543   1.545   1.802   3.406 -0.5242  0.2543  0.3211
  142OSM   H14F15544   1.518   1.871   3.323 -1.0077 -1.7575 -1.2643
  142OSM   H14G15545   1.653   1.782   3.392 -0.1892  1.8534  0.4042
  142OSM   C15F15546   1.531   1.869   3.543 -1.0812  0.1537 -0.1486
  142OSM   H15F15547   1.426   1.898   3.566 -0.7020  1.1872  0.3370
  142OSM   H15G15548   1.582   1.966   3.560  1.9695 -1.4773  0.7659
  142OSM   C16F15549   1.586   1.782   3.654 -0.4706  0.3499 -0.1193
  142OSM   H16F15550   1.686   1.768   3.609  0.6654  0.5663  2.1564
  142OSM   H16G15551   1.544   1.679   3.661 -0.2988  0.3202  0.6104
  142OSM   C17F15552   1.591   1.848   3.793  0.9011  0.0520 -0.2169
  142OSM   H17F15553   1.590   1.764   3.865  2.0673 -1.2935 -1.7062
  142OSM   H17G15554   1.495   1.903   3.809  1.7819  1.3446  0.8542
  142OSM   C18F15555   1.708   1.935   3.830  0.0732  0.1914 -0.2277
  142OSM   H18F15556   1.731   2.002   3.745  0.7729 -2.7605 -2.5174
  142OSM   H18G15557   1.801   1.882   3.860 -0.6246 -0.4457  0.8932
  142OSM   H18H15558   1.691   2.000   3.919  0.2626  0.2519 -0.2353
  143OSM      N15559   1.534   0.388   1.597  0.4978  0.3252 -0.2204
  143OSM    C1515560   1.643   0.308   1.664  0.1134  0.4989  1.2721
  143OSM   H15A15561   1.651   0.350   1.763  1.1592  2.0565  0.5636
  143OSM   H15B15562   1.738   0.324   1.616 -1.0021  4.8665  0.0572
  143OSM   H15C15563   1.613   0.204   1.675 -0.8348  0.8645  2.3123
  143OSM    C1415564   1.597   0.505   1.527  0.0479  0.1130 -0.3014
  143OSM   H14A15565   1.524   0.573   1.487  0.0526  0.3692  0.1202
  143OSM   H14B15566   1.676   0.474   1.460 -0.2674 -0.8656 -0.2394
  143OSM   H14C15567   1.653   0.566   1.596  1.5904 -1.9142  0.3412
  143OSM    C1315568   1.465   0.310   1.497  0.5124  0.0892 -0.5178
  143OSM   H13A15569   1.530   0.259   1.427  1.5053 -0.0615  0.4913
  143OSM   H13B15570   1.405   0.364   1.425 -0.7220 -0.5195  0.0264
  143OSM   H13C15571   1.400   0.239   1.546  0.4993  0.7060  0.3802
  143OSM    C1215572   1.425   0.443   1.697 -0.4299  0.3073 -0.4721
  143OSM   H12A15573   1.352   0.498   1.640  1.0070  1.1815 -1.5090
  143OSM   H12B15574   1.471   0.512   1.766  1.4289  0.5203 -1.8401
  143OSM    C1115575   1.362   0.336   1.790 -0.1097  0.2818 -0.9155
  143OSM   H11A15576   1.298   0.385   1.866  1.2581  0.3784  0.2140
  143OSM   H11B15577   1.440   0.285   1.850  0.7725 -0.4020 -2.5675
  143OSM      P15578   1.210   0.119   1.785  0.0624  0.1249  0.4560
  143OSM    O1315579   1.075   0.128   1.719 -0.2970  0.1329 -0.3041
  143OSM    O1415580   1.295   0.001   1.768 -0.0106 -0.1155 -0.5496
  143OSM    O1115581   1.208   0.161   1.936 -0.1227 -0.5250 -0.3460
  143OSM    O1215582   1.289   0.240   1.713 -0.0284 -0.0646  0.3252
  143OSM    C1S15583   1.102   0.137   2.026  0.4307 -0.4213  0.1166
  143OSM    H1S15584   1.037   0.050   2.004  0.6225 -0.6610  0.4969
  143OSM    H1T15585   1.034   0.224   2.030 -0.5394 -1.1528 -0.1995
  143OSM     NF15586   1.044   0.076   2.262 -0.0729  0.4689 -0.0740
  143OSM    HNF15587   0.975   0.136   2.300 -0.5117  0.6110 -1.0637
  143OSM    C2S15588   1.149   0.123   2.175 -0.6012 -0.3215  0.5735
  143OSM    H2S15589   1.232   0.049   2.168 -2.1022 -2.0692  0.5814
  143OSM    C3S15590   1.206   0.259   2.226 -0.1575  0.6438 -0.0444
  143OSM    H3S15591   1.126   0.334   2.242 -0.2366  0.5180  0.1513
  143OSM     O315592   1.300   0.323   2.139  0.5482 -0.3441 -0.2376
  143OSM    HO315593   1.282   0.282   2.054 -1.9355  1.1180 -0.4947
  143OSM    C4S15594   1.275   0.233   2.358 -0.5399  0.5673 -0.6918
  143OSM    H4S15595   1.334   0.140   2.354 -2.7556 -1.3040  3.5258
  143OSM    C5S15596   1.247   0.298   2.467  0.1294  0.3641  0.1843
  143OSM    H5S15597   1.170   0.376   2.458 -0.8773 -0.6505 -0.1924
  143OSM    C6S15598   1.309   0.272   2.604  0.1860 -0.0691  0.0663
  143OSM    H6S15599   1.352   0.366   2.644 -0.4158  0.3812 -0.3168
  143OSM    H6T15600   1.391   0.199   2.588 -0.9220 -0.8657 -2.5423
  143OSM    C7S15601   1.212   0.219   2.703  0.1497 -0.4782 -0.2733
  143OSM    H7S15602   1.176   0.118   2.676  2.7372 -1.7000  0.5300
  143OSM    H7T15603   1.121   0.283   2.713 -0.6402 -1.5621 -0.3830
  143OSM    C8S15604   1.278   0.219   2.842  0.0945 -0.0184 -0.6621
  143OSM    H8S15605   1.304   0.324   2.867 -2.6979  0.2563  1.6340
  143OSM    H8T15606   1.374   0.166   2.825  0.2380  0.3139 -0.8975
  143OSM    C9S15607   1.186   0.161   2.946 -0.9398  0.4985  0.7053
  143OSM    H9S15608   1.157   0.057   2.918  0.6555  0.4428 -0.9319
  143OSM    H9T15609   1.094   0.223   2.940  1.4666  4.2052 -3.2710
  143OSM   C10S15610   1.239   0.167   3.094  0.7917 -0.8023 -0.1306
  143OSM   H10S15611   1.293   0.263   3.108  0.5055 -0.6321 -0.1692
  143OSM   H10T15612   1.312   0.083   3.096  0.2922 -1.4524 -3.1041
  143OSM   C11S15613   1.134   0.146   3.205 -0.4353  0.2848  0.7138
  143OSM   H11S15614   1.057   0.071   3.178  0.4597 -1.4305  2.5866
  143OSM   H11T15615   1.082   0.242   3.227 -2.0271 -0.5272  0.6705
  143OSM   C12S15616   1.217   0.102   3.333  0.5753 -0.0861 -0.6801
  143OSM   H12S15617   1.297   0.177   3.349  2.7460 -2.2056 -1.0783
  143OSM   H12T15618   1.270   0.010   3.301  1.0981 -1.4387  3.5125
  143OSM   C13S15619   1.130   0.093   3.452  0.0171 -0.2217 -0.4582
  143OSM   H13S15620   1.155   0.006   3.516 -0.8124 -0.2110 -0.1007
  143OSM   H13T15621   1.025   0.085   3.417  0.0443  1.0417 -0.8854
  143OSM   C14S15622   1.148   0.217   3.540 -0.5885 -0.7528  0.5756
  143OSM   H14S15623   1.121   0.301   3.471 -1.3288 -1.9398 -0.6375
  143OSM   H14T15624   1.253   0.219   3.575  0.1578 -1.8637 -1.4182
  143OSM   C15S15625   1.054   0.229   3.664  0.1418 -0.5356  0.0156
  143OSM   H15S15626   0.950   0.236   3.627  0.0107 -2.4198 -0.0825
  143OSM   H15T15627   1.084   0.321   3.719  2.1358  0.5378 -2.6605
  143OSM   C16S15628   1.060   0.100   3.744  0.8418  0.3506 -0.2635
  143OSM   H16S15629   1.029   0.015   3.680 -1.9838  0.7133  0.5136
  143OSM   H16T15630   0.977   0.110   3.817  2.1878  1.0298  1.2324
  143OSM   C17S15631   1.181   0.090   3.829 -0.2921 -0.1055 -0.2514
  143OSM   H17S15632   1.192   0.179   3.894 -1.1710 -1.3454  1.6980
  143OSM   H17T15633   1.267   0.099   3.759  0.1087  0.8922  0.3608
  143OSM   C18S15634   1.200  -0.033   3.920  0.4734 -0.1689 -0.3131
  143OSM   H18S15635   1.298  -0.030   3.972  0.4366  0.2154 -0.2626
  143OSM   H18T15636   1.201  -0.130   3.865 -0.3087 -1.0623  1.1707
  143OSM   H18U15637   1.119  -0.035   3.995  2.7854  1.2517  2.4075
  143OSM    C1F15638   1.018  -0.053   2.253  0.1037 -0.1253 -0.1119
  143OSM     OF15639   1.093  -0.128   2.194 -0.7289 -0.5802  0.7967
  143OSM    C2F15640   0.888  -0.102   2.319 -0.6190  0.1725 -0.7760
  143OSM    H2F15641   0.891  -0.061   2.422  1.8616 -2.7561  0.4754
  143OSM    H2G15642   0.897  -0.212   2.335 -1.1981  0.2682  0.2740
  143OSM    C3F15643   0.757  -0.095   2.240  0.8887 -0.2120  0.2425
  143OSM    H3F15644   0.755  -0.142   2.139 -0.6464  1.5311 -0.5987
  143OSM    H3G15645   0.715   0.008   2.237  0.3461 -0.3427  2.2173
  143OSM    C4F15646   0.649  -0.180   2.315  0.2983  0.1303  0.3093
  143OSM    H4F15647   0.690  -0.284   2.321 -2.3636 -0.9139  2.3876
  143OSM    H4G15648   0.559  -0.175   2.250  0.6607 -1.1582 -0.3301
  143OSM    C5F15649   0.606  -0.123   2.449 -0.2772 -0.3594  0.8200
  143OSM    H5F15650   0.556  -0.024   2.449 -2.0786 -1.2175  1.6226
  143OSM    H5G15651   0.688  -0.107   2.523 -0.1330  2.4624  0.1682
  143OSM    C6F15652   0.496  -0.215   2.516 -0.1731 -0.1276 -0.6575
  143OSM    H6F15653   0.542  -0.311   2.548  1.2494  0.7075 -0.1100
  143OSM    H6G15654   0.408  -0.243   2.453 -1.5573 -3.4667  2.4317
  143OSM    C7F15655   0.445  -0.140   2.635 -0.0201  0.8609 -0.2711
  143OSM    H7F15656   0.419  -0.036   2.605 -0.4154  1.0596  0.7379
  143OSM    H7G15657   0.522  -0.121   2.713 -0.2601  2.4324 -0.3872
  143OSM    C8F15658   0.317  -0.213   2.694  0.5964 -0.1445 -0.0143
  143OSM    H8F15659   0.332  -0.321   2.717 -0.4342  0.3194  3.4025
  143OSM    H8G15660   0.251  -0.204   2.605  3.5089 -0.5200 -2.3917
  143OSM    C9F15661   0.264  -0.130   2.809 -0.6387 -0.0830 -0.0683
  143OSM    H9F15662   0.217  -0.033   2.788 -0.1720  0.3763  0.9368
  143OSM   C10F15663   0.272  -0.158   2.940  0.3832 -0.4352  0.3028
  143OSM   H10F15664   0.241  -0.078   3.009  1.3703  0.7182 -0.5371
  143OSM   C11F15665   0.339  -0.281   3.005  0.0974  0.0460  0.4740
  143OSM   H11F15666   0.439  -0.263   3.050  1.5469 -4.6445 -0.3484
  143OSM   H11G15667   0.352  -0.358   2.927 -1.5452 -2.2836  2.3461
  143OSM   C12F15668   0.248  -0.343   3.112 -0.0927  0.0566  0.2558
  143OSM   H12F15669   0.286  -0.443   3.143 -1.0984 -0.6406 -0.6960
  143OSM   H12G15670   0.150  -0.363   3.063 -0.1092  1.8898 -0.5400
  143OSM   C13F15671   0.254  -0.245   3.232  0.4048  1.0927 -0.1802
  143OSM   H13F15672   0.237  -0.138   3.205 -3.7592  0.7017  0.1759
  143OSM   H13G15673   0.355  -0.241   3.278  0.2937 -1.2332  0.3678
  143OSM   C14F15674   0.150  -0.283   3.340 -0.5483 -0.7880  0.1822
  143OSM   H14F15675   0.136  -0.391   3.358 -0.3348 -0.6459  1.2708
  143OSM   H14G15676   0.053  -0.241   3.305 -0.3684 -1.2517 -0.9074
  143OSM   C15F15677   0.184  -0.213   3.478 -0.7070  0.0728  0.3436
  143OSM   H15F15678   0.089  -0.205   3.535 -0.8503  1.1680 -0.0294
  143OSM   H15G15679   0.224  -0.114   3.448 -0.4346  0.0317  0.5614
  143OSM   C16F15680   0.297  -0.301   3.546  0.5060  0.1856 -0.1137
  143OSM   H16F15681   0.371  -0.236   3.596 -1.2561  0.1399  2.8223
  143OSM   H16G15682   0.356  -0.363   3.475  0.9750 -0.7253  1.0457
  143OSM   C17F15683   0.255  -0.403   3.658 -0.3328  1.4868 -0.6060
  143OSM   H17F15684   0.181  -0.476   3.620  0.3039 -1.6822  3.5453
  143OSM   H17G15685   0.204  -0.348   3.740 -0.7209  1.9598 -1.1533
  143OSM   C18F15686   0.376  -0.467   3.720 -0.0426  0.1653 -0.5020
  143OSM   H18F15687   0.353  -0.544   3.797  0.4391 -1.0679 -1.5636
  143OSM   H18G15688   0.447  -0.395   3.765  1.5308 -1.9228  0.4962
  143OSM   H18H15689   0.432  -0.516   3.638 -0.8743  0.2880 -1.1604
  144OSM      N15690   0.654   6.721   1.653 -0.2841  0.0314 -0.0944
  144OSM    C1515691   0.608   6.844   1.570  0.0274 -0.3145 -0.5023
  144OSM   H15A15692   0.683   6.921   1.574  1.7825 -1.9808  1.5900
  144OSM   H15B15693   0.512   6.888   1.590  0.8670  1.5277 -0.3531
  144OSM   H15C15694   0.620   6.816   1.467  2.2275  1.3828 -0.7899
  144OSM    C1415695   0.563   6.600   1.623 -0.0932 -0.6982  0.1575
  144OSM   H14A15696   0.466   6.635   1.654  0.0993 -0.2659  0.2908
  144OSM   H14B15697   0.589   6.515   1.684  1.1296 -0.0721  0.5533
  144OSM   H14C15698   0.569   6.584   1.516  2.8130 -1.4001  0.3475
  144OSM    C1315699   0.793   6.681   1.612 -0.3060  0.1811  0.4421
  144OSM   H13A15700   0.822   6.581   1.639 -2.0827 -1.0524 -1.8692
  144OSM   H13B15701   0.853   6.769   1.630 -0.4510  0.5042 -0.5966
  144OSM   H13C15702   0.792   6.668   1.505 -2.8708 -3.1558  0.7274
  144OSM    C1215703   0.656   6.744   1.803 -1.1069  0.4968  0.3026
  144OSM   H12A15704   0.691   6.648   1.839  2.5895  1.5430 -0.1311
  144OSM   H12B15705   0.558   6.750   1.849 -1.6394 -0.8017 -0.5752
  144OSM    C1115706   0.750   6.861   1.858 -0.1822  0.1107  0.3544
  144OSM   H11A15707   0.851   6.857   1.814 -0.5058 -0.9425 -0.3249
  144OSM   H11B15708   0.775   6.846   1.965  0.7338  1.6351  0.3805
  144OSM      P15709   0.572   7.042   1.923 -0.1240 -0.0446  0.3041
  144OSM    O1315710   0.517   7.155   1.847 -0.2049  0.4455 -0.3227
  144OSM    O1415711   0.482   6.931   1.942 -0.0258  0.2789 -0.6000
  144OSM    O1115712   0.630   7.096   2.053  0.3220  0.2739 -0.7810
  144OSM    O1215713   0.695   6.994   1.844  0.0948  0.1793 -0.0042
  144OSM    C1S15714   0.542   7.155   2.156  0.0320  0.3416 -0.3096
  144OSM    H1S15715   0.435   7.125   2.143  0.0555 -0.6846  1.5593
  144OSM    H1T15716   0.562   7.264   2.159  3.4337 -0.1954  0.4269
  144OSM     NF15717   0.468   7.158   2.397  0.5463  0.1285 -0.1731
  144OSM    HNF15718   0.484   7.241   2.450 -2.2924  0.6740 -0.0299
  144OSM    C2S15719   0.572   7.111   2.303 -0.4043  0.4934  0.1200
  144OSM    H2S15720   0.569   6.999   2.304  4.0181  0.1784 -1.1202
  144OSM    C3S15721   0.718   7.150   2.347 -0.0982  0.1367  0.1430
  144OSM    H3S15722   0.729   7.260   2.338  1.7399 -0.0281  0.0465
  144OSM     O315723   0.822   7.098   2.264  0.0950 -0.6343 -0.4411
  144OSM    HO315724   0.780   7.100   2.178  0.8386  0.3802 -0.8005
  144OSM    C4S15725   0.739   7.117   2.491  0.2637 -0.3681 -0.2913
  144OSM    H4S15726   0.699   7.197   2.555 -2.0902  0.5566 -2.7639
  144OSM    C5S15727   0.816   7.022   2.549 -0.2415 -0.0836  0.3254
  144OSM    H5S15728   0.872   6.954   2.484 -1.2961  0.9131 -1.7063
  144OSM    C6S15729   0.838   6.996   2.695  0.1077  0.1674  0.0849
  144OSM    H6S15730   0.867   7.088   2.752  0.2162  0.4376 -0.4047
  144OSM    H6T15731   0.921   6.922   2.700 -1.6280 -2.0468 -1.8428
  144OSM    C7S15732   0.720   6.925   2.771 -0.1205  0.2988 -0.1554
  144OSM    H7S15733   0.699   6.827   2.723 -0.7938 -0.4964  1.6859
  144OSM    H7T15734   0.631   6.988   2.749 -0.4102 -0.3677 -0.9415
  144OSM    C8S15735   0.735   6.912   2.920 -0.3425 -0.3815  0.3865
  144OSM    H8S15736   0.743   7.018   2.952  1.1974 -0.7647  1.4150
  144OSM    H8T15737   0.830   6.859   2.945 -1.5591 -2.6235  0.5219
  144OSM    C9S15738   0.614   6.843   2.988 -0.3077 -0.5977 -0.5737
  144OSM    H9S15739   0.616   6.733   2.973  0.4017 -0.5804 -0.6416
  144OSM    H9T15740   0.518   6.871   2.940  0.4298 -0.4574 -2.0003
  144OSM   C10S15741   0.608   6.870   3.142  0.0057 -0.8413  0.8083
  144OSM   H10S15742   0.613   6.981   3.155 -1.6835 -0.6530  0.0320
  144OSM   H10T15743   0.702   6.841   3.195  2.3489  3.2834 -0.5518
  144OSM   C11S15744   0.476   6.829   3.211 -0.2862  0.1358  0.1787
  144OSM   H11S15745   0.466   6.718   3.222 -2.1341  0.1322 -1.0429
  144OSM   H11T15746   0.393   6.863   3.146  0.2112 -1.3597 -1.3498
  144OSM   C12S15747   0.453   6.905   3.341 -0.1780 -0.0952 -0.9740
  144OSM   H12S15748   0.355   6.872   3.381  0.2205  0.7432  0.8264
  144OSM   H12T15749   0.437   7.014   3.329 -1.2506 -0.4079 -2.8993
  144OSM   C13S15750   0.550   6.884   3.457 -0.2900  1.0814  0.2464
  144OSM   H13S15751   0.651   6.918   3.425  0.1178  0.9103  1.3132
  144OSM   H13T15752   0.540   6.777   3.482  1.4490  0.9743  0.6026
  144OSM   C14S15753   0.505   6.940   3.587 -0.2139  0.0756  0.4704
  144OSM   H14S15754   0.399   6.921   3.614 -0.3639  0.4142  0.1293
  144OSM   H14T15755   0.502   7.050   3.569 -0.1951 -0.2250 -1.6093
  144OSM   C15S15756   0.613   6.925   3.700 -0.4638  0.2920  0.2329
  144OSM   H15S15757   0.712   6.972   3.681  0.5678 -1.7609  0.2807
  144OSM   H15T15758   0.636   6.817   3.703 -0.1905  0.3463  0.0432
  144OSM   C16S15759   0.571   6.966   3.839 -0.1409  0.4284  0.0221
  144OSM   H16S15760   0.656   6.978   3.909 -0.1444 -3.2383  0.8223
  144OSM   H16T15761   0.501   6.890   3.880  0.3711 -0.8062 -1.3022
  144OSM   C17S15762   0.493   7.098   3.851 -0.1534 -0.5946  0.2929
  144OSM   H17S15763   0.404   7.085   3.786  0.4119 -0.3174 -0.5541
  144OSM   H17T15764   0.556   7.179   3.808 -0.6809 -1.5744 -2.5130
  144OSM   C18S15765   0.424   7.127   3.987  0.5056  0.1332 -0.1258
  144OSM   H18S15766   0.379   7.033   4.026 -1.0461  1.0321  0.3363
  144OSM   H18T15767   0.336   7.193   3.970  0.8055  0.3258 -0.9589
  144OSM   H18U15768   0.495   7.177   4.057 -1.8706  4.1854 -0.2534
  144OSM    C1F15769   0.342   7.113   2.391 -0.0719  0.0340  0.2578
  144OSM     OF15770   0.320   7.004   2.343  0.2981  0.1174 -0.2363
  144OSM    C2F15771   0.227   7.207   2.425  0.2294  0.1228 -0.0008
  144OSM    H2F15772   0.171   7.224   2.330 -3.3254  0.3776  1.9530
  144OSM    H2G15773   0.273   7.306   2.448  0.3939  0.3430 -1.1725
  144OSM    C3F15774   0.128   7.159   2.537 -0.3474  0.1461 -0.1337
  144OSM    H3F15775   0.074   7.070   2.500 -1.7401  1.0186 -0.2924
  144OSM    H3G15776   0.050   7.236   2.556 -2.2303 -2.0209  1.4337
  144OSM    C4F15777   0.204   7.121   2.664  0.6254  0.4789 -0.4873
  144OSM    H4F15778   0.276   7.037   2.653  2.0209  1.7363 -1.2675
  144OSM    H4G15779   0.128   7.080   2.734  1.2800 -0.6198 -0.4028
  144OSM    C5F15780   0.282   7.242   2.730 -1.0792  0.8054  0.6369
  144OSM    H5F15781   0.231   7.330   2.685  0.0974  1.2271  0.0970
  144OSM    H5G15782   0.381   7.244   2.681 -0.1354 -0.9085  2.3484
  144OSM    C6F15783   0.302   7.247   2.882  0.1851  0.2489  0.1185
  144OSM    H6F15784   0.329   7.152   2.932  1.6829  1.2030  1.2227
  144OSM    H6G15785   0.210   7.294   2.924  0.0388 -0.3322  0.4470
  144OSM    C7F15786   0.413   7.352   2.926  0.5747 -0.3987  0.1043
  144OSM    H7F15787   0.404   7.383   3.032 -5.2364 -1.6314  0.3192
  144OSM    H7G15788   0.400   7.440   2.858  1.9194 -0.1754  0.1189
  144OSM    C8F15789   0.556   7.293   2.905 -0.6229 -0.0361 -0.4690
  144OSM    H8F15790   0.565   7.274   2.796  2.2596 -0.3999 -0.2407
  144OSM    H8G15791   0.548   7.193   2.952 -0.7657  1.4200  2.9808
  144OSM    C9F15792   0.681   7.364   2.947  0.3988  0.0379  0.0749
  144OSM    H9F15793   0.704   7.452   2.885  1.8424  0.5465  1.2761
  144OSM   C10F15794   0.755   7.331   3.056 -0.1933  0.2097  0.5860
  144OSM   H10F15795   0.849   7.385   3.072  0.3134 -0.8280  1.2409
  144OSM   C11F15796   0.715   7.233   3.156  0.1556 -0.1617 -0.3254
  144OSM   H11F15797   0.779   7.144   3.137 -0.0186 -0.2182 -0.6676
  144OSM   H11G15798   0.609   7.199   3.148 -0.2891  1.0191  0.3684
  144OSM   C12F15799   0.738   7.301   3.288 -0.3088 -0.5961 -0.1983
  144OSM   H12F15800   0.659   7.377   3.307  1.3902  1.0289  0.7060
  144OSM   H12G15801   0.832   7.360   3.291  0.3156 -1.4364 -1.8446
  144OSM   C13F15802   0.759   7.205   3.407 -1.0466 -0.6572 -0.0440
  144OSM   H13F15803   0.830   7.129   3.365  1.6990  1.6987 -0.0106
  144OSM   H13G15804   0.658   7.159   3.412 -1.2636 -0.3738 -1.4248
  144OSM   C14F15805   0.812   7.265   3.536 -0.4730  0.3477  0.3220
  144OSM   H14F15806   0.919   7.293   3.527 -0.9527  2.4856  0.7646
  144OSM   H14G15807   0.797   7.189   3.616 -1.4276 -0.0625 -0.2167
  144OSM   C15F15808   0.739   7.396   3.581  0.7856  0.2361  0.2730
  144OSM   H15F15809   0.629   7.386   3.574  0.8504  0.4794 -2.0625
  144OSM   H15G15810   0.751   7.479   3.508 -1.4615  1.0310  0.7334
  144OSM   C16F15811   0.767   7.455   3.717  1.0253 -0.6084  0.1968
  144OSM   H16F15812   0.751   7.379   3.796 -1.5556 -0.9646 -0.5533
  144OSM   H16G15813   0.697   7.532   3.756  1.8735 -0.7160  2.0213
  144OSM   C17F15814   0.914   7.506   3.720  0.3040 -0.2357  0.4906
  144OSM   H17F15815   0.920   7.586   3.643  0.3463  0.1605  0.9019
  144OSM   H17G15816   0.984   7.425   3.691  1.6664  1.2749 -0.6042
  144OSM   C18F15817   0.949   7.565   3.860  0.0525  0.4868 -0.2365
  144OSM   H18F15818   0.860   7.586   3.923  0.3938 -1.6177  1.0256
  144OSM   H18G15819   1.008   7.659   3.865 -0.4227  0.7302  1.3777
  144OSM   H18H15820   1.006   7.485   3.910  1.1700  1.1458 -0.4290
  145SAPE     N15821   1.370   0.813   6.429  0.3800 -0.1476  0.2632
  145SAPE   HN115822   1.403   0.865   6.513  0.3758 -0.3667  0.3999
  145SAPE   HN215823   1.316   0.877   6.366 -1.4540 -2.7104 -0.9425
  145SAPE   HN315824   1.299   0.746   6.464 -0.2034 -0.4428 -1.3833
  145SAPE   C1215825   1.490   0.767   6.350 -0.7426  0.3199 -0.6457
  145SAPE  H12A15826   1.458   0.701   6.266  0.3651 -0.5332 -0.4115
  145SAPE  H12B15827   1.551   0.712   6.424 -1.6722 -2.1889 -1.6373
  145SAPE   C1115828   1.585   0.884   6.299  0.2442  0.5453 -0.0505
  145SAPE  H11A15829   1.533   0.937   6.217 -1.0349 -0.1544  0.2901
  145SAPE  H11B15830   1.675   0.835   6.256  1.8275  1.2777  2.2172
  145SAPE     P15831   1.677   1.114   6.366 -0.2559 -0.4058 -0.0668
  145SAPE   O1315832   1.599   1.219   6.442 -0.5192  0.1291  0.4491
  145SAPE   O1415833   1.818   1.093   6.415 -0.1733  0.0716 -0.1873
  145SAPE   O1215834   1.614   0.982   6.395  0.0585  0.3609  0.2617
  145SAPE   O1115835   1.678   1.134   6.210  0.7082 -0.5244  0.2339
  145SAPE    C115836   1.570   1.189   6.131 -0.8542  0.0211 -0.9850
  145SAPE    HA15837   1.548   1.116   6.050 -0.7929 -1.2578  0.1164
  145SAPE    HB15838   1.479   1.189   6.196 -0.0145 -2.1108  0.2791
  145SAPE    C215839   1.608   1.325   6.062 -0.7135  0.3152 -0.3092
  145SAPE    HS15840   1.515   1.366   6.016 -1.3925 -1.1925 -0.3714
  145SAPE   O2115841   1.706   1.295   5.962 -0.2598 -0.0883 -0.0909
  145SAPE   C2115842   1.665   1.303   5.836 -0.5255 -0.5666 -0.6568
  145SAPE   O2215843   1.551   1.324   5.802 -0.2573  0.0432 -0.2441
  145SAPE   C2215844   1.781   1.291   5.734  0.5088  0.4511  0.3888
  145SAPE   H2R15845   1.876   1.310   5.788  1.3217 -1.1067 -0.4257
  145SAPE   H2S15846   1.789   1.193   5.683  2.4863  1.0841 -0.6545
  145SAPE    C315847   1.658   1.424   6.169  0.0497 -0.1497 -0.3782
  145SAPE    HX15848   1.746   1.386   6.224 -0.1481  0.8778  0.6907
  145SAPE    HY15849   1.576   1.416   6.245  1.2387  1.1218  1.1140
  145SAPE   O3115850   1.677   1.556   6.124  0.5109  0.0884  0.1352
  145SAPE   C3115851   1.792   1.591   6.069  0.5164  0.9660  0.2756
  145SAPE   O3215852   1.896   1.525   6.076 -0.2054 -0.4238  0.8379
  145SAPE   C3215853   1.778   1.721   5.992 -0.5365  0.5465 -0.8902
  145SAPE   H2X15854   1.841   1.799   6.040 -0.4464 -0.0162 -0.0818
  145SAPE   H2Y15855   1.677   1.766   6.004 -0.0392  1.1959  1.1101
  145SAPE   C2315856   1.770   1.396   5.619  0.0531 -0.4003  0.0887
  145SAPE   H3R15857   1.870   1.408   5.572  0.1126 -0.6464  0.1541
  145SAPE   H3S15858   1.725   1.494   5.647 -1.5231 -1.0516 -0.0558
  145SAPE   C2415859   1.693   1.330   5.497 -0.1599  0.3503  0.2844
  145SAPE   H4R15860   1.593   1.305   5.538 -0.9046  3.2416  0.3916
  145SAPE   H4S15861   1.742   1.235   5.465  0.0727  0.8434 -0.8771
  145SAPE   C2515862   1.684   1.411   5.374  0.6424 -0.5266 -0.3478
  145SAPE   H5R15863   1.586   1.458   5.356  0.4251 -2.1122 -4.2254
  145SAPE   C2615864   1.784   1.428   5.284  0.4229 -0.0425  0.6730
  145SAPE   H6R15865   1.756   1.483   5.192  0.0005 -0.9052  0.2722
  145SAPE   C2715866   1.919   1.363   5.291  0.1785 -0.8554 -0.5274
  145SAPE   H7R15867   1.931   1.309   5.388 -1.7552  1.3385  1.0568
  145SAPE   H7S15868   1.996   1.443   5.290  0.1208 -0.6478  2.4797
  145SAPE   C2815869   1.945   1.271   5.171  0.8430 -0.1515  0.1125
  145SAPE   H8R15870   1.916   1.168   5.196  0.1939  0.4613  2.0653
  145SAPE   C2915871   1.976   1.302   5.044  0.3814  0.0739  0.1397
  145SAPE   H9R15872   2.006   1.220   4.978 -0.0404  1.4058 -1.7901
  145SAPE  C21015873   2.015   1.443   4.995  0.2289  0.4357  0.8705
  145SAPE  H10R15874   2.124   1.443   4.976  0.3656  2.3647  1.4781
  145SAPE  H10S15875   1.992   1.521   5.070  0.5085  2.6084 -1.1538
  145SAPE  C21115876   1.932   1.478   4.874  1.0390  0.2722  0.4349
  145SAPE  H11R15877   1.829   1.440   4.880  1.7806 -1.9324  0.0251
  145SAPE  C21215878   1.964   1.552   4.765  0.6650  0.8366 -0.1357
  145SAPE  H12R15879   1.888   1.560   4.687  0.4231 -2.0399 -0.2953
  145SAPE  C21315880   2.087   1.619   4.732 -0.4454  0.0453  0.8049
  145SAPE  H13R15881   2.127   1.654   4.830 -1.3520  1.7842  0.5795
  145SAPE  H13S15882   2.078   1.714   4.675  1.1950  0.2884  0.9063
  145SAPE  C21415883   2.188   1.525   4.675  0.5967  0.4499 -0.1294
  145SAPE  H14R15884   2.158   1.419   4.670 -2.4807  1.1950  0.5753
  145SAPE  C21515885   2.313   1.548   4.633  0.1364 -0.1109  0.2324
  145SAPE  H15R15886   2.373   1.464   4.597 -0.2097 -0.4105  0.3470
  145SAPE  C21615887   2.374   1.679   4.614  0.5130 -0.5252  0.1058
  145SAPE  H16R15888   2.308   1.763   4.644  4.2019  3.0066 -0.8337
  145SAPE  H16S15889   2.383   1.686   4.503  0.4494 -3.9988 -0.2229
  145SAPE  C21715890   2.509   1.697   4.688  0.5672 -0.2453 -0.6683
  145SAPE  H17R15891   2.586   1.620   4.667  2.2240  1.1092  0.1496
  145SAPE  H17S15892   2.476   1.687   4.793 -0.0253 -0.9691 -0.9114
  145SAPE  C21815893   2.571   1.835   4.662 -0.1721 -0.2965 -0.1195
  145SAPE  H18R15894   2.520   1.910   4.725  1.1960  1.2526 -0.7658
  145SAPE  H18S15895   2.556   1.864   4.556 -1.6259  0.3612  0.2440
  145SAPE  C21915896   2.724   1.832   4.680 -0.2332  0.4515  0.5774
  145SAPE  H19R15897   2.753   1.915   4.612 -0.6689 -0.1156 -0.3189
  145SAPE  H19S15898   2.773   1.740   4.641  2.7796  2.1886 -0.0768
  145SAPE  C22015899   2.773   1.856   4.816 -0.3065 -1.1266 -0.8152
  145SAPE  H20R15900   2.745   1.771   4.881 -0.8631 -0.6137 -0.3690
  145SAPE  H20S15901   2.709   1.938   4.855  1.0149 -0.5874  0.3023
  145SAPE  H20T15902   2.880   1.884   4.819 -0.3713 -0.5781 -2.6124
  145SAPE   C3315903   1.823   1.700   5.849 -0.9330  0.2497 -0.0629
  145SAPE   H3X15904   1.762   1.619   5.805  0.1565 -1.0944  0.8062
  145SAPE   H3Y15905   1.923   1.651   5.843 -0.9742  0.0084  0.9924
  145SAPE   C3415906   1.813   1.814   5.755  0.2397 -0.7890 -0.0218
  145SAPE   H4X15907   1.876   1.897   5.794  1.1795  0.2714 -3.4738
  145SAPE   H4Y15908   1.707   1.847   5.745  1.1194  1.6756 -2.5214
  145SAPE   C3515909   1.864   1.771   5.612 -1.0645  0.3508 -0.1702
  145SAPE   H5X15910   1.789   1.700   5.573  0.2284 -0.7576 -0.7404
  145SAPE   H5Y15911   1.958   1.717   5.636 -0.7486  1.0030  0.0923
  145SAPE   C3615912   1.864   1.886   5.508  0.2439  0.1091  0.0428
  145SAPE   H6X15913   1.927   1.971   5.542 -1.8340  2.8659 -2.5419
  145SAPE   H6Y15914   1.762   1.927   5.523 -0.0076 -0.8819  1.1739
  145SAPE   C3715915   1.887   1.848   5.362  0.2157  0.4331 -0.6281
  145SAPE   H7X15916   1.840   1.747   5.352 -0.2231  0.4507  0.8945
  145SAPE   H7Y15917   1.996   1.833   5.344  0.7020 -1.9111  3.0442
  145SAPE   C3815918   1.824   1.947   5.261  0.5118  0.3817  0.4072
  145SAPE   H8X15919   1.875   2.045   5.273 -0.1246  1.0195 -1.6367
  145SAPE   H8Y15920   1.718   1.955   5.293  0.1888 -2.0640  0.1424
  145SAPE   C3915921   1.834   1.902   5.113  0.0147 -0.2566 -0.8418
  145SAPE   H9X15922   1.928   1.845   5.096 -1.6304 -2.4721 -3.5659
  145SAPE   H9Y15923   1.852   1.987   5.043  0.5473 -0.2091 -0.6515
  145SAPE  C31015924   1.720   1.807   5.070  0.4156  0.8029  0.4559
  145SAPE  H10X15925   1.619   1.848   5.089  0.4189  0.3016  1.5975
  145SAPE  H10Y15926   1.735   1.716   5.130  3.3589  0.6814 -0.3087
  145SAPE  C31115927   1.731   1.785   4.919  0.1912 -0.3333 -0.1364
  145SAPE  H11X15928   1.678   1.688   4.905 -0.3200 -0.1127  0.2486
  145SAPE  H11Y15929   1.840   1.770   4.900  0.2524 -0.4387  0.2833
  145SAPE  C31215930   1.676   1.903   4.828 -0.3923 -0.1540 -0.4832
  145SAPE  H12X15931   1.732   1.992   4.864  2.5655 -1.5301 -1.4288
  145SAPE  H12Y15932   1.567   1.918   4.846  0.0294  1.5164  0.9872
  145SAPE  C31315933   1.706   1.884   4.678 -0.8585  0.0780  0.3540
  145SAPE  H13X15934   1.709   1.776   4.651  0.0579  0.2787 -0.3869
  145SAPE  H13Y15935   1.801   1.934   4.652 -0.3221 -0.7056  0.7530
  145SAPE  C31415936   1.597   1.954   4.596 -0.2571 -0.1961  0.0004
  145SAPE  H14X15937   1.584   2.056   4.639 -1.8071 -0.6547  0.6878
  145SAPE  H14Y15938   1.507   1.889   4.592 -0.4388  0.1044 -2.0694
  145SAPE  C31515939   1.640   1.975   4.449 -0.8160 -0.4805 -0.6992
  145SAPE  H15X15940   1.669   1.874   4.412  0.3439 -1.1382  1.7738
  145SAPE  H15Y15941   1.737   2.028   4.445 -1.1679  0.2063 -0.3382
  145SAPE  C31615942   1.533   2.023   4.355 -0.1612 -0.6985  0.1335
  145SAPE  H16X15943   1.579   2.031   4.254 -0.6157  2.1942  0.0562
  145SAPE  H16Y15944   1.490   2.120   4.389  0.4459  0.7566 -2.8541
  145SAPE  C31715945   1.414   1.925   4.341  0.4228 -0.0066  0.3542
  145SAPE  H17X15946   1.335   1.960   4.412 -0.0808  0.6479 -0.4981
  145SAPE  H17Y15947   1.456   1.823   4.353 -0.0802 -0.2635 -0.0194
  145SAPE  C31815948   1.350   1.919   4.198 -0.1131  0.3332 -0.1543
  145SAPE  H18X15949   1.282   1.831   4.197 -0.9526  0.9760 -0.3655
  145SAPE  H18Y15950   1.432   1.908   4.125 -1.5079 -2.5130 -1.4510
  145SAPE  H18Z15951   1.298   2.012   4.167 -1.6603 -0.2334  0.6506
  146SAPE     N15952   4.836   1.555   6.628 -0.6178 -0.1611 -0.3917
  146SAPE   HN115953   4.936   1.526   6.630 -0.9344 -1.3099  0.4452
  146SAPE   HN215954   4.799   1.484   6.695  0.2392 -0.2957 -0.0510
  146SAPE   HN315955   4.791   1.536   6.537 -2.6179  0.6438  0.3699
  146SAPE   C1215956   4.844   1.700   6.675 -0.2942  0.2102 -0.0085
  146SAPE  H12A15957   4.864   1.693   6.784 -1.2561 -1.9678  0.0723
  146SAPE  H12B15958   4.741   1.740   6.661 -0.9326 -1.2059  0.4624
  146SAPE   C1115959   4.948   1.785   6.606  0.1860  0.3569  0.6956
  146SAPE  H11A15960   5.041   1.725   6.600 -0.2259 -0.1439 -1.1265
  146SAPE  H11B15961   4.958   1.876   6.670  0.2710 -0.1670  1.4483
  146SAPE     P15962   4.796   1.907   6.450 -0.0778  0.1993 -0.0626
  146SAPE   O1315963   4.679   1.822   6.425 -0.8919  0.3382 -0.1999
  146SAPE   O1415964   4.793   1.993   6.570 -0.2054 -0.5440 -0.0438
  146SAPE   O1215965   4.920   1.811   6.465 -0.5849  0.0127 -0.4322
  146SAPE   O1115966   4.837   1.995   6.318  0.3501 -0.2053  0.0775
  146SAPE    C115967   4.948   1.963   6.235  0.2789 -0.2805 -0.4359
  146SAPE    HA15968   5.036   1.939   6.298  0.1532 -1.6976 -0.7559
  146SAPE    HB15969   4.912   1.869   6.187  2.3365 -0.2597 -2.1337
  146SAPE    C215970   4.974   2.067   6.118 -0.3412 -0.0874 -0.1803
  146SAPE    HS15971   5.006   2.153   6.179 -0.8379 -2.8263  4.4217
  146SAPE   O2115972   4.854   2.089   6.047  0.6506 -0.1579 -0.5082
  146SAPE   C2115973   4.852   2.184   5.954  0.5715 -0.5895 -0.6736
  146SAPE   O2215974   4.954   2.233   5.906  0.0916 -0.1954  0.3496
  146SAPE   C2215975   4.714   2.225   5.910  0.7598  0.5624 -0.1125
  146SAPE   H2R15976   4.673   2.304   5.976 -0.1843 -0.4686  0.5634
  146SAPE   H2S15977   4.712   2.249   5.801  1.9206 -2.0390 -0.7873
  146SAPE    C315978   5.099   2.024   6.031  0.7765 -0.3657 -0.0799
  146SAPE    HX15979   5.185   2.028   6.101  1.3783  2.9966 -0.8704
  146SAPE    HY15980   5.129   2.095   5.952 -1.1026 -0.1433 -0.6419
  146SAPE   O3115981   5.088   1.886   5.986 -0.0670 -0.0163  0.7094
  146SAPE   C3115982   5.020   1.875   5.861 -0.3937  0.0004 -0.8118
  146SAPE   O3215983   4.986   1.960   5.792  0.1634 -0.6277  0.4282
  146SAPE   C3215984   4.980   1.733   5.840  0.4314  0.0009  0.6937
  146SAPE   H2X15985   4.873   1.704   5.849  0.0246  1.4590  0.8646
  146SAPE   H2Y15986   5.018   1.670   5.923  1.3315  0.4792  0.6525
  146SAPE   C2315987   4.592   2.121   5.917  0.0607  0.0178  0.4439
  146SAPE   H3R15988   4.559   2.101   6.022  1.5191 -0.4391  0.8396
  146SAPE   H3S15989   4.631   2.024   5.878  0.3830 -0.1833  1.2380
  146SAPE   C2415990   4.476   2.162   5.818  0.1998 -0.0064  0.4962
  146SAPE   H4R15991   4.515   2.162   5.714 -1.5819  0.8794 -0.2166
  146SAPE   H4S15992   4.439   2.265   5.835 -0.7242 -0.3105  0.4208
  146SAPE   C2515993   4.361   2.067   5.837 -0.1457  0.1729  0.5817
  146SAPE   H5R15994   4.356   2.028   5.940 -0.7107 -0.2429  0.4015
  146SAPE   C2615995   4.277   2.020   5.746 -0.1377 -0.4268 -0.9650
  146SAPE   H6R15996   4.235   1.920   5.767  0.5961 -0.9117 -1.7537
  146SAPE   C2715997   4.275   2.064   5.597 -0.3111  0.1937 -0.4811
  146SAPE   H7R15998   4.220   1.985   5.541 -4.0853  1.2143  1.4368
  146SAPE   H7S15999   4.378   2.077   5.557  0.5022  1.0522  1.7623
  146SAPE   C2816000   4.192   2.188   5.577  0.7060 -0.4616 -1.1241
  146SAPE   H8R16001   4.139   2.227   5.665 -0.1830  0.3833 -2.0098
  146SAPE   C2916002   4.194   2.276   5.473  0.3923 -0.4569  0.9509
  146SAPE   H9R16003   4.123   2.360   5.473 -2.5059 -2.7005 -1.2550
  146SAPE  C21016004   4.269   2.260   5.339 -0.3895  0.5599 -0.0142
  146SAPE  H10R16005   4.302   2.154   5.334 -2.1444 -0.0474  0.4629
  146SAPE  H10S16006   4.363   2.319   5.346 -1.1316  1.8457 -0.6304
  146SAPE  C21116007   4.187   2.304   5.221 -0.7676 -0.5535 -0.2015
  146SAPE  H11R16008   4.080   2.290   5.241 -0.7920  0.3344  0.3349
  146SAPE  C21216009   4.232   2.326   5.100 -0.9888  0.2118  0.6395
  146SAPE  H12R16010   4.158   2.339   5.019  0.1840  0.3032 -0.4351
  146SAPE  C21316011   4.373   2.311   5.055 -0.2461  0.9774  0.6856
  146SAPE  H13R16012   4.451   2.297   5.132  0.3116  1.6762  0.2632
  146SAPE  H13S16013   4.392   2.413   5.016  0.5929  1.8763  3.2458
  146SAPE  C21416014   4.402   2.206   4.946  0.6506  0.2856  0.0904
  146SAPE  H14R16015   4.358   2.109   4.975 -1.3860  1.6594  1.8399
  146SAPE  C21516016   4.451   2.220   4.823  0.2689 -0.8840 -0.6219
  146SAPE  H15R16017   4.473   2.129   4.765 -3.2044 -0.6941 -2.5119
  146SAPE  C21616018   4.511   2.353   4.768 -0.3342  0.2774  0.2862
  146SAPE  H16R16019   4.597   2.391   4.829  0.7573 -3.3146  1.2674
  146SAPE  H16S16020   4.431   2.426   4.746  0.9321  1.3297 -1.0192
  146SAPE  C21716021   4.576   2.333   4.629 -0.1089  0.0095  0.0872
  146SAPE  H17R16022   4.668   2.271   4.637  0.4131  0.1344 -3.3062
  146SAPE  H17S16023   4.610   2.437   4.611  0.4692 -0.3477 -0.9793
  146SAPE  C21816024   4.477   2.291   4.517  0.1862 -0.1855 -0.1612
  146SAPE  H18R16025   4.391   2.361   4.522 -0.0012 -0.4767  3.0403
  146SAPE  H18S16026   4.439   2.188   4.536  1.0421 -0.7581 -1.3769
  146SAPE  C21916027   4.542   2.309   4.374  0.5222  0.0899 -0.0193
  146SAPE  H19R16028   4.628   2.240   4.359  1.8025  1.5027  0.5639
  146SAPE  H19S16029   4.582   2.412   4.377 -0.4836  0.5868 -1.8559
  146SAPE  C22016030   4.444   2.305   4.250 -0.5138 -0.0638 -0.2157
  146SAPE  H20R16031   4.379   2.216   4.259 -1.8126  0.7790 -1.0183
  146SAPE  H20S16032   4.494   2.322   4.152 -0.8412  1.6829 -0.1220
  146SAPE  H20T16033   4.377   2.394   4.257 -0.2334  0.0943  0.6702
  146SAPE   C3316034   5.040   1.683   5.700  0.1407 -0.4612 -0.4350
  146SAPE   H3X16035   5.055   1.574   5.711  1.4762 -0.0819  2.6786
  146SAPE   H3Y16036   5.145   1.718   5.691 -0.0739  0.5357  0.7274
  146SAPE   C3416037   4.966   1.722   5.574  0.2753 -0.0477 -0.7907
  146SAPE   H4X16038   5.014   1.817   5.544  3.7631 -1.3223  0.2046
  146SAPE   H4Y16039   4.863   1.749   5.605 -0.1848 -0.9422 -1.5089
  146SAPE   C3516040   4.965   1.615   5.466  0.3382  0.9984  0.4314
  146SAPE   H5X16041   4.931   1.517   5.506 -3.6639  1.2808 -1.7738
  146SAPE   H5Y16042   5.071   1.597   5.438  0.3896  0.1494  1.1455
  146SAPE   C3616043   4.879   1.626   5.340  0.0416  0.5221 -0.0843
  146SAPE   H6X16044   4.782   1.647   5.390  0.7038  1.4144  0.8674
  146SAPE   H6Y16045   4.880   1.528   5.288 -0.3336  0.9309 -0.8849
  146SAPE   C3716046   4.917   1.743   5.253  1.2151  0.2831 -0.6622
  146SAPE   H7X16047   4.965   1.816   5.322 -0.2264  0.9343 -0.3154
  146SAPE   H7Y16048   4.831   1.794   5.207  1.0842  0.5870 -0.0945
  146SAPE   C3816049   5.016   1.707   5.148 -0.0353  0.2816  0.6048
  146SAPE   H8X16050   5.087   1.627   5.178 -1.2017 -0.8063  0.5575
  146SAPE   H8Y16051   5.069   1.801   5.125  1.2660 -0.4344  0.5944
  146SAPE   C3916052   4.950   1.657   5.019  0.6649 -0.7970  0.5463
  146SAPE   H9X16053   4.871   1.729   4.987  0.2496 -1.8998 -1.0384
  146SAPE   H9Y16054   4.905   1.560   5.047 -0.2487 -0.7316 -0.6143
  146SAPE  C31016055   5.051   1.633   4.907 -0.4690 -0.6896 -0.2913
  146SAPE  H10X16056   5.126   1.551   4.915 -0.4045 -0.8722 -2.2873
  146SAPE  H10Y16057   5.111   1.726   4.900  0.9962 -1.1948  3.3377
  146SAPE  C31116058   4.979   1.613   4.772  0.5157  0.4085  0.0973
  146SAPE  H11X16059   4.890   1.677   4.756  0.7282  0.3938 -1.3221
  146SAPE  H11Y16060   4.943   1.508   4.773  1.9900 -0.1216  0.2045
  146SAPE  C31216061   5.053   1.613   4.642 -0.8658  0.2365 -0.2153
  146SAPE  H12X16062   5.152   1.564   4.652 -0.7197  0.8271  1.4714
  146SAPE  H12Y16063   5.083   1.715   4.610 -0.1635  0.7416  1.8811
  146SAPE  C31316064   4.975   1.553   4.525  0.3278  0.1541  0.5235
  146SAPE  H13X16065   4.872   1.589   4.505 -0.2895 -2.0571 -0.7180
  146SAPE  H13Y16066   4.965   1.442   4.530  2.1346 -0.1014 -0.7059
  146SAPE  C31416067   5.049   1.573   4.391 -0.3648 -0.0121  0.7750
  146SAPE  H14X16068   5.066   1.681   4.372 -0.1405 -0.3327 -1.1167
  146SAPE  H14Y16069   4.986   1.542   4.305  1.0078 -2.9115  0.6796
  146SAPE  C31516070   5.189   1.499   4.385  0.3057 -0.0883 -0.4043
  146SAPE  H15X16071   5.160   1.392   4.385 -0.8586  0.1943 -1.8724
  146SAPE  H15Y16072   5.237   1.521   4.482 -0.7874  1.2408 -0.1310
  146SAPE  C31616073   5.264   1.536   4.261  0.0890  0.0325 -0.6098
  146SAPE  H16X16074   5.267   1.647   4.251  1.6863  0.1342  0.5237
  146SAPE  H16Y16075   5.209   1.503   4.170  1.1625  1.1815 -1.7237
  146SAPE  C31716076   5.403   1.477   4.262 -0.1857  0.8834  0.0505
  146SAPE  H17X16077   5.395   1.368   4.285  3.0590  0.2839 -0.9834
  146SAPE  H17Y16078   5.460   1.517   4.349  0.2515 -0.9946  0.6924
  146SAPE  C31816079   5.476   1.486   4.133 -0.1426  0.8369 -0.3156
  146SAPE  H18X16080   5.416   1.430   4.058 -0.6991 -0.1235  0.8227
  146SAPE  H18Y16081   5.575   1.435   4.141 -1.0227 -1.2426 -1.8703
  146SAPE  H18Z16082   5.493   1.587   4.089  2.1786  1.0863  0.9633
  147SAPE     N16083   3.869   5.402   6.934 -0.0300 -0.2234 -0.2692
  147SAPE   HN116084   3.806   5.399   7.017  1.0192 -0.9326  0.5257
  147SAPE   HN216085   3.926   5.316   6.919  0.5922 -0.3233  2.2915
  147SAPE   HN316086   3.938   5.477   6.953 -0.1538 -0.0065 -0.6581
  147SAPE   C1216087   3.780   5.433   6.809  0.0176  0.5601  0.0276
  147SAPE  H12A16088   3.698   5.495   6.851  0.3667  0.6187  0.6436
  147SAPE  H12B16089   3.743   5.332   6.780  1.2890  0.4601 -1.3891
  147SAPE   C1116090   3.869   5.498   6.697 -0.3127 -0.4389 -0.3935
  147SAPE  H11A16091   3.928   5.574   6.753  1.1297 -1.8628  0.1103
  147SAPE  H11B16092   3.802   5.547   6.624 -0.0934 -2.0493 -1.7450
  147SAPE     P16093   3.911   5.298   6.510  0.4431 -0.2340  0.1301
  147SAPE   O1316094   4.004   5.182   6.516  0.2452  0.2132  0.2700
  147SAPE   O1416095   3.767   5.269   6.520  0.2454  0.0810  0.2621
  147SAPE   O1216096   3.952   5.400   6.627 -0.1689 -0.0499  0.3700
  147SAPE   O1116097   3.942   5.372   6.378 -0.1380  0.3030 -0.4399
  147SAPE    C116098   4.060   5.350   6.304  0.3093  0.0801 -0.0777
  147SAPE    HA16099   4.144   5.389   6.366 -0.7809 -2.7495  3.5652
  147SAPE    HB16100   4.089   5.244   6.290  1.8902  0.4028  0.5951
  147SAPE    C216101   4.053   5.427   6.168 -0.9052  0.0703 -0.3907
  147SAPE    HS16102   4.028   5.532   6.196  0.8575  0.3800  0.1499
  147SAPE   O2116103   3.948   5.375   6.076  0.5793 -0.1143 -0.7775
  147SAPE   C2116104   3.824   5.429   6.095 -0.8106 -0.3222 -0.1419
  147SAPE   O2216105   3.799   5.531   6.152 -0.0142 -0.2252  0.1246
  147SAPE   C2216106   3.725   5.327   6.032  0.1495 -0.1371 -0.0107
  147SAPE   H2R16107   3.745   5.231   6.085 -2.7872 -1.1412 -0.5371
  147SAPE   H2S16108   3.626   5.362   6.067  0.5081  0.4866  0.3961
  147SAPE    C316109   4.194   5.429   6.094 -0.0631 -0.3736 -0.5786
  147SAPE    HX16110   4.210   5.329   6.048 -1.4009 -1.5981  1.4526
  147SAPE    HY16111   4.271   5.455   6.169 -1.4567  1.1336  0.3940
  147SAPE   O3116112   4.181   5.525   5.988 -0.0120 -0.4685  0.4650
  147SAPE   C3116113   4.296   5.564   5.928  0.2858 -0.0800 -0.4155
  147SAPE   O3216114   4.407   5.517   5.950 -0.0644  0.3021  0.5459
  147SAPE   C3216115   4.257   5.669   5.817 -0.5830 -0.0338 -0.0516
  147SAPE   H2X16116   4.171   5.628   5.760 -0.4201  0.8834 -0.9663
  147SAPE   H2Y16117   4.346   5.678   5.752  1.4811 -1.3010  2.3908
  147SAPE   C2316118   3.744   5.295   5.883  0.2768 -0.6166  0.2849
  147SAPE   H3R16119   3.675   5.210   5.867 -0.1020 -0.1901 -0.3778
  147SAPE   H3S16120   3.848   5.262   5.860  1.0892  1.0828  1.3074
  147SAPE   C2416121   3.724   5.423   5.804 -0.0607 -0.5792 -0.3722
  147SAPE   H4R16122   3.802   5.491   5.845 -2.4624  0.1029  3.4652
  147SAPE   H4S16123   3.632   5.477   5.832 -0.0890 -1.7040  1.9076
  147SAPE   C2516124   3.723   5.380   5.663 -0.0791  0.4939  0.5586
  147SAPE   H5R16125   3.659   5.298   5.630 -2.0729  1.5608  1.6130
  147SAPE   C2616126   3.815   5.426   5.575  0.4222  0.2886 -0.0112
  147SAPE   H6R16127   3.801   5.409   5.467  2.7863 -1.1938 -0.1527
  147SAPE   C2716128   3.916   5.535   5.587 -0.8584  0.5071 -0.2082
  147SAPE   H7R16129   3.955   5.530   5.691  1.2561 -3.9841 -1.0180
  147SAPE   H7S16130   3.871   5.635   5.565  1.1093  2.0600  2.2585
  147SAPE   C2816131   4.049   5.518   5.518 -0.3672 -0.4264  0.3501
  147SAPE   H8R16132   4.100   5.427   5.554 -0.5963 -0.1407  1.4599
  147SAPE   C2916133   4.113   5.603   5.435 -0.1869  0.3449 -1.0821
  147SAPE   H9R16134   4.206   5.575   5.383  1.2470  0.1108  1.4509
  147SAPE  C21016135   4.055   5.735   5.395  0.4810  0.1653 -0.2265
  147SAPE  H10R16136   4.042   5.808   5.478  0.7705 -0.8169  0.7046
  147SAPE  H10S16137   3.950   5.727   5.359  0.4971  1.0840 -0.4928
  147SAPE  C21116138   4.140   5.809   5.293  0.6823  0.4350  0.3642
  147SAPE  H11R16139   4.199   5.889   5.339 -0.7670  0.6062  2.0496
  147SAPE  C21216140   4.147   5.789   5.163 -0.1235 -0.0410 -0.0427
  147SAPE  H12R16141   4.232   5.841   5.117  1.4138 -1.7282  0.7475
  147SAPE  C21316142   4.075   5.690   5.073  0.0352 -0.2182  0.0843
  147SAPE  H13R16143   4.002   5.632   5.133 -0.3004 -0.6068 -0.6907
  147SAPE  H13S16144   4.151   5.624   5.026  0.3438  0.9564 -1.1425
  147SAPE  C21416145   4.002   5.782   4.981 -0.4360 -0.1688  0.6286
  147SAPE  H14R16146   3.919   5.842   5.022  1.1032  3.9299 -1.5941
  147SAPE  C21516147   4.017   5.793   4.844 -0.3795 -0.5591 -0.2442
  147SAPE  H15R16148   3.938   5.852   4.794  0.3944  1.1738  0.5032
  147SAPE  C21616149   4.109   5.712   4.747  0.6856 -0.6274  0.1347
  147SAPE  H16R16150   4.033   5.651   4.693  0.5598  0.9525 -1.5627
  147SAPE  H16S16151   4.177   5.645   4.803  0.1454  0.7226  2.5490
  147SAPE  C21716152   4.199   5.801   4.657 -0.1755 -0.1822  0.0044
  147SAPE  H17R16153   4.281   5.739   4.615  0.0419 -0.5482  0.9594
  147SAPE  H17S16154   4.257   5.881   4.708  1.1386 -2.2739  1.9613
  147SAPE  C21816155   4.131   5.876   4.531  1.1060 -0.3332 -0.9205
  147SAPE  H18R16156   4.194   5.964   4.508  3.0599 -1.6633 -0.9592
  147SAPE  H18S16157   4.028   5.907   4.558  0.9638 -1.6060  0.1134
  147SAPE  C21916158   4.118   5.791   4.406 -0.3706  0.1591  0.3440
  147SAPE  H19R16159   4.061   5.701   4.437  0.6500 -0.5544  0.2212
  147SAPE  H19S16160   4.221   5.760   4.379 -0.2662  0.0046  0.9013
  147SAPE  C22016161   4.045   5.853   4.288 -0.1271  0.3113 -0.0358
  147SAPE  H20R16162   4.023   5.777   4.210  0.4314  2.1505 -2.0826
  147SAPE  H20S16163   4.105   5.937   4.247 -2.2513  2.0772  0.2678
  147SAPE  H20T16164   3.955   5.902   4.332 -1.1637 -1.3713 -0.1656
  147SAPE   C3316165   4.213   5.797   5.892  0.5484  0.2761  0.0257
  147SAPE   H3X16166   4.257   5.806   5.993 -1.2539  1.0753  0.7811
  147SAPE   H3Y16167   4.104   5.781   5.906  0.3113  0.1987 -1.6875
  147SAPE   C3416168   4.245   5.924   5.819  0.6653 -0.2443 -0.4122
  147SAPE   H4X16169   4.351   5.921   5.786  0.8210 -0.0962  0.0796
  147SAPE   H4Y16170   4.224   6.010   5.886 -2.4369 -0.1433 -1.3441
  147SAPE   C3516171   4.158   5.947   5.697  0.1819  0.0148  0.1001
  147SAPE   H5X16172   4.051   5.954   5.727 -0.0838 -0.9136 -0.5867
  147SAPE   H5Y16173   4.169   5.864   5.624 -0.0836 -0.8528  1.0365
  147SAPE   C3616174   4.179   6.079   5.630 -0.0535 -0.1758  0.7110
  147SAPE   H6X16175   4.167   6.170   5.692  0.4767  1.3900 -1.3671
  147SAPE   H6Y16176   4.097   6.100   5.557 -0.1763  0.3994  1.0132
  147SAPE   C3716177   4.311   6.077   5.551 -0.0621 -0.5432 -0.0235
  147SAPE   H7X16178   4.324   5.985   5.491 -0.4785 -0.1531 -0.7259
  147SAPE   H7Y16179   4.396   6.093   5.621  0.8516 -3.1279 -0.4446
  147SAPE   C3816180   4.310   6.179   5.439 -0.1795  0.5870  0.0896
  147SAPE   H8X16181   4.284   6.283   5.470  1.0982  1.7613 -2.4476
  147SAPE   H8Y16182   4.219   6.141   5.388 -0.2311 -0.1443  0.7087
  147SAPE   C3916183   4.447   6.198   5.361 -0.0729  0.2242 -0.1205
  147SAPE   H9X16184   4.504   6.104   5.347  0.6511  0.6967 -0.4044
  147SAPE   H9Y16185   4.515   6.268   5.415  1.1982 -0.6933 -0.4958
  147SAPE  C31016186   4.434   6.239   5.215 -1.1052 -0.4082 -0.0346
  147SAPE  H10X16187   4.533   6.267   5.173 -1.1594  1.0395  0.7564
  147SAPE  H10Y16188   4.377   6.333   5.196  0.2336  0.2526 -1.0281
  147SAPE  C31116189   4.366   6.127   5.131 -0.2537 -0.4898 -0.5653
  147SAPE  H11X16190   4.266   6.119   5.179 -0.2484 -0.1122 -0.4835
  147SAPE  H11Y16191   4.419   6.031   5.145 -0.1214 -0.4938 -1.0959
  147SAPE  C31216192   4.355   6.174   4.989 -0.6751  0.0419  0.7863
  147SAPE  H12X16193   4.298   6.269   4.984  1.2594  1.2475  0.5480
  147SAPE  H12Y16194   4.290   6.092   4.952 -0.6586 -0.0039  0.8607
  147SAPE  C31316195   4.491   6.184   4.923  0.1771  0.2238  0.0443
  147SAPE  H13X16196   4.543   6.089   4.946 -0.7605  0.1668  2.1389
  147SAPE  H13Y16197   4.549   6.271   4.962  1.6798 -1.3531  1.4887
  147SAPE  C31416198   4.479   6.206   4.768 -0.1743  0.4496  0.1640
  147SAPE  H14X16199   4.431   6.306   4.763  0.6963  0.8837  0.4261
  147SAPE  H14Y16200   4.402   6.137   4.726 -0.8591  0.3210  1.5608
  147SAPE  C31516201   4.610   6.186   4.679  0.3326 -0.6917 -0.2754
  147SAPE  H15X16202   4.653   6.085   4.697  0.4164 -0.4896  0.7176
  147SAPE  H15Y16203   4.684   6.264   4.704 -0.3893  0.3553 -1.3076
  147SAPE  C31616204   4.584   6.197   4.529  0.3821  0.3540 -0.9277
  147SAPE  H16X16205   4.571   6.306   4.513 -0.1530  0.6543  1.2150
  147SAPE  H16Y16206   4.487   6.150   4.502 -0.4473  0.9718  0.8164
  147SAPE  C31716207   4.694   6.136   4.451 -0.2149  0.1514  0.2104
  147SAPE  H17X16208   4.698   6.027   4.472  1.3355 -0.0402 -0.9547
  147SAPE  H17Y16209   4.791   6.177   4.485  1.5101 -2.2762 -1.4597
  147SAPE  C31816210   4.682   6.162   4.299 -0.0941  0.3482 -0.1469
  147SAPE  H18X16211   4.581   6.129   4.266 -0.2529  0.7039 -0.0226
  147SAPE  H18Y16212   4.748   6.097   4.236 -0.5042  1.1320 -1.4166
  147SAPE  H18Z16213   4.703   6.265   4.264  1.0906  0.0816 -0.2805
  148SAPE     N16214   1.692   5.942   6.851 -0.6317  0.0065 -0.0570
  148SAPE   HN116215   1.650   5.924   6.757 -0.7861  0.7103 -0.1293
  148SAPE   HN216216   1.676   5.857   6.908  1.0877  0.0124  0.4903
  148SAPE   HN316217   1.651   6.028   6.893  0.0517  1.1053 -1.5201
  148SAPE   C1216218   1.841   5.946   6.843 -0.4508  0.3103 -0.4345
  148SAPE  H12A16219   1.876   5.854   6.790  0.5064 -0.4016  1.3516
  148SAPE  H12B16220   1.872   5.945   6.949 -2.1745  1.1926  0.1136
  148SAPE   C1116221   1.875   6.084   6.788  0.1058  0.0476  0.2391
  148SAPE  H11A16222   1.985   6.104   6.795  0.3158 -0.9809 -0.0239
  148SAPE  H11B16223   1.828   6.156   6.859  1.7662  1.2199  0.2116
  148SAPE     P16224   1.848   6.243   6.595  0.0851 -0.3754 -0.0501
  148SAPE   O1316225   1.773   6.264   6.466 -0.0138 -0.0699 -0.1429
  148SAPE   O1416226   1.831   6.342   6.709 -0.4328 -0.1483 -0.0493
  148SAPE   O1216227   1.820   6.098   6.655  0.3581  0.4482 -0.5151
  148SAPE   O1116228   2.000   6.217   6.557  0.2928  0.4014 -0.1938
  148SAPE    C116229   2.094   6.320   6.575 -0.4042 -0.1139  0.2536
  148SAPE    HA16230   2.092   6.355   6.680  1.9443 -2.0153  1.0236
  148SAPE    HB16231   2.192   6.268   6.567 -0.9506 -1.2112  0.4647
  148SAPE    C216232   2.075   6.444   6.481  0.3378  0.1331 -0.4510
  148SAPE    HS16233   1.975   6.488   6.498  0.8140  1.7951 -1.7095
  148SAPE   O2116234   2.090   6.392   6.347 -0.4359  0.0754 -0.3049
  148SAPE   C2116235   1.996   6.426   6.254 -0.6040  0.0351 -0.6342
  148SAPE   O2216236   1.909   6.512   6.274  0.3196 -0.2906  0.3728
  148SAPE   C2216237   2.008   6.344   6.118 -0.3755  0.2886 -0.2473
  148SAPE   H2R16238   2.109   6.360   6.075 -0.9241  0.6686 -1.4178
  148SAPE   H2S16239   1.996   6.236   6.139 -0.1187  0.4428  0.7588
  148SAPE    C316240   2.181   6.549   6.515  0.7115  0.0820  0.3810
  148SAPE    HX16241   2.284   6.509   6.520  1.2324  0.6776 -3.1061
  148SAPE    HY16242   2.156   6.588   6.616  1.8717  0.8867  0.3706
  148SAPE   O3116243   2.174   6.644   6.418 -0.4901 -0.0406  0.9966
  148SAPE   C3116244   2.082   6.738   6.415 -0.0158 -0.1130  0.0613
  148SAPE   O3216245   1.984   6.749   6.485  0.1643 -0.8983  0.5231
  148SAPE   C3216246   2.120   6.840   6.306  0.4259 -0.0396 -0.1462
  148SAPE   H2X16247   2.217   6.884   6.336  0.0568  2.0865 -1.8996
  148SAPE   H2Y16248   2.048   6.922   6.328 -0.1306 -1.0356  2.1098
  148SAPE   C2316249   1.905   6.402   6.017 -0.5386 -0.4575  0.1669
  148SAPE   H3R16250   1.900   6.512   6.035  2.3048  0.1217 -1.7606
  148SAPE   H3S16251   1.809   6.348   6.022 -0.9314  0.3213  1.6547
  148SAPE   C2416252   1.962   6.403   5.875  1.1107 -0.4744  0.0359
  148SAPE   H4R16253   2.059   6.453   5.896  0.5295  1.6162 -1.8779
  148SAPE   H4S16254   1.903   6.460   5.800  2.5974 -1.0722 -1.6663
  148SAPE   C2516255   1.980   6.276   5.809 -0.1629  0.4575  0.4585
  148SAPE   H5R16256   2.001   6.185   5.867  1.6359 -1.3097 -2.6987
  148SAPE   C2616257   1.999   6.254   5.678 -0.3820  0.2928  0.6432
  148SAPE   H6R16258   2.022   6.151   5.648  3.1311  0.6194  1.8277
  148SAPE   C2716259   1.994   6.357   5.568  0.3681  1.2824  0.6195
  148SAPE   H7R16260   2.038   6.454   5.600  2.4609  0.5536  0.0820
  148SAPE   H7S16261   1.889   6.384   5.542  0.1050 -0.2401 -0.0150
  148SAPE   C2816262   2.064   6.304   5.441  0.2169  0.1644 -0.8827
  148SAPE   H8R16263   2.143   6.229   5.459  0.5227  0.6411 -0.1696
  148SAPE   C2916264   2.034   6.349   5.317  0.4393 -0.4668  0.2660
  148SAPE   H9R16265   2.084   6.303   5.230 -0.0307 -1.3759  0.4610
  148SAPE  C21016266   1.934   6.454   5.270 -0.0484 -0.0800  0.2031
  148SAPE  H10R16267   1.988   6.547   5.243  1.0388 -1.4312 -2.7280
  148SAPE  H10S16268   1.888   6.502   5.359  0.9267  2.1150 -0.4047
  148SAPE  C21116269   1.829   6.398   5.181  0.0117  0.1828 -0.7740
  148SAPE  H11R16270   1.804   6.292   5.194  0.0868  0.3951  1.4832
  148SAPE  C21216271   1.776   6.464   5.077  0.4270 -0.2484  0.4170
  148SAPE  H12R16272   1.703   6.416   5.010 -0.2618  0.0606  0.9480
  148SAPE  C21316273   1.804   6.613   5.045 -0.4043  1.1955 -0.1004
  148SAPE  H13R16274   1.913   6.629   5.034 -0.0818 -0.7497 -0.0276
  148SAPE  H13S16275   1.763   6.667   5.133 -1.3084  0.7912 -0.2516
  148SAPE  C21416276   1.751   6.648   4.912 -0.2142  0.2198  0.8838
  148SAPE  H14R16277   1.641   6.643   4.915 -0.3949 -3.6085 -2.6673
  148SAPE  C21516278   1.802   6.733   4.814  0.2850 -0.3032 -0.1073
  148SAPE  H15R16279   1.743   6.754   4.724  1.2760  0.2783 -0.6341
  148SAPE  C21616280   1.928   6.803   4.817 -0.3807 -0.3101 -0.1471
  148SAPE  H16R16281   1.999   6.763   4.893  0.5607 -0.3089 -1.0051
  148SAPE  H16S16282   1.916   6.911   4.840  4.1853  0.0335  1.8116
  148SAPE  C21716283   2.005   6.777   4.684  1.0088 -0.5317 -0.4493
  148SAPE  H17R16284   2.089   6.849   4.694  1.1011 -0.8665  1.5808
  148SAPE  H17S16285   1.941   6.808   4.599 -0.2074 -0.7953  0.3420
  148SAPE  C21816286   2.062   6.641   4.668 -0.6975  0.0820  0.4969
  148SAPE  H18R16287   1.996   6.570   4.722  0.0304  0.6990  2.2719
  148SAPE  H18S16288   2.158   6.626   4.723 -0.1153  0.9999 -0.2477
  148SAPE  C21916289   2.076   6.585   4.517 -0.3503 -0.0868  0.2207
  148SAPE  H19R16290   1.976   6.602   4.472 -0.4793 -1.6610 -0.1480
  148SAPE  H19S16291   2.091   6.476   4.532 -0.1479  0.0103  0.7661
  148SAPE  C22016292   2.176   6.648   4.430  0.0354 -0.2857  0.7521
  148SAPE  H20R16293   2.137   6.748   4.401  0.9758 -0.5102 -1.4960
  148SAPE  H20S16294   2.187   6.585   4.340 -0.9502  1.3370 -0.5486
  148SAPE  H20T16295   2.275   6.652   4.481  0.3390  3.3753  0.1556
  148SAPE   C3316296   2.111   6.806   6.152 -0.2746 -0.5219  0.7859
  148SAPE   H3X16297   2.097   6.910   6.115 -0.5104 -1.3493 -1.6352
  148SAPE   H3Y16298   2.014   6.754   6.134 -0.1368 -0.5662  0.1314
  148SAPE   C3416299   2.222   6.726   6.077 -0.3612 -0.0718 -0.4884
  148SAPE   H4X16300   2.212   6.621   6.114  0.7993 -0.4556 -1.2277
  148SAPE   H4Y16301   2.321   6.763   6.108  0.1929 -2.7239  1.2943
  148SAPE   C3516302   2.196   6.734   5.931 -0.0648 -0.3274  0.6995
  148SAPE   H5X16303   2.165   6.837   5.906 -0.5636 -0.9803 -1.6850
  148SAPE   H5Y16304   2.103   6.677   5.910  0.6400 -0.6436 -2.0924
  148SAPE   C3616305   2.311   6.701   5.836 -0.0079 -0.1135 -0.4589
  148SAPE   H6X16306   2.362   6.610   5.874  0.9815 -0.4746 -2.5346
  148SAPE   H6Y16307   2.377   6.790   5.845 -0.0294  0.0162 -1.5021
  148SAPE   C3716308   2.284   6.672   5.690  0.1647 -0.0542  0.2385
  148SAPE   H7X16309   2.253   6.759   5.628 -0.1717  0.8189  1.5776
  148SAPE   H7Y16310   2.211   6.589   5.683  1.0259 -0.8119  0.1095
  148SAPE   C3816311   2.411   6.611   5.627  0.1675  0.1869 -0.4192
  148SAPE   H8X16312   2.452   6.542   5.704  1.3333  0.7004 -0.5511
  148SAPE   H8Y16313   2.487   6.692   5.621  0.3997  0.3683  2.9343
  148SAPE   C3916314   2.385   6.547   5.488 -0.6694  0.7283  0.0351
  148SAPE   H9X16315   2.308   6.469   5.504 -0.0491 -0.1974 -1.2844
  148SAPE   H9Y16316   2.478   6.499   5.449 -0.7356  0.1990  0.5180
  148SAPE  C31016317   2.323   6.644   5.383  0.0219 -0.0406 -0.5134
  148SAPE  H10X16318   2.386   6.734   5.368  1.1053 -0.5681  0.7271
  148SAPE  H10Y16319   2.229   6.670   5.435  1.1203  1.0509  0.9900
  148SAPE  C31116320   2.300   6.576   5.247  0.0412  0.2271 -0.0064
  148SAPE  H11X16321   2.235   6.631   5.175 -1.0849 -0.5135  0.4118
  148SAPE  H11Y16322   2.255   6.475   5.257 -2.3121  1.2056 -0.0832
  148SAPE  C31216323   2.433   6.570   5.175  0.1600  0.2731  0.3925
  148SAPE  H12X16324   2.499   6.512   5.241  0.5402 -0.0161 -0.2312
  148SAPE  H12Y16325   2.493   6.663   5.166  0.8998 -0.2040  0.3924
  148SAPE  C31316326   2.406   6.502   5.042 -0.0169  0.6404  0.4446
  148SAPE  H13X16327   2.364   6.573   4.967 -0.5722 -0.9441 -0.8091
  148SAPE  H13Y16328   2.341   6.413   5.056  0.2608 -0.3253 -3.3732
  148SAPE  C31416329   2.530   6.448   4.970 -0.1281 -0.2328 -0.6421
  148SAPE  H14X16330   2.579   6.379   5.042 -2.5208 -0.5726  0.7894
  148SAPE  H14Y16331   2.588   6.540   4.947 -0.5344  0.6537  1.6014
  148SAPE  C31516332   2.506   6.381   4.835  0.0773 -0.0694 -0.6471
  148SAPE  H15X16333   2.442   6.454   4.780  1.5960  1.5156 -0.4320
  148SAPE  H15Y16334   2.445   6.290   4.852 -2.1324  1.4178 -0.1864
  148SAPE  C31616335   2.638   6.368   4.757  0.0657 -0.9259 -0.7980
  148SAPE  H16X16336   2.709   6.334   4.835 -1.1124 -0.8344  0.3298
  148SAPE  H16Y16337   2.658   6.473   4.728 -1.0806 -0.7794 -1.0931
  148SAPE  C31716338   2.626   6.279   4.636 -0.1960  0.4051  0.2444
  148SAPE  H17X16339   2.711   6.309   4.571 -0.0340  0.6444  0.5611
  148SAPE  H17Y16340   2.526   6.302   4.592 -0.6722 -0.4287  0.8473
  148SAPE  C31816341   2.637   6.136   4.674  0.4736 -0.3650  0.6822
  148SAPE  H18X16342   2.541   6.103   4.719  0.6503  1.2461  2.3766
  148SAPE  H18Y16343   2.720   6.128   4.746  1.1745  0.5765  0.0031
  148SAPE  H18Z16344   2.658   6.069   4.588 -0.3395  2.1436 -1.6501
  149SAPE     N16345   2.609   3.121   6.645  0.3649  0.6293  0.7847
  149SAPE   HN116346   2.616   3.215   6.601  0.1934 -1.2395 -3.7886
  149SAPE   HN216347   2.699   3.110   6.697 -0.7430 -1.2751  2.4533
  149SAPE   HN316348   2.618   3.057   6.564  1.6980  3.8502 -1.8283
  149SAPE   C1216349   2.495   3.075   6.717  0.6083 -0.2815  0.1459
  149SAPE  H12A16350   2.406   3.079   6.651  0.8948  2.3287 -0.1602
  149SAPE  H12B16351   2.483   3.145   6.802 -2.7985  1.8155 -1.8440
  149SAPE   C1116352   2.512   2.935   6.773  0.8026  0.0981 -0.5575
  149SAPE  H11A16353   2.414   2.903   6.814  0.4053  1.9859  0.0426
  149SAPE  H11B16354   2.582   2.949   6.859  0.7602  0.2097 -0.5420
  149SAPE     P16355   2.533   2.707   6.634  0.4521 -0.0686 -0.1540
  149SAPE   O1316356   2.642   2.655   6.552 -0.2376 -0.7836 -0.2632
  149SAPE   O1416357   2.506   2.626   6.762  0.3986  0.5537  0.0725
  149SAPE   O1216358   2.567   2.851   6.676 -0.3105 -0.1973 -0.3110
  149SAPE   O1116359   2.405   2.738   6.542  0.1131  0.4584  0.4202
  149SAPE    C116360   2.274   2.761   6.598 -0.1846  0.6633  0.3675
  149SAPE    HA16361   2.244   2.664   6.643  2.8918  0.2998  1.9240
  149SAPE    HB16362   2.273   2.850   6.665 -0.7701  0.0719  1.1597
  149SAPE    C216363   2.178   2.801   6.485 -0.7275  0.4730  0.2811
  149SAPE    HS16364   2.074   2.813   6.523 -0.6681  2.5759 -0.1189
  149SAPE   O2116365   2.180   2.689   6.390 -0.2114 -0.3952  0.8887
  149SAPE   C2116366   2.065   2.669   6.319  0.1392 -0.9738  0.4584
  149SAPE   O2216367   1.963   2.735   6.329  0.0310 -0.1370 -0.3414
  149SAPE   C2216368   2.073   2.542   6.235 -0.6912  0.8964  0.0675
  149SAPE   H2R16369   2.162   2.484   6.264 -1.7304 -0.4425  0.6967
  149SAPE   H2S16370   1.975   2.492   6.254 -1.0129  1.1223 -0.9219
  149SAPE    C316371   2.216   2.938   6.420 -0.0967  0.1930  1.0831
  149SAPE    HX16372   2.318   2.928   6.376 -0.8167 -0.5958 -0.4939
  149SAPE    HY16373   2.219   3.017   6.498  1.3014 -1.0106  2.3044
  149SAPE   O3116374   2.125   2.976   6.309  0.1020 -0.0034 -0.3470
  149SAPE   C3116375   2.020   3.039   6.355 -0.1523  0.6440 -0.7532
  149SAPE   O3216376   1.989   3.059   6.474  0.5195  0.5296 -0.6588
  149SAPE   C3216377   1.933   3.090   6.240  0.4086  0.5989  0.4233
  149SAPE   H2X16378   1.948   3.200   6.228 -0.7231  0.8174  0.9492
  149SAPE   H2Y16379   1.829   3.077   6.277  0.0263  1.5003 -0.2974
  149SAPE   C2316380   2.085   2.569   6.084 -0.9680  0.4383 -0.4481
  149SAPE   H3R16381   2.120   2.473   6.041 -0.0157  0.6075 -0.0953
  149SAPE   H3S16382   2.169   2.639   6.061  0.1524 -0.1290  1.6241
  149SAPE   C2416383   1.955   2.618   6.017  0.0615 -0.4803 -0.8435
  149SAPE   H4R16384   1.994   2.646   5.917 -2.1257 -0.5786 -1.7833
  149SAPE   H4S16385   1.935   2.716   6.066  0.2870 -1.6003  1.6256
  149SAPE   C2516386   1.850   2.508   6.013 -0.4636  0.0306 -0.2072
  149SAPE   H5R16387   1.788   2.498   6.103 -2.1679 -0.4103 -1.3735
  149SAPE   C2616388   1.835   2.410   5.924 -0.0055 -0.3084 -0.6746
  149SAPE   H6R16389   1.757   2.335   5.946  0.3540  0.1575  2.8702
  149SAPE   C2716390   1.898   2.401   5.789 -0.1190  0.0959 -0.0327
  149SAPE   H7R16391   1.940   2.503   5.773  0.4168 -0.2179 -0.6457
  149SAPE   H7S16392   1.823   2.386   5.709  1.0343 -0.8348 -0.9737
  149SAPE   C2816393   2.009   2.294   5.780 -0.4406  0.4748  0.0358
  149SAPE   H8R16394   2.065   2.264   5.870 -1.2696  0.5158  0.5747
  149SAPE   C2916395   2.057   2.252   5.663  0.1496 -0.0863  0.1993
  149SAPE   H9R16396   2.141   2.180   5.663 -0.2290 -0.5446  1.0372
  149SAPE  C21016397   2.020   2.288   5.522  0.4475 -0.8411 -0.6506
  149SAPE  H10R16398   1.938   2.361   5.507  1.1431 -0.2046 -1.4840
  149SAPE  H10S16399   1.979   2.194   5.479 -0.0364 -0.6817 -0.5442
  149SAPE  C21116400   2.138   2.328   5.444 -0.4745 -0.0454  0.2408
  149SAPE  H11R16401   2.231   2.336   5.502 -1.8279 -0.1302  2.5243
  149SAPE  C21216402   2.154   2.322   5.312 -0.2013  0.0656  0.7213
  149SAPE  H12R16403   2.246   2.371   5.278 -1.0310 -0.6624 -3.0096
  149SAPE  C21316404   2.042   2.301   5.211 -0.1987 -0.4202  0.9642
  149SAPE  H13R16405   1.952   2.280   5.272  0.9189  1.2211  3.3460
  149SAPE  H13S16406   2.068   2.208   5.156  0.8311  0.8641 -0.8261
  149SAPE  C21416407   2.010   2.407   5.109  0.0656  0.3190  0.6721
  149SAPE  H14R16408   2.070   2.498   5.125  1.0130 -0.4251  1.4810
  149SAPE  C21516409   1.924   2.384   5.007  0.1814  0.0437  0.7302
  149SAPE  H15R16410   1.903   2.473   4.946  2.3894  0.1145 -0.0177
  149SAPE  C21616411   1.848   2.259   4.975  0.3160  0.4921  0.3091
  149SAPE  H16R16412   1.784   2.219   5.057  0.4091 -1.8381 -0.7007
  149SAPE  H16S16413   1.907   2.175   4.933 -1.6324 -0.3392 -0.9320
  149SAPE  C21716414   1.753   2.295   4.867  0.0546  0.5760  0.0807
  149SAPE  H17R16415   1.685   2.379   4.892  0.8644  1.2261  0.1415
  149SAPE  H17S16416   1.685   2.209   4.846  0.2103  0.3569  0.4544
  149SAPE  C21816417   1.812   2.335   4.730 -0.7592 -0.7230  0.0935
  149SAPE  H18R16418   1.831   2.247   4.666 -1.0409 -0.5231 -0.2671
  149SAPE  H18S16419   1.915   2.374   4.746  0.0294 -1.6874 -2.2384
  149SAPE  C21916420   1.732   2.440   4.643  0.2118 -0.4667 -0.2182
  149SAPE  H19R16421   1.778   2.484   4.551 -0.7079 -1.9450 -1.4325
  149SAPE  H19S16422   1.728   2.529   4.710 -2.0305 -0.1135 -0.7532
  149SAPE  C22016423   1.599   2.385   4.603  0.5686  0.7206 -0.7767
  149SAPE  H20R16424   1.520   2.463   4.594  2.7011  2.8198 -2.4438
  149SAPE  H20S16425   1.554   2.327   4.686  1.0226  1.8040  0.2399
  149SAPE  H20T16426   1.610   2.329   4.507 -1.6374  1.5884 -1.6233
  149SAPE   C3316427   1.957   3.013   6.106  0.3098  0.0112  0.2043
  149SAPE   H3X16428   1.929   2.907   6.120  0.0051 -0.5457 -3.6458
  149SAPE   H3Y16429   2.057   3.021   6.058 -0.0937 -1.1194 -0.8700
  149SAPE   C3416430   1.863   3.063   5.995 -0.1119  0.5774 -0.0908
  149SAPE   H4X16431   1.876   3.171   5.971 -0.1698  0.7857  0.7919
  149SAPE   H4Y16432   1.758   3.061   6.031  0.3520 -0.1136  1.2737
  149SAPE   C3516433   1.861   2.980   5.868 -0.5939 -0.3295 -0.0178
  149SAPE   H5X16434   1.840   2.872   5.882  0.8896 -0.5445  0.7341
  149SAPE   H5Y16435   1.966   2.981   5.831 -0.6032 -0.8051 -0.0603
  149SAPE   C3616436   1.764   3.045   5.770 -0.2484 -0.2484 -0.5586
  149SAPE   H6X16437   1.798   3.144   5.732 -0.4804  0.0221 -0.0582
  149SAPE   H6Y16438   1.661   3.058   5.809 -0.8659 -0.3584 -2.0869
  149SAPE   C3716439   1.751   2.965   5.639 -0.3190  0.6494  0.2536
  149SAPE   H7X16440   1.667   2.999   5.576 -0.9469 -0.2809  0.5620
  149SAPE   H7Y16441   1.731   2.858   5.663  5.0165 -1.1613 -1.9003
  149SAPE   C3816442   1.867   2.988   5.544 -0.0363  0.5390  0.3458
  149SAPE   H8X16443   1.963   2.956   5.590  1.1974  2.0518 -1.0428
  149SAPE   H8Y16444   1.878   3.097   5.524 -0.0893  0.7930  1.5879
  149SAPE   C3916445   1.843   2.911   5.411  0.8535 -0.3714  0.0113
  149SAPE   H9X16446   1.741   2.934   5.375 -0.0306 -1.5987  1.5794
  149SAPE   H9Y16447   1.850   2.802   5.432  0.9281 -0.2649  0.5581
  149SAPE  C31016448   1.943   2.951   5.306 -0.1016  0.0363  0.8250
  149SAPE  H10X16449   2.037   2.964   5.365  0.1104  3.3273 -0.0270
  149SAPE  H10Y16450   1.937   3.051   5.256 -0.6624 -0.8013 -0.8467
  149SAPE  C31116451   1.971   2.838   5.207  0.2688  0.2505 -0.1768
  149SAPE  H11X16452   1.876   2.829   5.150 -0.9901  1.0537  1.6890
  149SAPE  H11Y16453   1.989   2.743   5.261  1.9830  2.3387  3.2597
  149SAPE  C31216454   2.068   2.866   5.089 -0.1722 -0.0431 -0.0864
  149SAPE  H12X16455   2.169   2.839   5.125 -0.4769  0.1982  0.9614
  149SAPE  H12Y16456   2.072   2.975   5.069 -3.1972  0.1097 -0.3791
  149SAPE  C31316457   2.026   2.783   4.963  0.1910 -0.3394  0.1935
  149SAPE  H13X16458   1.994   2.680   4.990 -0.6733  0.3637  1.9916
  149SAPE  H13Y16459   2.115   2.776   4.897  0.2699  0.0006  0.2589
  149SAPE  C31416460   1.926   2.859   4.871  0.0879  0.2644  0.3760
  149SAPE  H14X16461   1.981   2.956   4.865  0.2252  0.0967 -2.0759
  149SAPE  H14Y16462   1.828   2.875   4.920 -0.1257 -0.3934  0.1742
  149SAPE  C31516463   1.914   2.791   4.734  0.3120 -0.6908 -0.0450
  149SAPE  H15X16464   1.876   2.687   4.738  0.0848 -0.6298 -0.5976
  149SAPE  H15Y16465   2.017   2.786   4.694  0.7198  1.4900  0.5689
  149SAPE  C31616466   1.825   2.874   4.639 -0.2899 -0.3405  0.0776
  149SAPE  H16X16467   1.876   2.970   4.619 -1.9966  0.6065  0.0746
  149SAPE  H16Y16468   1.735   2.897   4.700 -1.1212 -1.4128 -0.6805
  149SAPE  C31716469   1.787   2.814   4.498  0.7341 -0.0488 -0.2598
  149SAPE  H17X16470   1.719   2.885   4.447 -1.9070 -1.2631  1.3772
  149SAPE  H17Y16471   1.738   2.716   4.517  0.0197  0.4714  0.7037
  149SAPE  C31816472   1.905   2.788   4.397  0.8225  0.5546 -0.3076
  149SAPE  H18X16473   1.860   2.724   4.318 -1.4973  0.2983  1.1227
  149SAPE  H18Y16474   1.974   2.724   4.457 -0.3222 -3.0207 -2.4633
  149SAPE  H18Z16475   1.955   2.885   4.377 -0.7933  1.6837  0.8646
  150SAPE     N16476   4.982   3.440   6.667  0.0483 -0.2900  0.0758
  150SAPE   HN116477   4.993   3.536   6.705  0.9377 -0.9399  1.5522
  150SAPE   HN216478   4.998   3.447   6.564  1.4729  1.7041  0.3575
  150SAPE   HN316479   4.887   3.402   6.681  0.2303 -0.5531  0.6287
  150SAPE   C1216480   5.082   3.346   6.736  0.3808  0.4222 -0.4999
  150SAPE  H12A16481   5.053   3.324   6.841  0.5810  0.3418 -0.4613
  150SAPE  H12B16482   5.183   3.390   6.720  1.1952 -0.5460  1.5723
  150SAPE   C1116483   5.084   3.218   6.650 -0.1889 -0.2848 -0.3968
  150SAPE  H11A16484   5.145   3.138   6.699 -0.3633 -0.4060 -0.3765
  150SAPE  H11B16485   5.126   3.253   6.554  1.1087 -1.0376 -0.1314
  150SAPE     P16486   4.929   3.041   6.525  0.1814 -0.4573 -0.0467
  150SAPE   O1316487   4.928   2.918   6.610 -0.6363 -0.4562  0.4470
  150SAPE   O1416488   4.807   3.077   6.451  0.1289 -0.3332  0.2031
  150SAPE   O1216489   4.949   3.164   6.635 -0.3350 -0.3397  0.3039
  150SAPE   O1116490   5.060   3.055   6.431  0.4890  0.3875  0.3810
  150SAPE    C116491   5.042   3.098   6.296 -0.6962  0.7369 -0.0340
  150SAPE    HA16492   4.979   3.022   6.247  0.4569 -0.3789  0.1596
  150SAPE    HB16493   4.979   3.189   6.295 -1.7874  0.0653  1.9909
  150SAPE    C216494   5.184   3.116   6.224 -0.1098  0.6588 -0.5480
  150SAPE    HS16495   5.214   3.009   6.230 -1.4038  0.3380  1.6586
  150SAPE   O2116496   5.274   3.199   6.306  0.1165 -0.2756  0.5638
  150SAPE   C2116497   5.396   3.165   6.295  0.2823 -0.2522 -0.8252
  150SAPE   O2216498   5.436   3.055   6.262 -0.2563 -0.3994 -0.4095
  150SAPE   C2216499   5.490   3.280   6.329 -0.2083  0.0279 -0.0710
  150SAPE   H2R16500   5.438   3.349   6.398 -0.2687  0.7870 -0.8635
  150SAPE   H2S16501   5.571   3.242   6.395 -0.4602 -2.1297 -0.9080
  150SAPE    C316502   5.176   3.166   6.080  0.7626  0.8786  0.1482
  150SAPE    HX16503   5.278   3.165   6.036  0.7510  0.2372  0.1218
  150SAPE    HY16504   5.154   3.274   6.094  1.6673  0.9018  1.6075
  150SAPE   O3116505   5.085   3.085   6.004 -0.1640  0.4825  0.3995
  150SAPE   C3116506   5.001   3.150   5.929  0.0357  0.2755 -0.0607
  150SAPE   O3216507   5.009   3.271   5.902  0.8256  0.4647  0.5438
  150SAPE   C3216508   4.884   3.054   5.893 -0.3013 -0.1703  0.3365
  150SAPE   H2X16509   4.824   3.044   5.986 -2.1046  1.1403 -0.6217
  150SAPE   H2Y16510   4.922   2.950   5.880 -3.0720 -1.3788  1.1149
  150SAPE   C2316511   5.547   3.354   6.207  0.7573  0.1403 -0.2763
  150SAPE   H3R16512   5.523   3.289   6.120 -0.1470 -0.9036  0.7324
  150SAPE   H3S16513   5.658   3.358   6.215  0.6944  2.1441  0.0457
  150SAPE   C2416514   5.493   3.493   6.180  0.4633 -0.8629 -0.8102
  150SAPE   H4R16515   5.552   3.539   6.097 -0.8250 -0.3418 -1.4610
  150SAPE   H4S16516   5.513   3.549   6.274  0.3367 -0.8451 -0.7943
  150SAPE   C2516517   5.347   3.491   6.139  1.0099 -0.5623  0.1791
  150SAPE   H5R16518   5.271   3.491   6.220  1.6354  1.2714  0.8164
  150SAPE   C2616519   5.293   3.528   6.026 -0.3232 -0.5672 -0.4524
  150SAPE   H6R16520   5.183   3.526   6.024 -0.3690 -0.9285  1.2553
  150SAPE   C2716521   5.351   3.579   5.900  0.0778 -1.2146  0.5963
  150SAPE   H7R16522   5.367   3.495   5.828  0.3673  0.9186 -1.9777
  150SAPE   H7S16523   5.451   3.623   5.920  0.0201  0.0757 -1.5983
  150SAPE   C2816524   5.263   3.690   5.837 -0.8787  0.8696  0.9505
  150SAPE   H8R16525   5.205   3.746   5.911  0.4071 -0.0147  2.6992
  150SAPE   C2916526   5.246   3.706   5.702 -0.0413  0.1874  0.0506
  150SAPE   H9R16527   5.165   3.773   5.670  0.9758  0.9187 -1.0792
  150SAPE  C21016528   5.306   3.632   5.584  0.2628 -0.5707  0.4084
  150SAPE  H10R16529   5.316   3.523   5.602  0.5397 -0.6434 -0.1864
  150SAPE  H10S16530   5.398   3.689   5.562 -0.3634  0.4907  0.4806
  150SAPE  C21116531   5.221   3.639   5.459 -0.4145 -0.7978 -0.4757
  150SAPE  H11R16532   5.131   3.703   5.464  0.6682  0.6868  1.8221
  150SAPE  C21216533   5.252   3.573   5.343  0.6421 -0.2468  0.2901
  150SAPE  H12R16534   5.187   3.596   5.257  0.1601  2.9096  1.3603
  150SAPE  C21316535   5.362   3.474   5.314 -0.4121  0.2968  0.3246
  150SAPE  H13R16536   5.326   3.369   5.313  1.8185 -0.5177  0.0886
  150SAPE  H13S16537   5.417   3.467   5.410 -1.3362 -0.6122  0.8024
  150SAPE  C21416538   5.458   3.507   5.200 -0.1299  0.3902 -0.5005
  150SAPE  H14R16539   5.564   3.514   5.229 -0.2063 -3.2500  1.1741
  150SAPE  C21516540   5.435   3.517   5.065  0.5750  0.7411  0.2525
  150SAPE  H15R16541   5.517   3.549   4.998  0.3520  0.6583 -0.0608
  150SAPE  C21616542   5.312   3.491   4.992 -0.1003 -0.0139  0.2653
  150SAPE  H16R16543   5.305   3.557   4.903 -0.5608  1.9497  1.6747
  150SAPE  H16S16544   5.231   3.509   5.066  0.9642  1.1572  1.1895
  150SAPE  C21716545   5.309   3.349   4.934 -0.5361  0.0863 -0.6011
  150SAPE  H17R16546   5.217   3.327   4.875  0.5609 -0.1725 -2.2724
  150SAPE  H17S16547   5.312   3.281   5.021 -3.5469 -0.8008 -1.0524
  150SAPE  C21816548   5.421   3.320   4.836 -0.0160  0.5059  0.3238
  150SAPE  H18R16549   5.431   3.211   4.821  0.4083  0.8375 -2.1982
  150SAPE  H18S16550   5.515   3.343   4.892 -0.1260 -0.0887  0.7601
  150SAPE  C21916551   5.416   3.390   4.704  0.7481  0.1636 -0.4758
  150SAPE  H19R16552   5.430   3.499   4.720  1.3279  0.0702 -0.2959
  150SAPE  H19S16553   5.312   3.370   4.672  0.4520 -1.4326  1.2795
  150SAPE  C22016554   5.527   3.332   4.611 -0.4423  0.5611  0.5269
  150SAPE  H20R16555   5.524   3.221   4.607 -0.2277  0.5826 -0.8453
  150SAPE  H20S16556   5.624   3.373   4.644 -0.4307  3.0323 -2.1281
  150SAPE  H20T16557   5.518   3.390   4.516  0.0631 -1.0597 -0.5640
  150SAPE   C3316558   4.796   3.086   5.770 -0.2012 -0.3623 -0.0143
  150SAPE   H3X16559   4.848   3.145   5.692 -1.9656  0.5765 -0.5279
  150SAPE   H3Y16560   4.719   3.156   5.808  0.3136  0.8196 -1.0879
  150SAPE   C3416561   4.723   2.963   5.729  0.1373  0.0692  0.7409
  150SAPE   H4X16562   4.670   2.925   5.818 -0.1606 -0.7296  0.2349
  150SAPE   H4Y16563   4.797   2.882   5.713 -1.6750 -1.3261 -1.1096
  150SAPE   C3516564   4.644   2.962   5.594 -0.3672  0.1516 -0.5428
  150SAPE   H5X16565   4.571   3.046   5.591 -1.9486 -1.1646 -0.3947
  150SAPE   H5Y16566   4.591   2.864   5.601 -2.2217  1.2093  3.9225
  150SAPE   C3616567   4.729   2.983   5.465  0.5802  0.1995 -0.4420
  150SAPE   H6X16568   4.809   2.907   5.476 -1.2057 -1.5203  1.6069
  150SAPE   H6Y16569   4.758   3.090   5.466 -0.2737  0.4411  0.7426
  150SAPE   C3716570   4.652   2.963   5.335 -0.3967 -0.2844  0.1544
  150SAPE   H7X16571   4.601   3.061   5.326  1.2155  0.6973  1.2302
  150SAPE   H7Y16572   4.589   2.874   5.353 -1.3534  0.3514  0.0363
  150SAPE   C3816573   4.740   2.923   5.214 -0.1494  0.0851 -0.0621
  150SAPE   H8X16574   4.838   2.974   5.220 -0.5843  0.8079  1.3065
  150SAPE   H8Y16575   4.694   2.970   5.124 -0.0308 -1.0718 -0.7415
  150SAPE   C3916576   4.761   2.773   5.200 -0.4313 -0.4179  0.4287
  150SAPE   H9X16577   4.668   2.722   5.233 -1.8452 -0.8784 -3.7609
  150SAPE   H9Y16578   4.855   2.744   5.252  0.4560 -0.3920 -1.0905
  150SAPE  C31016579   4.781   2.746   5.055 -0.0255 -0.4183 -0.1256
  150SAPE  H10X16580   4.872   2.800   5.022  0.4446 -2.0364 -1.6771
  150SAPE  H10Y16581   4.698   2.775   4.988 -1.1134 -1.2045  0.8419
  150SAPE  C31116582   4.814   2.597   5.031 -1.0560  0.5284 -0.0709
  150SAPE  H11X16583   4.737   2.517   5.039 -0.6575 -0.0947 -2.0221
  150SAPE  H11Y16584   4.887   2.566   5.109  0.5432  0.9251 -1.3796
  150SAPE  C31216585   4.894   2.582   4.896 -0.3676 -1.3129  0.2830
  150SAPE  H12X16586   4.994   2.628   4.912  0.0184 -1.2340 -2.0647
  150SAPE  H12Y16587   4.840   2.638   4.817 -0.6604 -1.6142  0.2670
  150SAPE  C31316588   4.930   2.443   4.851  0.2385 -0.5921  0.2171
  150SAPE  H13X16589   4.838   2.383   4.860 -0.1966 -0.4180 -2.2950
  150SAPE  H13Y16590   5.010   2.402   4.917  0.0362 -1.6316 -0.1732
  150SAPE  C31416591   4.967   2.431   4.701 -0.7276 -0.3865 -0.3930
  150SAPE  H14X16592   4.886   2.480   4.644 -3.2139 -2.0706  1.4630
  150SAPE  H14Y16593   4.984   2.328   4.663  0.6872 -0.0259 -0.8251
  150SAPE  C31516594   5.102   2.504   4.671 -0.0010  0.1504  0.2014
  150SAPE  H15X16595   5.181   2.460   4.735  0.1258  1.2947  0.8620
  150SAPE  H15Y16596   5.093   2.610   4.703  0.1826 -0.1057  1.1143
  150SAPE  C31616597   5.138   2.494   4.527 -0.5879  0.1914  0.4482
  150SAPE  H16X16598   5.057   2.528   4.459  0.2319  1.3438 -0.0032
  150SAPE  H16Y16599   5.157   2.387   4.508  2.2875  0.5274  0.9583
  150SAPE  C31716600   5.259   2.577   4.487 -0.0701  0.9422 -0.0122
  150SAPE  H17X16601   5.350   2.536   4.534 -0.4792 -0.0589 -0.0779
  150SAPE  H17Y16602   5.251   2.680   4.530  0.7361  1.5481 -1.2520
  150SAPE  C31816603   5.287   2.583   4.336  0.2540 -0.1990  0.3979
  150SAPE  H18X16604   5.392   2.618   4.336  0.4497 -0.7655  0.9419
  150SAPE  H18Y16605   5.217   2.648   4.280  0.7507 -0.6808 -0.8114
  150SAPE  H18Z16606   5.282   2.476   4.306  1.3445 -0.1372 -0.0466
  151SAPE     N16607   4.349   1.059   6.645 -0.1256 -0.3195  0.2639
  151SAPE   HN116608   4.269   1.072   6.579  0.4782 -1.4834 -0.7376
  151SAPE   HN216609   4.422   1.034   6.576  2.2339  1.3030  2.0371
  151SAPE   HN316610   4.339   0.977   6.708  1.4082 -0.0614  0.8859
  151SAPE   C1216611   4.396   1.186   6.703  0.2830  0.4150 -0.1893
  151SAPE  H12A16612   4.477   1.167   6.776 -0.9512  2.1442  1.7206
  151SAPE  H12B16613   4.315   1.224   6.768  0.0898  1.2318 -0.8869
  151SAPE   C1116614   4.449   1.277   6.589  1.0174 -0.4493 -0.1594
  151SAPE  H11A16615   4.476   1.370   6.644 -1.6772 -1.2707  2.8824
  151SAPE  H11B16616   4.369   1.305   6.517 -0.1092 -1.0296  0.8426
  151SAPE     P16617   4.631   1.306   6.412 -0.3332  0.4695 -0.3418
  151SAPE   O1316618   4.657   1.439   6.459 -0.3073  0.1311 -0.5200
  151SAPE   O1416619   4.736   1.221   6.360 -0.8743  0.5372  0.4703
  151SAPE   O1216620   4.559   1.222   6.526  0.4258  0.2150  0.5272
  151SAPE   O1116621   4.529   1.331   6.299 -0.7981  0.4753 -0.5331
  151SAPE    C116622   4.470   1.228   6.216  0.1909 -0.5360  0.1525
  151SAPE    HA16623   4.475   1.129   6.266  1.8773 -0.2702  0.5702
  151SAPE    HB16624   4.369   1.269   6.194  1.0319  1.4243 -0.3341
  151SAPE    C216625   4.539   1.225   6.079  0.8247 -0.0294 -0.4495
  151SAPE    HS16626   4.644   1.239   6.109  0.5104  0.1244  0.6237
  151SAPE   O2116627   4.483   1.334   6.010  0.3699  0.4976 -0.6876
  151SAPE   C2116628   4.548   1.408   5.926 -0.8431  0.0537  0.2005
  151SAPE   O2216629   4.664   1.386   5.892  0.5005 -0.3466 -0.2273
  151SAPE   C2216630   4.456   1.523   5.881 -0.2050  0.0730 -0.2592
  151SAPE   H2R16631   4.387   1.472   5.810 -0.4410  0.3937 -0.2599
  151SAPE   H2S16632   4.395   1.560   5.965 -0.4465 -1.0677  0.0831
  151SAPE    C316633   4.513   1.092   6.000  0.6669  0.7445 -0.1555
  151SAPE    HX16634   4.404   1.088   5.983  0.8222  0.8330 -1.2570
  151SAPE    HY16635   4.541   1.007   6.065  0.1217 -0.7242 -1.7472
  151SAPE   O3116636   4.585   1.085   5.875  0.2659 -0.3835 -0.3529
  151SAPE   C3116637   4.713   1.060   5.884 -0.4644  0.6003  0.4754
  151SAPE   O3216638   4.782   1.059   5.984 -0.5513 -0.5845 -0.3394
  151SAPE   C3216639   4.778   1.028   5.742  0.2639  0.0515  0.1110
  151SAPE   H2X16640   4.794   1.126   5.692 -3.5278  0.7763  0.0221
  151SAPE   H2Y16641   4.702   0.969   5.687  1.7020 -1.6075 -0.1761
  151SAPE   C2316642   4.531   1.631   5.801 -0.0893 -0.6627  0.3074
  151SAPE   H3R16643   4.621   1.596   5.747 -1.8487 -0.9595 -2.6747
  151SAPE   H3S16644   4.558   1.718   5.864  1.4662 -0.7562 -0.2091
  151SAPE   C2416645   4.454   1.697   5.684  0.2047  0.1046  1.5908
  151SAPE   H4R16646   4.373   1.762   5.724  0.5128  1.5668 -0.0561
  151SAPE   H4S16647   4.412   1.616   5.620 -1.8989  3.3825 -1.5960
  151SAPE   C2516648   4.541   1.788   5.601 -0.5049 -0.0874 -0.2249
  151SAPE   H5R16649   4.613   1.838   5.668  0.7878 -2.4548  0.2621
  151SAPE   C2616650   4.545   1.810   5.473 -0.1548  0.3041  0.6796
  151SAPE   H6R16651   4.616   1.884   5.434 -0.4380  0.3958  0.3412
  151SAPE   C2716652   4.461   1.738   5.367 -0.1088  0.1995  0.6063
  151SAPE   H7R16653   4.384   1.668   5.408 -0.8531 -0.0076 -1.0560
  151SAPE   H7S16654   4.519   1.673   5.299 -0.4177 -0.1634  0.6857
  151SAPE   C2816655   4.402   1.843   5.281 -0.3018  0.0770  0.1231
  151SAPE   H8R16656   4.363   1.937   5.323 -0.6630 -1.1438  2.6976
  151SAPE   C2916657   4.392   1.833   5.145  0.6977 -0.0024  0.0791
  151SAPE   H9R16658   4.353   1.917   5.086  0.2879 -0.2931 -0.0680
  151SAPE  C21016659   4.423   1.722   5.046 -0.1727 -0.6591 -0.9431
  151SAPE  H10R16660   4.335   1.715   4.980 -0.8132 -1.2832 -0.0426
  151SAPE  H10S16661   4.429   1.623   5.096  0.6939 -0.0620  0.2075
  151SAPE  C21116662   4.553   1.731   4.969  0.5314  0.0388  0.7894
  151SAPE  H11R16663   4.629   1.807   4.991  0.3267  1.1455 -1.8781
  151SAPE  C21216664   4.577   1.644   4.866 -0.0709  0.1060  0.0964
  151SAPE  H12R16665   4.677   1.633   4.821  0.0388 -1.7625  0.7392
  151SAPE  C21316666   4.482   1.534   4.814 -0.1413 -0.2089  0.0712
  151SAPE  H13R16667   4.376   1.564   4.827 -0.4202 -1.2277  0.2101
  151SAPE  H13S16668   4.495   1.437   4.865  0.2306 -1.2505 -1.9134
  151SAPE  C21416669   4.521   1.495   4.677 -0.0873 -0.8183 -0.4766
  151SAPE  H14R16670   4.629   1.510   4.668  0.2045 -0.3202  2.5315
  151SAPE  C21516671   4.431   1.491   4.572 -0.3402 -0.0202 -0.0802
  151SAPE  H15R16672   4.473   1.467   4.473  1.0837  3.3670 -0.4414
  151SAPE  C21616673   4.289   1.532   4.570 -0.3915 -0.4141 -0.0130
  151SAPE  H16R16674   4.246   1.566   4.666 -0.3367  0.0683 -0.1562
  151SAPE  H16S16675   4.229   1.444   4.541 -1.5099  0.0399  0.8611
  151SAPE  C21716676   4.251   1.640   4.460  0.8080  0.4063  0.1119
  151SAPE  H17R16677   4.145   1.665   4.481  0.4242 -2.3884  2.1606
  151SAPE  H17S16678   4.249   1.589   4.361  1.6879  1.3316 -0.4001
  151SAPE  C21816679   4.338   1.764   4.446 -0.2682 -0.3979  0.7848
  151SAPE  H18R16680   4.439   1.725   4.421 -0.2139 -1.2609  2.2190
  151SAPE  H18S16681   4.345   1.814   4.545  1.3656 -0.4610  0.7166
  151SAPE  C21916682   4.313   1.866   4.336 -0.4956  0.8096  0.7878
  151SAPE  H19R16683   4.403   1.932   4.341  1.3519 -1.5872  1.4971
  151SAPE  H19S16684   4.221   1.925   4.351 -0.7809  0.4658  0.4132
  151SAPE  C22016685   4.315   1.813   4.189  0.6934  0.0231 -0.8628
  151SAPE  H20R16686   4.277   1.709   4.180  2.1018 -0.4981 -0.9325
  151SAPE  H20S16687   4.421   1.806   4.157  1.9451 -0.5241  2.8837
  151SAPE  H20T16688   4.269   1.882   4.116 -0.6535  0.5931  0.4529
  151SAPE   C3316689   4.923   0.970   5.740 -0.5636 -0.2134 -1.1891
  151SAPE   H3X16690   4.924   0.867   5.782 -3.0653  0.9132  2.1376
  151SAPE   H3Y16691   4.978   1.034   5.812 -1.6718 -0.9858  0.4035
  151SAPE   C3416692   4.991   0.970   5.608 -0.9701 -0.2338 -0.2350
  151SAPE   H4X16693   5.100   0.971   5.633 -0.6453  1.1950 -1.5629
  151SAPE   H4Y16694   4.965   1.058   5.546 -2.5853 -0.5457 -0.0455
  151SAPE   C3516695   4.966   0.843   5.529  0.1352 -0.1795 -0.0868
  151SAPE   H5X16696   4.863   0.853   5.490 -0.0221 -1.2551  0.0369
  151SAPE   H5Y16697   4.967   0.758   5.600 -0.3770 -0.9368 -0.9732
  151SAPE   C3616698   5.058   0.843   5.413  0.0004 -0.0531 -0.7224
  151SAPE   H6X16699   5.144   0.778   5.441  0.5446  0.0904 -1.9909
  151SAPE   H6Y16700   5.116   0.932   5.379  0.2807  0.7436  1.6733
  151SAPE   C3716701   5.005   0.752   5.292 -0.5678 -0.7051 -0.6170
  151SAPE   H7X16702   4.898   0.779   5.280 -0.7855 -0.9127  0.6601
  151SAPE   H7Y16703   5.030   0.646   5.310 -1.5842 -0.7293  0.9270
  151SAPE   C3816704   5.055   0.790   5.161 -0.6387 -0.1844  0.1606
  151SAPE   H8X16705   5.161   0.756   5.167 -0.2608  0.3906 -2.2603
  151SAPE   H8Y16706   5.068   0.900   5.157  0.5017 -0.2709  0.9852
  151SAPE   C3916707   4.972   0.727   5.054 -0.4500 -0.4218 -0.0938
  151SAPE   H9X16708   4.872   0.775   5.054 -0.6059 -0.4131  3.6991
  151SAPE   H9Y16709   4.965   0.617   5.072  0.5233 -0.7847 -1.7421
  151SAPE  C31016710   5.039   0.734   4.922 -0.2762  0.3568  0.2168
  151SAPE  H10X16711   5.145   0.702   4.925  0.2763  2.1398  0.8154
  151SAPE  H10Y16712   5.037   0.836   4.878  1.6511 -0.0492 -0.8763
  151SAPE  C31116713   4.968   0.635   4.832 -0.1882 -0.3416  0.1069
  151SAPE  H11X16714   4.862   0.668   4.830  0.1964  0.9707  0.0617
  151SAPE  H11Y16715   4.983   0.533   4.873 -0.7190  0.1357  1.5399
  151SAPE  C31216716   5.019   0.646   4.691 -0.0041  0.1163  0.0326
  151SAPE  H12X16717   5.128   0.623   4.689 -0.1500 -0.5340 -1.6560
  151SAPE  H12Y16718   4.999   0.752   4.663  1.4178  0.5083  0.3947
  151SAPE  C31316719   4.950   0.547   4.595 -0.5371  0.1985 -0.3957
  151SAPE  H13X16720   4.840   0.543   4.616 -0.2242 -0.5999  1.2792
  151SAPE  H13Y16721   5.001   0.449   4.611  0.0666  0.7003  0.8501
  151SAPE  C31416722   4.971   0.580   4.445  0.0211  0.1777  0.4230
  151SAPE  H14X16723   5.081   0.571   4.429  0.2404 -0.0655  1.9473
  151SAPE  H14Y16724   4.934   0.683   4.427 -0.3019  0.2144  1.2461
  151SAPE  C31516725   4.906   0.490   4.342  0.3485  0.1564  0.2893
  151SAPE  H15X16726   4.928   0.517   4.237 -2.3673 -2.3111 -1.0598
  151SAPE  H15Y16727   4.796   0.497   4.356  0.3520 -1.6504  1.5673
  151SAPE  C31616728   4.948   0.343   4.368 -0.2981  0.7001 -0.0319
  151SAPE  H16X16729   4.909   0.311   4.467 -0.9216  1.1507 -0.1259
  151SAPE  H16Y16730   5.058   0.344   4.383 -0.1265  0.9925 -1.2108
  151SAPE  C31716731   4.915   0.244   4.258 -0.0084  0.3374 -0.0219
  151SAPE  H17X16732   4.808   0.217   4.248  0.4425 -1.7007  0.1820
  151SAPE  H17Y16733   4.973   0.152   4.281 -1.2713 -0.8606 -1.3659
  151SAPE  C31816734   4.969   0.291   4.122 -0.2603  0.1685 -0.2422
  151SAPE  H18X16735   5.062   0.350   4.136  0.0235 -0.7853  2.5007
  151SAPE  H18Y16736   4.891   0.351   4.071 -1.0185  1.0436  1.8352
  151SAPE  H18Z16737   4.998   0.200   4.066 -3.0701 -0.1994 -1.2314
  152SAPE     N16738   0.145   3.861   6.514  0.1049  0.0289 -0.2526
  152SAPE   HN116739   0.164   3.929   6.590 -2.2626 -0.4412  0.8592
  152SAPE   HN216740   0.152   3.771   6.566  0.4613  1.1549  1.7652
  152SAPE   HN316741   0.213   3.882   6.439 -0.3927  1.6907 -0.2783
  152SAPE   C1216742   0.001   3.863   6.465  0.2628  0.7575  0.1677
  152SAPE  H12A16743  -0.031   3.956   6.412 -2.0726 -0.4930 -0.7614
  152SAPE  H12B16744  -0.069   3.852   6.550 -0.4989 -0.9284 -0.6348
  152SAPE   C1116745  -0.023   3.750   6.363  0.4550  0.2014  0.6488
  152SAPE  H11A16746   0.038   3.770   6.273 -0.6412  0.6696 -0.0178
  152SAPE  H11B16747  -0.128   3.765   6.327  0.4093  2.4406  1.5981
  152SAPE     P16748  -0.107   3.531   6.474 -0.4330 -0.0784  0.0564
  152SAPE   O1316749  -0.035   3.454   6.577 -0.0588 -0.8861  0.3006
  152SAPE   O1416750  -0.226   3.603   6.522  0.7335 -0.1808  0.3455
  152SAPE   O1216751   0.005   3.620   6.414 -0.2793 -0.2821 -0.2783
  152SAPE   O1116752  -0.127   3.446   6.340 -0.3229  0.3508 -0.5644
  152SAPE    C116753  -0.218   3.483   6.244 -0.4895  0.3148 -0.2348
  152SAPE    HA16754  -0.295   3.555   6.281  0.2061 -0.2129  2.3805
  152SAPE    HB16755  -0.168   3.536   6.160  2.5669 -0.6676  0.8488
  152SAPE    C216756  -0.284   3.355   6.180  0.2162  0.5091 -0.1787
  152SAPE    HS16757  -0.294   3.286   6.266  0.7239  2.2304  1.3007
  152SAPE   O2116758  -0.208   3.291   6.078  0.1247 -0.4992 -0.3439
  152SAPE   C2116759  -0.195   3.158   6.086  0.0988  0.4485  0.3515
  152SAPE   O2216760  -0.234   3.091   6.181  0.4894  0.2834  0.2586
  152SAPE   C2216761  -0.106   3.099   5.976 -0.3079  0.1354  0.6890
  152SAPE   H2R16762  -0.154   3.102   5.876 -1.1822 -0.5429  1.0756
  152SAPE   H2S16763  -0.008   3.150   5.971  0.8410 -1.8941  1.1778
  152SAPE    C316764  -0.431   3.375   6.133 -0.0233  0.2111  0.1068
  152SAPE    HX16765  -0.472   3.408   6.231  0.8628 -0.5226  0.7460
  152SAPE    HY16766  -0.482   3.281   6.102  0.6252  0.3256 -1.3534
  152SAPE   O3116767  -0.439   3.489   6.038  0.3731 -0.1912 -0.1094
  152SAPE   C3116768  -0.458   3.463   5.909  0.7727 -0.4460 -0.1759
  152SAPE   O3216769  -0.449   3.352   5.859  0.6716 -0.2383 -0.1028
  152SAPE   C3216770  -0.495   3.598   5.848  0.2319  1.1786  0.2765
  152SAPE   H2X16771  -0.401   3.653   5.824  2.3212 -2.6312 -0.9861
  152SAPE   H2Y16772  -0.536   3.666   5.926  0.3628  3.3394 -1.4062
  152SAPE   C2316773  -0.070   2.949   6.001  0.0027  1.0639  0.8520
  152SAPE   H3R16774  -0.155   2.877   6.009  2.5697 -2.2017  0.9548
  152SAPE   H3S16775  -0.024   2.949   6.102  3.4420  0.1938 -0.5793
  152SAPE   C2416776   0.027   2.884   5.905  0.3378 -0.0705 -0.6047
  152SAPE   H4R16777   0.102   2.962   5.879 -0.5944  2.0397  2.4699
  152SAPE   H4S16778  -0.022   2.841   5.815 -0.2360 -0.9952  0.1367
  152SAPE   C2516779   0.105   2.769   5.962  0.3558 -0.0582  0.2751
  152SAPE   H5R16780   0.077   2.739   6.064 -0.1609  1.1647  0.5007
  152SAPE   C2616781   0.200   2.703   5.896 -0.1085 -0.2770  0.6616
  152SAPE   H6R16782   0.261   2.626   5.945 -2.3409 -3.7275 -1.5037
  152SAPE   C2716783   0.232   2.728   5.743 -0.1875  0.5145 -0.3217
  152SAPE   H7R16784   0.301   2.815   5.742 -0.7222  0.9609  0.8724
  152SAPE   H7S16785   0.148   2.770   5.685 -0.0815 -0.7567 -1.4574
  152SAPE   C2816786   0.304   2.614   5.679 -0.3017  0.1959 -0.0337
  152SAPE   H8R16787   0.246   2.521   5.682  0.3433 -0.2099 -0.0001
  152SAPE   C2916788   0.416   2.615   5.611  0.4121 -0.6703  0.8389
  152SAPE   H9R16789   0.450   2.518   5.572 -1.7440 -1.0082 -0.3356
  152SAPE  C21016790   0.499   2.736   5.574  0.1822  0.3052 -0.1735
  152SAPE  H10R16791   0.600   2.737   5.621 -0.3716  2.1661  1.0706
  152SAPE  H10S16792   0.454   2.834   5.602  1.5310  1.2341 -1.1223
  152SAPE  C21116793   0.500   2.752   5.422 -0.0634 -0.1940  0.2382
  152SAPE  H11R16794   0.435   2.835   5.392 -0.4222 -0.6335 -0.2175
  152SAPE  C21216795   0.551   2.671   5.330  0.0757 -0.5146  0.2029
  152SAPE  H12R16796   0.542   2.711   5.228  0.3029  0.4983  0.5688
  152SAPE  C21316797   0.626   2.543   5.350  0.7939 -0.0694 -0.5066
  152SAPE  H13R16798   0.574   2.478   5.423  0.9612  0.0944 -0.2389
  152SAPE  H13S16799   0.711   2.563   5.419  1.0682 -0.2535 -0.7894
  152SAPE  C21416800   0.680   2.466   5.227  0.2214  0.4947 -0.7792
  152SAPE  H14R16801   0.789   2.454   5.218  0.2693  1.1437 -1.1088
  152SAPE  C21516802   0.605   2.395   5.141  0.6021  0.3592 -0.1108
  152SAPE  H15R16803   0.651   2.322   5.074 -1.9405 -0.1122 -1.4587
  152SAPE  C21616804   0.451   2.377   5.149 -0.3727  0.2689 -0.0821
  152SAPE  H16R16805   0.400   2.442   5.222  0.0178 -1.3240  1.6884
  152SAPE  H16S16806   0.435   2.272   5.182  0.2254 -0.4168 -1.8124
  152SAPE  C21716807   0.374   2.386   5.012  0.4338 -0.7203  0.3521
  152SAPE  H17R16808   0.399   2.480   4.959 -2.0227 -0.2993 -0.1760
  152SAPE  H17S16809   0.266   2.404   5.029  0.4493  4.1443 -2.7908
  152SAPE  C21816810   0.402   2.270   4.912  0.0370 -0.1147 -0.2696
  152SAPE  H18R16811   0.411   2.179   4.976 -0.7812 -1.0787 -1.4908
  152SAPE  H18S16812   0.503   2.284   4.867  0.6471 -1.3359  0.6182
  152SAPE  C21916813   0.294   2.260   4.804 -0.5484 -0.2339 -0.9350
  152SAPE  H19R16814   0.284   2.361   4.758 -0.2347 -0.4907 -1.5800
  152SAPE  H19S16815   0.203   2.220   4.854  0.3121 -0.9572  0.1149
  152SAPE  C22016816   0.328   2.164   4.690  0.3653  0.2737 -0.0438
  152SAPE  H20R16817   0.425   2.175   4.637  0.6624 -1.4297  0.1028
  152SAPE  H20S16818   0.248   2.164   4.613  0.9094 -2.4876 -0.7144
  152SAPE  H20T16819   0.332   2.062   4.733 -0.9557  0.4253  0.5095
  152SAPE   C3316820  -0.585   3.591   5.720 -0.0937  0.4028  0.2286
  152SAPE   H3X16821  -0.633   3.691   5.705 -2.0332 -0.6814 -1.2236
  152SAPE   H3Y16822  -0.665   3.517   5.743  0.4151 -0.5443 -0.9468
  152SAPE   C3416823  -0.517   3.548   5.593  0.1957  0.3254 -0.6415
  152SAPE   H4X16824  -0.491   3.440   5.595 -2.0670 -0.3394 -2.4820
  152SAPE   H4Y16825  -0.422   3.603   5.576  1.7542 -0.7543  3.4532
  152SAPE   C3516826  -0.585   3.572   5.461  1.0423  0.1905  0.2685
  152SAPE   H5X16827  -0.626   3.674   5.448 -0.7907 -0.3897  1.0346
  152SAPE   H5Y16828  -0.654   3.488   5.436  4.7974 -2.6313 -1.6609
  152SAPE   C3616829  -0.488   3.559   5.348 -0.0918  0.7963 -0.2426
  152SAPE   H6X16830  -0.442   3.458   5.355  2.9625  2.1215  0.0703
  152SAPE   H6Y16831  -0.418   3.643   5.363 -1.3579  1.5147  2.0597
  152SAPE   C3716832  -0.551   3.572   5.204 -0.4098 -0.0343 -0.2190
  152SAPE   H7X16833  -0.572   3.680   5.191  0.7300  0.6485  2.8678
  152SAPE   H7Y16834  -0.653   3.528   5.206 -0.1958 -0.5301 -0.0344
  152SAPE   C3816835  -0.459   3.509   5.099  0.2065 -0.2910 -0.3458
  152SAPE   H8X16836  -0.443   3.399   5.103 -2.2570 -0.6874  0.3800
  152SAPE   H8Y16837  -0.366   3.567   5.119  0.4680 -0.2231 -1.6679
  152SAPE   C3916838  -0.520   3.544   4.958 -0.2768  0.3491  0.2789
  152SAPE   H9X16839  -0.554   3.650   4.958  1.6417  1.0255 -1.3107
  152SAPE   H9Y16840  -0.606   3.475   4.946  0.3531 -0.9167  2.4512
  152SAPE  C31016841  -0.423   3.526   4.843 -0.3299  0.2813  0.2291
  152SAPE  H10X16842  -0.382   3.423   4.841  0.1717  0.4622  0.7465
  152SAPE  H10Y16843  -0.345   3.605   4.850  0.9534 -0.9479  0.4274
  152SAPE  C31116844  -0.484   3.557   4.706  0.0599 -0.8000  0.5127
  152SAPE  H11X16845  -0.523   3.662   4.706  0.5725 -0.5912  1.6030
  152SAPE  H11Y16846  -0.572   3.490   4.699 -0.9434  0.3523  1.5115
  152SAPE  C31216847  -0.387   3.518   4.599 -0.3134 -0.1403 -0.7726
  152SAPE  H12X16848  -0.349   3.417   4.626  0.8690  0.5351  0.1727
  152SAPE  H12Y16849  -0.294   3.576   4.617 -0.1241 -0.7544  0.3143
  152SAPE  C31316850  -0.445   3.536   4.458  0.3003  0.5027  0.1587
  152SAPE  H13X16851  -0.497   3.634   4.463  3.0362  2.1341 -0.7135
  152SAPE  H13Y16852  -0.513   3.455   4.425  2.2994 -0.9025 -0.7411
  152SAPE  C31416853  -0.336   3.546   4.352  0.5103 -0.7555 -0.8086
  152SAPE  H14X16854  -0.250   3.603   4.393 -0.1766 -0.8800  0.8849
  152SAPE  H14Y16855  -0.378   3.611   4.272 -0.0147 -0.9111 -0.6610
  152SAPE  C31516856  -0.294   3.420   4.294  0.5444  0.4646  0.4111
  152SAPE  H15X16857  -0.384   3.363   4.264  1.5610 -0.6113 -0.7630
  152SAPE  H15Y16858  -0.242   3.366   4.376  0.5730  1.4067  1.0172
  152SAPE  C31616859  -0.190   3.435   4.181  0.0214  0.4581  0.3480
  152SAPE  H16X16860  -0.171   3.335   4.136  0.2755  0.7354 -0.1775
  152SAPE  H16Y16861  -0.091   3.461   4.223  0.1396 -0.3893  0.6096
  152SAPE  C31716862  -0.227   3.527   4.063  0.0975  0.1670  0.2129
  152SAPE  H17X16863  -0.148   3.516   3.986  0.4414 -1.7581  0.7888
  152SAPE  H17Y16864  -0.227   3.634   4.095  1.1929  0.5070 -0.8317
  152SAPE  C31816865  -0.368   3.509   4.000 -0.9183 -0.7218 -0.8773
  152SAPE  H18X16866  -0.401   3.403   4.004 -0.4112 -0.8398  0.9296
  152SAPE  H18Y16867  -0.371   3.560   3.902 -0.3222  0.3222 -0.3659
  152SAPE  H18Z16868  -0.445   3.559   4.062  1.1537  1.3019  0.2240
  153SAPE     N16869   6.414   1.919   6.507  0.1790  0.4193  0.5239
  153SAPE   HN116870   6.442   1.822   6.533  2.5456  1.4346  1.9935
  153SAPE   HN216871   6.502   1.962   6.473 -0.2270 -1.1484 -3.0420
  153SAPE   HN316872   6.367   1.964   6.588  0.0347  0.2651  0.5290
  153SAPE   C1216873   6.312   1.907   6.396 -0.5820  0.2346 -0.3655
  153SAPE  H12A16874   6.212   1.895   6.444 -1.2525  3.2915 -0.8023
  153SAPE  H12B16875   6.346   1.828   6.326  1.4024  0.5471  0.1709
  153SAPE   C1116876   6.306   2.047   6.321  0.7940  0.1602  0.3880
  153SAPE  H11A16877   6.232   2.040   6.238 -0.0998 -1.6517  1.2817
  153SAPE  H11B16878   6.409   2.066   6.284  1.3644 -0.5211  1.5570
  153SAPE     P16879   6.131   2.226   6.400 -0.3033 -0.4762  0.2197
  153SAPE   O1316880   6.021   2.141   6.450  0.0522 -0.5210 -0.6301
  153SAPE   O1416881   6.131   2.366   6.446  0.3906 -0.5828 -0.0338
  153SAPE   O1216882   6.273   2.152   6.404 -0.1056 -0.0904 -0.5456
  153SAPE   O1116883   6.103   2.229   6.240  0.4473  0.0856 -0.0965
  153SAPE    C116884   6.170   2.331   6.161 -0.4100  0.4535 -0.8462
  153SAPE    HA16885   6.248   2.388   6.216 -2.6334  1.9251  1.0032
  153SAPE    HB16886   6.205   2.281   6.069  0.1806 -1.7997  0.5409
  153SAPE    C216887   6.072   2.433   6.089 -0.0001  0.2429 -0.4567
  153SAPE    HS16888   6.017   2.474   6.177  0.3158 -0.7134  0.2051
  153SAPE   O2116889   5.977   2.364   6.002 -0.2349 -0.1053 -0.7791
  153SAPE   C2116890   5.876   2.444   5.957 -0.7916  0.7898 -0.1446
  153SAPE   O2216891   5.854   2.548   6.010  0.4071 -0.3490  0.0877
  153SAPE   C2216892   5.786   2.376   5.861 -0.3487  0.1453 -0.0617
  153SAPE   H2R16893   5.720   2.315   5.926 -0.9932  0.0169 -0.8171
  153SAPE   H2S16894   5.724   2.450   5.807 -1.1021 -1.2413 -1.1933
  153SAPE    C316895   6.160   2.542   6.017 -0.3148  0.3956  0.4983
  153SAPE    HX16896   6.205   2.609   6.093  1.7063  0.6049 -0.8160
  153SAPE    HY16897   6.100   2.612   5.955 -0.1764  0.9063  0.9308
  153SAPE   O3116898   6.272   2.484   5.939  0.9478  0.2250  0.1141
  153SAPE   C3116899   6.380   2.563   5.923  0.2000 -0.6512 -0.2854
  153SAPE   O3216900   6.391   2.674   5.976  0.2520  0.1604  0.1522
  153SAPE   C3216901   6.480   2.485   5.851 -0.4723  0.2617  0.6582
  153SAPE   H2X16902   6.423   2.440   5.768 -2.9467  3.0985  0.6383
  153SAPE   H2Y16903   6.514   2.400   5.915 -2.3892 -1.5804 -0.6537
  153SAPE   C2316904   5.846   2.279   5.760 -0.2347 -0.4107 -0.2369
  153SAPE   H3R16905   5.762   2.211   5.734  1.4351 -2.3513 -0.8569
  153SAPE   H3S16906   5.933   2.218   5.795  0.1400  0.3722  0.2274
  153SAPE   C2416907   5.890   2.365   5.633  0.1883 -0.1950 -0.7073
  153SAPE   H4R16908   5.797   2.421   5.609 -1.1717 -1.8549  0.4153
  153SAPE   H4S16909   5.914   2.290   5.554  2.3084 -0.8970  0.5363
  153SAPE   C2516910   6.016   2.446   5.657 -0.8830 -0.0447  0.5851
  153SAPE   H5R16911   6.061   2.443   5.758  2.4100 -4.9007 -0.6739
  153SAPE   C2616912   6.094   2.489   5.561  0.8747 -0.7744  0.9108
  153SAPE   H6R16913   6.181   2.547   5.596  1.3425 -0.4380 -0.7228
  153SAPE   C2716914   6.074   2.489   5.412 -0.8367 -0.9102 -0.5575
  153SAPE   H7R16915   6.139   2.573   5.378  0.5502 -1.1113  1.4141
  153SAPE   H7S16916   5.971   2.509   5.376 -0.2670 -1.2889 -2.5104
  153SAPE   C2816917   6.112   2.365   5.346 -0.5232  0.1168 -0.3189
  153SAPE   H8R16918   6.032   2.292   5.362  0.3375 -0.6590  0.5581
  153SAPE   C2916919   6.215   2.337   5.276 -0.0430  0.2494  0.0631
  153SAPE   H9R16920   6.216   2.231   5.248 -2.7672 -0.0701  0.9098
  153SAPE  C21016921   6.335   2.423   5.259  0.0673 -0.0676  1.0003
  153SAPE  H10R16922   6.429   2.370   5.285  2.1209  1.1838 -2.9864
  153SAPE  H10S16923   6.331   2.513   5.323 -0.5518  1.2170 -0.7649
  153SAPE  C21116924   6.340   2.480   5.117 -1.0888  0.0748 -0.4499
  153SAPE  H11R16925   6.281   2.573   5.112 -0.2710  0.6007 -0.5710
  153SAPE  C21216926   6.404   2.424   5.014  0.1576  0.5844  0.5715
  153SAPE  H12R16927   6.384   2.464   4.913  1.1229 -1.4155 -0.4690
  153SAPE  C21316928   6.497   2.303   5.018 -0.3572  0.0406  0.8960
  153SAPE  H13R16929   6.511   2.254   5.117 -1.3978 -0.2182  0.9326
  153SAPE  H13S16930   6.596   2.351   5.000 -0.5190 -0.2443 -0.9606
  153SAPE  C21416931   6.471   2.188   4.925  0.6476  0.4018 -0.3089
  153SAPE  H14R16932   6.402   2.115   4.970 -0.6336  2.4577  1.2632
  153SAPE  C21516933   6.527   2.160   4.810 -0.3182  0.3660  0.2269
  153SAPE  H15R16934   6.483   2.082   4.746  0.2662  0.0766  0.1688
  153SAPE  C21616935   6.610   2.252   4.730 -0.4565  0.4238  0.1967
  153SAPE  H16R16936   6.707   2.276   4.779  1.4026 -0.3846 -2.8390
  153SAPE  H16S16937   6.560   2.348   4.706 -0.0220  0.4899 -0.4666
  153SAPE  C21716938   6.660   2.187   4.594 -0.0720 -0.3339 -0.3212
  153SAPE  H17R16939   6.702   2.085   4.606 -0.4558 -0.5311 -0.6524
  153SAPE  H17S16940   6.738   2.262   4.566  0.2656  0.7984  3.0819
  153SAPE  C21816941   6.553   2.175   4.484  0.3646  0.0807  0.2748
  153SAPE  H18R16942   6.499   2.272   4.472  0.1599 -0.1052 -0.3712
  153SAPE  H18S16943   6.475   2.107   4.524 -0.6033  0.9036 -0.1450
  153SAPE  C21916944   6.612   2.120   4.353 -0.2390 -0.3506  0.6121
  153SAPE  H19R16945   6.532   2.105   4.277  0.6144  0.7246 -0.5318
  153SAPE  H19S16946   6.649   2.018   4.378  0.6756 -0.4808 -1.0945
  153SAPE  C22016947   6.729   2.193   4.299 -1.0273  0.1507 -0.2086
  153SAPE  H20R16948   6.813   2.155   4.360 -1.7163 -0.6236  0.2830
  153SAPE  H20S16949   6.716   2.302   4.313  0.8361  0.7616 -2.5582
  153SAPE  H20T16950   6.744   2.179   4.190 -0.3259  3.3939 -0.6275
  153SAPE   C3316951   6.590   2.570   5.794 -0.0578 -0.0632  0.1196
  153SAPE   H3X16952   6.679   2.513   5.759 -1.2239 -2.0196  0.1840
  153SAPE   H3Y16953   6.631   2.646   5.863  0.6871  0.3834 -0.8022
  153SAPE   C3416954   6.524   2.631   5.662 -0.5114 -0.4996 -0.6415
  153SAPE   H4X16955   6.517   2.741   5.678 -0.3233 -0.6048  0.2465
  153SAPE   H4Y16956   6.418   2.599   5.650 -0.4969 -0.9695  0.3249
  153SAPE   C3516957   6.602   2.600   5.536 -0.1377  0.5351  0.2188
  153SAPE   H5X16958   6.529   2.618   5.454 -0.9032  3.1118  1.3791
  153SAPE   H5Y16959   6.619   2.490   5.537 -1.2994  0.3428  0.8941
  153SAPE   C3616960   6.724   2.685   5.511 -0.0426  0.5485 -0.1497
  153SAPE   H6X16961   6.803   2.635   5.571 -0.0050 -0.3489 -0.9355
  153SAPE   H6Y16962   6.693   2.777   5.566 -2.2883 -0.4927  0.4773
  153SAPE   C3716963   6.768   2.713   5.363  0.4020 -0.7544  0.4903
  153SAPE   H7X16964   6.853   2.786   5.360 -1.4411  1.5264  0.8505
  153SAPE   H7Y16965   6.679   2.763   5.319  1.0389 -0.7023 -0.7860
  153SAPE   C3816966   6.801   2.587   5.292 -0.2614  0.5327  0.6926
  153SAPE   H8X16967   6.732   2.501   5.305  2.2400 -1.7032 -0.0086
  153SAPE   H8Y16968   6.900   2.551   5.327  0.9260 -1.2677 -3.8128
  153SAPE   C3916969   6.813   2.591   5.140 -0.3603  0.7805 -0.7594
  153SAPE   H9X16970   6.830   2.485   5.110  0.6426  0.4399  0.8559
  153SAPE   H9Y16971   6.908   2.645   5.122  1.8619 -2.3256  0.6746
  153SAPE  C31016972   6.700   2.665   5.075  0.6925 -0.3808  0.3613
  153SAPE  H10X16973   6.739   2.769   5.084 -1.1004  0.4275 -0.6403
  153SAPE  H10Y16974   6.607   2.640   5.131  0.7996 -2.7051 -0.3773
  153SAPE  C31116975   6.684   2.646   4.925 -0.4766  0.0021 -0.9895
  153SAPE  H11X16976   6.604   2.716   4.894  1.1032  1.0198 -3.0156
  153SAPE  H11Y16977   6.651   2.543   4.900 -1.7308  0.0666  0.2383
  153SAPE  C31216978   6.818   2.678   4.856 -0.5254  0.3469 -0.0443
  153SAPE  H12X16979   6.903   2.608   4.869  0.9925  2.1890  0.4451
  153SAPE  H12Y16980   6.843   2.782   4.885  1.5001 -0.2325  0.4359
  153SAPE  C31316981   6.796   2.674   4.703  0.0694 -0.1433 -0.3608
  153SAPE  H13X16982   6.695   2.716   4.683 -0.4407 -0.0739  2.0752
  153SAPE  H13Y16983   6.791   2.566   4.678 -0.5503  0.0022 -0.9077
  153SAPE  C31416984   6.911   2.750   4.624  0.4697  0.6366 -0.9061
  153SAPE  H14X16985   7.010   2.699   4.632  1.2298  2.2815  1.4734
  153SAPE  H14Y16986   6.933   2.841   4.684  1.0096  0.2254 -0.4700
  153SAPE  C31516987   6.868   2.764   4.482 -0.8703 -0.2918 -0.2619
  153SAPE  H15X16988   6.938   2.826   4.422 -0.8948 -1.1517 -1.2210
  153SAPE  H15Y16989   6.779   2.829   4.469 -0.6882  0.0484  0.1810
  153SAPE  C31616990   6.854   2.634   4.398  0.0591 -0.2207  0.0465
  153SAPE  H16X16991   6.831   2.665   4.294  1.5861  1.7056  0.2282
  153SAPE  H16Y16992   6.764   2.581   4.436 -0.5002  0.9173  0.3771
  153SAPE  C31716993   6.987   2.552   4.401 -0.4724  0.1717  0.2994
  153SAPE  H17X16994   6.978   2.473   4.324 -0.3831  2.8300 -2.6306
  153SAPE  H17Y16995   6.997   2.500   4.499  2.8408 -0.0683 -0.0671
  153SAPE  C31816996   7.115   2.636   4.374  0.4191 -0.2024  0.4996
  153SAPE  H18X16997   7.104   2.688   4.277 -1.5794  0.1619  0.8713
  153SAPE  H18Y16998   7.203   2.567   4.374 -0.4529 -1.3407  0.8828
  153SAPE  H18Z16999   7.139   2.701   4.461 -1.2998  1.4913 -0.2257
  154SAPE     N17000   4.851   1.009   6.239 -0.1679  0.6242  0.3560
  154SAPE   HN117001   4.954   1.023   6.249 -0.1050 -0.3472  1.1949
  154SAPE   HN217002   4.817   1.017   6.141  0.1167  0.1106  0.2086
  154SAPE   HN317003   4.808   1.089   6.289 -0.3731  0.8573 -0.1875
  154SAPE   C1217004   4.819   0.865   6.285 -0.1967 -0.7118 -0.1116
  154SAPE  H12A17005   4.810   0.866   6.396 -2.5988  0.8290 -0.2349
  154SAPE  H12B17006   4.906   0.805   6.254  1.2367  0.5187  1.3392
  154SAPE   C1117007   4.695   0.804   6.227  0.1484 -0.0197 -0.5576
  154SAPE  H11A17008   4.690   0.703   6.272  1.7960  0.5944  1.1231
  154SAPE  H11B17009   4.697   0.798   6.116  0.8340 -1.7108 -0.4796
  154SAPE     P17010   4.499   0.847   6.388 -0.2735 -0.2814 -0.3354
  154SAPE   O1317011   4.484   0.704   6.401 -0.2888 -0.1149  0.1955
  154SAPE   O1417012   4.557   0.919   6.503  0.3564  0.7153  0.1913
  154SAPE   O1217013   4.573   0.881   6.262  0.0790 -0.1895  0.0173
  154SAPE   O1117014   4.355   0.916   6.372 -0.2675  0.0829 -0.2056
  154SAPE    C117015   4.277   0.867   6.265 -0.4140  0.7768  0.1230
  154SAPE    HA17016   4.334   0.873   6.170 -3.2695 -0.1819 -1.7618
  154SAPE    HB17017   4.249   0.760   6.276 -0.1158  0.2030 -3.4336
  154SAPE    C217018   4.140   0.945   6.241  0.0747 -0.8766 -0.3369
  154SAPE    HS17019   4.175   1.050   6.228  2.3376 -1.1600  2.5102
  154SAPE   O2117020   4.042   0.913   6.335  0.1304 -0.2760 -0.5033
  154SAPE   C2117021   4.062   0.975   6.454  0.0094 -0.2191 -0.1296
  154SAPE   O2217022   4.137   1.070   6.476 -0.5961 -0.0703  0.2769
  154SAPE   C2217023   3.961   0.916   6.558 -0.0898  1.2828 -0.4725
  154SAPE   H2R17024   3.931   1.000   6.624  2.3097  0.7995  1.3852
  154SAPE   H2S17025   3.878   0.881   6.494  0.0463  0.3736 -0.1599
  154SAPE    C317026   4.076   0.914   6.107 -0.1054 -0.1764  0.5401
  154SAPE    HX17027   3.971   0.948   6.118 -0.0693 -0.0682  0.5544
  154SAPE    HY17028   4.068   0.805   6.093 -0.6971  0.0851 -1.4411
  154SAPE   O3117029   4.152   0.973   5.999 -1.1760  0.0745 -0.7222
  154SAPE   C3117030   4.092   1.084   5.944  0.3697  0.7533  0.3815
  154SAPE   O3217031   3.997   1.145   5.988 -0.1034  0.2681 -0.0926
  154SAPE   C3217032   4.140   1.110   5.799 -0.3396  0.0223 -0.7112
  154SAPE   H2X17033   4.049   1.080   5.744 -2.5557  0.4996  2.4341
  154SAPE   H2Y17034   4.218   1.032   5.785  1.1087  0.5845  2.9237
  154SAPE   C2317035   4.022   0.807   6.645 -0.4870  0.2295 -0.7088
  154SAPE   H3R17036   3.977   0.793   6.746  1.1699 -0.8425 -0.0832
  154SAPE   H3S17037   4.131   0.821   6.660 -0.8793  1.3312  1.5043
  154SAPE   C2417038   4.004   0.671   6.573  0.3862 -0.6971 -0.1874
  154SAPE   H4R17039   4.083   0.613   6.625  1.8316  1.4861  0.2088
  154SAPE   H4S17040   4.037   0.687   6.469 -1.0126  1.2245 -0.3925
  154SAPE   C2517041   3.866   0.607   6.585 -0.4352  0.5844 -0.3223
  154SAPE   H5R17042   3.838   0.587   6.689  0.1493 -0.3674 -0.3395
  154SAPE   C2617043   3.778   0.570   6.490  0.4433 -0.6440 -0.5338
  154SAPE   H6R17044   3.681   0.526   6.517 -0.0382 -1.6080 -3.5048
  154SAPE   C2717045   3.806   0.604   6.343 -0.2512 -0.7311  0.0792
  154SAPE   H7R17046   3.794   0.511   6.282 -1.1298  0.6402 -1.9402
  154SAPE   H7S17047   3.910   0.641   6.330 -0.2474 -1.4045 -2.3570
  154SAPE   C2817048   3.700   0.712   6.297 -0.5644  0.0357  0.7808
  154SAPE   H8R17049   3.653   0.771   6.376  0.1587  1.0764  0.4500
  154SAPE   C2917050   3.664   0.737   6.172  0.5154  0.3602  0.2379
  154SAPE   H9R17051   3.591   0.819   6.158  0.4185  0.0991 -0.8341
  154SAPE  C21017052   3.707   0.646   6.060  0.0460 -0.9531 -0.6067
  154SAPE  H10R17053   3.707   0.538   6.085  1.4514 -0.4683  1.8059
  154SAPE  H10S17054   3.815   0.660   6.037 -0.0635 -1.3187 -1.3508
  154SAPE  C21117055   3.648   0.676   5.923  0.0743  1.1892 -0.3495
  154SAPE  H11R17056   3.546   0.645   5.897  0.3248 -0.4498  0.4788
  154SAPE  C21217057   3.712   0.736   5.824  0.1168 -0.6609  0.1855
  154SAPE  H12R17058   3.673   0.722   5.722 -0.7186  0.6375  0.3042
  154SAPE  C21317059   3.854   0.794   5.809  0.1520 -0.0808  0.0693
  154SAPE  H13R17060   3.887   0.833   5.908 -1.7434  0.3219  0.5785
  154SAPE  H13S17061   3.865   0.882   5.742  1.3708 -0.3962 -0.1776
  154SAPE  C21417062   3.962   0.691   5.778 -0.0969  0.3596 -0.2354
  154SAPE  H14R17063   3.989   0.623   5.860  1.1661  1.1637  0.0388
  154SAPE  C21517064   4.051   0.697   5.680  0.3349 -0.3735 -0.0003
  154SAPE  H15R17065   4.126   0.616   5.680 -0.7601 -1.4178  0.5125
  154SAPE  C21617066   4.064   0.799   5.569  0.3868 -0.2572  0.0114
  154SAPE  H16R17067   4.151   0.866   5.584  0.3174 -0.5194  1.8089
  154SAPE  H16S17068   3.971   0.859   5.559  2.3769  2.7731 -1.9374
  154SAPE  C21717069   4.081   0.732   5.435 -0.0247 -0.2804  0.1078
  154SAPE  H17R17070   4.014   0.646   5.413  0.3140 -0.9706  1.6313
  154SAPE  H17S17071   4.178   0.677   5.426  0.2260  0.0528  0.7754
  154SAPE  C21817072   4.098   0.839   5.319  0.0180 -0.1707 -0.5579
  154SAPE  H18R17073   4.183   0.910   5.330  1.0119 -1.2533 -1.0354
  154SAPE  H18S17074   4.013   0.910   5.328  1.6228  1.6251  1.3856
  154SAPE  C21917075   4.117   0.773   5.183 -0.6387 -0.1608 -0.0437
  154SAPE  H19R17076   4.027   0.711   5.169 -0.5956 -0.5651  1.3062
  154SAPE  H19S17077   4.207   0.707   5.188  0.9840  1.7045 -2.1303
  154SAPE  C22017078   4.137   0.868   5.068 -0.0837  0.0406  0.3195
  154SAPE  H20R17079   4.064   0.952   5.067  3.0695  3.0300 -0.7328
  154SAPE  H20S17080   4.135   0.810   4.973  1.8263  1.1542 -0.4734
  154SAPE  H20T17081   4.234   0.921   5.074 -0.7818  1.4587 -0.4461
  154SAPE   C3317082   4.198   1.245   5.770  0.0294  0.4033 -0.3485
  154SAPE   H3X17083   4.254   1.277   5.860 -1.5367  1.2552  0.3523
  154SAPE   H3Y17084   4.114   1.317   5.762 -1.2627 -0.9071  0.9084
  154SAPE   C3417085   4.252   1.261   5.628  0.3330 -0.4540  0.0364
  154SAPE   H4X17086   4.253   1.368   5.598 -1.0761  0.0702  1.7264
  154SAPE   H4Y17087   4.196   1.207   5.549  0.8197 -1.6151  0.4669
  154SAPE   C3517088   4.395   1.212   5.614 -0.1727 -0.1816  0.6123
  154SAPE   H5X17089   4.395   1.101   5.617 -0.6411 -0.2112 -0.3326
  154SAPE   H5Y17090   4.450   1.239   5.707 -1.6551 -2.6298  2.3248
  154SAPE   C3617091   4.469   1.284   5.499  0.0467 -0.7907 -0.3927
  154SAPE   H6X17092   4.441   1.391   5.511  2.5106 -0.1278 -0.0679
  154SAPE   H6Y17093   4.426   1.250   5.402 -2.5090  1.6061 -0.2472
  154SAPE   C3717094   4.624   1.273   5.504  0.4724  0.5010  0.3128
  154SAPE   H7X17095   4.648   1.165   5.512 -0.8665  0.0611 -1.2271
  154SAPE   H7Y17096   4.667   1.328   5.591 -0.6967  0.5845  0.8536
  154SAPE   C3817097   4.688   1.329   5.380  0.0205 -0.4831 -0.7453
  154SAPE   H8X17098   4.797   1.349   5.389 -0.0553  0.7519 -2.1868
  154SAPE   H8Y17099   4.642   1.427   5.356 -0.1795 -0.7354 -1.4029
  154SAPE   C3917100   4.686   1.249   5.244 -0.0065 -0.0505  0.5110
  154SAPE   H9X17101   4.578   1.221   5.238 -0.3765  1.0925  1.4416
  154SAPE   H9Y17102   4.737   1.151   5.259 -2.6812 -1.4445  1.1354
  154SAPE  C31017103   4.722   1.338   5.120 -0.8329 -0.1320 -1.3880
  154SAPE  H10X17104   4.813   1.401   5.130 -1.3884  0.5841 -0.6362
  154SAPE  H10Y17105   4.629   1.398   5.126 -0.3166  0.5385  1.7108
  154SAPE  C31117106   4.728   1.273   4.983  0.6420 -0.1480  0.3299
  154SAPE  H11X17107   4.691   1.345   4.906  0.2435 -1.5197 -0.7991
  154SAPE  H11Y17108   4.646   1.199   4.984 -2.0004  2.5122 -1.6639
  154SAPE  C31217109   4.867   1.227   4.942 -0.1012  0.2665 -0.9072
  154SAPE  H12X17110   4.871   1.130   4.996  1.8208  0.8133  0.0006
  154SAPE  H12Y17111   4.939   1.299   4.986 -0.2257 -0.2432  0.1554
  154SAPE  C31317112   4.887   1.207   4.799 -0.2134  0.3843  0.2254
  154SAPE  H13X17113   4.853   1.300   4.748 -4.1664 -1.3282 -0.6851
  154SAPE  H13Y17114   4.815   1.138   4.750  1.3023 -0.9196 -0.2501
  154SAPE  C31417115   5.031   1.159   4.757  0.5981  0.2230  0.0552
  154SAPE  H14X17116   5.042   1.067   4.818 -1.2289  0.4532  0.7855
  154SAPE  H14Y17117   5.109   1.234   4.781  1.7378 -1.3654  1.5586
  154SAPE  C31517118   5.047   1.137   4.609  0.1659 -0.3503  0.2253
  154SAPE  H15X17119   5.046   1.231   4.551 -0.2594  0.8356  2.0858
  154SAPE  H15Y17120   4.956   1.080   4.584  0.4825 -0.7661 -0.0011
  154SAPE  C31617121   5.174   1.058   4.572  0.4570  0.3570 -0.3722
  154SAPE  H16X17122   5.165   0.965   4.633 -1.3200  0.0234 -1.0635
  154SAPE  H16Y17123   5.247   1.124   4.623  1.9170 -0.8168 -0.8707
  154SAPE  C31717124   5.191   1.051   4.417  0.5361 -0.1296  0.1839
  154SAPE  H17X17125   5.296   1.025   4.393  0.4223  1.8679 -2.9372
  154SAPE  H17Y17126   5.175   1.151   4.373 -1.0165 -1.4883 -2.6464
  154SAPE  C31817127   5.093   0.955   4.354  0.3957 -0.7000 -0.4070
  154SAPE  H18X17128   5.112   0.939   4.246 -0.4712 -2.4267 -0.3402
  154SAPE  H18Y17129   4.988   0.990   4.367  0.3328 -0.5986 -1.1159
  154SAPE  H18Z17130   5.099   0.861   4.412  1.2929  0.2940  1.2064
  155SAPE     N17131   5.216   1.969   6.971  0.0007  0.4545 -0.0749
  155SAPE   HN117132   5.243   2.049   6.910 -1.5016 -0.8100 -2.5684
  155SAPE   HN217133   5.113   1.969   6.954 -0.0645 -1.3552  0.1271
  155SAPE   HN317134   5.230   1.994   7.071 -0.5511  2.1435 -0.3835
  155SAPE   C1217135   5.271   1.830   6.942 -0.3441  0.5554  0.0776
  155SAPE  H12A17136   5.239   1.756   7.019 -1.8934 -0.4755 -1.4840
  155SAPE  H12B17137   5.381   1.850   6.943  0.2419 -2.2269 -0.4741
  155SAPE   C1117138   5.227   1.782   6.800 -0.2510  0.1369 -0.1521
  155SAPE  H11A17139   5.117   1.778   6.810 -0.5618 -1.1413 -2.9994
  155SAPE  H11B17140   5.268   1.681   6.776  2.5671  1.3888 -1.0537
  155SAPE     P17141   5.384   1.913   6.622 -0.1735  0.2563 -0.2573
  155SAPE   O1317142   5.369   2.045   6.563 -0.1039  0.0429  0.8024
  155SAPE   O1417143   5.499   1.894   6.716  0.2130  0.1798  0.4542
  155SAPE   O1217144   5.252   1.878   6.699 -0.0347  0.2489 -0.0475
  155SAPE   O1117145   5.405   1.802   6.509 -0.1810 -0.2134 -0.2822
  155SAPE    C117146   5.295   1.750   6.432  0.1256 -0.1520  0.5757
  155SAPE    HA17147   5.246   1.660   6.474  0.0402 -0.9099 -1.0541
  155SAPE    HB17148   5.219   1.828   6.409  1.8862  1.6160  0.4228
  155SAPE    C217149   5.352   1.691   6.294 -0.0563 -0.3040 -0.1283
  155SAPE    HS17150   5.416   1.605   6.323  0.2418  0.5615  1.9409
  155SAPE   O2117151   5.425   1.798   6.231  0.1200  0.6018  0.3099
  155SAPE   C2117152   5.538   1.773   6.163  0.5992 -0.3149  0.1810
  155SAPE   O2217153   5.597   1.666   6.162  0.0490  0.2525  0.3892
  155SAPE   C2217154   5.579   1.905   6.091  0.0508  0.1532 -0.3279
  155SAPE   H2R17155   5.553   1.995   6.151  0.8993  0.8436 -0.9771
  155SAPE   H2S17156   5.690   1.904   6.085  0.0364  2.2484 -2.4393
  155SAPE    C317157   5.235   1.649   6.183  0.0798  0.2039 -0.0160
  155SAPE    HX17158   5.185   1.745   6.161  4.5098  2.4312 -1.6198
  155SAPE    HY17159   5.151   1.591   6.227  1.3607 -1.3779  0.4538
  155SAPE   O3117160   5.282   1.595   6.063  0.4448  0.3894  0.1399
  155SAPE   C3117161   5.285   1.462   6.075  0.8051  0.2046 -0.2394
  155SAPE   O3217162   5.244   1.397   6.172  0.2737 -0.2863 -0.7203
  155SAPE   C3217163   5.349   1.400   5.952  0.4505 -0.5983 -0.3305
  155SAPE   H2X17164   5.458   1.405   5.970  0.3960  0.6774 -0.2401
  155SAPE   H2Y17165   5.327   1.472   5.870 -0.2460  0.6585  0.9164
  155SAPE   C2317166   5.501   1.913   5.958 -0.1209 -0.4617  0.3808
  155SAPE   H3R17167   5.478   2.016   5.925  0.0166  0.7284  3.6591
  155SAPE   H3S17168   5.398   1.876   5.972  0.1051 -2.1140 -1.7765
  155SAPE   C2417169   5.584   1.852   5.844 -0.3352 -0.5113 -1.0457
  155SAPE   H4R17170   5.594   1.743   5.862 -0.6795 -0.7116 -2.0469
  155SAPE   H4S17171   5.686   1.895   5.856 -0.5592 -0.2864  0.2624
  155SAPE   C2517172   5.530   1.891   5.708  0.0774 -0.3783 -0.4563
  155SAPE   H5R17173   5.522   2.000   5.702  1.5842 -0.2088  0.0990
  155SAPE   C2617174   5.493   1.810   5.603 -0.5563  0.0223 -0.2250
  155SAPE   H6R17175   5.466   1.853   5.506 -0.8819  1.4950  0.4822
  155SAPE   C2717176   5.496   1.656   5.604  0.2326 -0.4567 -0.3677
  155SAPE   H7R17177   5.472   1.598   5.696 -0.9804 -1.0907 -1.0593
  155SAPE   H7S17178   5.593   1.614   5.570  1.2275  1.9339 -0.6312
  155SAPE   C2817179   5.388   1.613   5.507  0.0826 -0.4437 -0.1143
  155SAPE   H8R17180   5.295   1.578   5.554 -0.0380 -0.3473 -0.2779
  155SAPE   C2917181   5.390   1.615   5.376  0.0862 -0.4317 -0.1793
  155SAPE   H9R17182   5.291   1.605   5.328  0.7626 -1.0580 -1.5245
  155SAPE  C21017183   5.510   1.666   5.290  0.1971  0.3082  0.3020
  155SAPE  H10R17184   5.604   1.617   5.326 -0.7174 -1.5933  0.2356
  155SAPE  H10S17185   5.510   1.774   5.313 -1.4221  0.2008  0.9273
  155SAPE  C21117186   5.486   1.648   5.142 -0.4125 -0.5361 -0.2540
  155SAPE  H11R17187   5.379   1.659   5.117 -0.3112  2.5107  0.1863
  155SAPE  C21217188   5.580   1.634   5.047  0.2630  0.2145 -0.1795
  155SAPE  H12R17189   5.542   1.631   4.944  2.4847 -2.0693 -1.0263
  155SAPE  C21317190   5.724   1.633   5.054  0.1114 -0.6946 -0.2383
  155SAPE  H13R17191   5.755   1.527   5.052  1.3077 -0.4838  2.3495
  155SAPE  H13S17192   5.752   1.674   5.154  0.3618  2.7808 -1.5975
  155SAPE  C21417193   5.812   1.725   4.964 -0.2180 -0.3035 -0.7567
  155SAPE  H14R17194   5.806   1.830   4.998 -2.8172 -0.5737 -0.1559
  155SAPE  C21517195   5.870   1.692   4.847  0.4299  0.2585 -0.2452
  155SAPE  H15R17196   5.939   1.765   4.801 -0.9583  0.7968 -1.5835
  155SAPE  C21617197   5.865   1.555   4.779 -0.5406 -0.4549 -0.5017
  155SAPE  H16R17198   5.847   1.561   4.670 -1.6406 -1.0348 -0.3737
  155SAPE  H16S17199   5.784   1.492   4.822 -0.9992  1.4719  1.6992
  155SAPE  C21717200   5.999   1.474   4.775  0.0354  1.0481  0.5910
  155SAPE  H17R17201   5.968   1.369   4.755 -0.8306  0.9393  2.4025
  155SAPE  H17S17202   6.058   1.479   4.869 -0.2728 -0.6268  0.9034
  155SAPE  C21817203   6.096   1.510   4.659  0.0686  0.4841 -0.1293
  155SAPE  H18R17204   6.137   1.612   4.676 -1.3900  1.4476 -2.0071
  155SAPE  H18S17205   6.042   1.517   4.562 -0.1919  1.0194  0.0489
  155SAPE  C21917206   6.205   1.397   4.638  0.3032 -0.3976  1.1019
  155SAPE  H19R17207   6.240   1.420   4.535  0.0660  0.8083  1.2706
  155SAPE  H19S17208   6.156   1.297   4.631  2.8969 -1.7096  0.6211
  155SAPE  C22017209   6.322   1.392   4.741 -0.1515  0.5422  0.5779
  155SAPE  H20R17210   6.385   1.482   4.733 -0.1635  0.4215 -1.5198
  155SAPE  H20S17211   6.400   1.319   4.712  0.5700  0.7878  1.8695
  155SAPE  H20T17212   6.290   1.367   4.844 -2.2955 -1.5323 -0.4769
  155SAPE   C3317213   5.313   1.258   5.913  0.3826 -0.0546 -0.6574
  155SAPE   H3X17214   5.205   1.245   5.935  0.9971 -1.5355  2.0056
  155SAPE   H3Y17215   5.362   1.192   5.987 -1.2104 -1.4270 -0.7699
  155SAPE   C3417216   5.348   1.221   5.772 -0.6110 -0.5118  0.1240
  155SAPE   H4X17217   5.367   1.114   5.751  1.6189 -0.3299  0.9629
  155SAPE   H4Y17218   5.444   1.272   5.747  0.3120 -1.5204  1.4590
  155SAPE   C3517219   5.238   1.265   5.675 -0.0718 -0.3333  0.2887
  155SAPE   H5X17220   5.200   1.369   5.683 -0.6999 -0.3219 -2.1142
  155SAPE   H5Y17221   5.148   1.202   5.693  0.5213 -0.2283  4.8574
  155SAPE   C3617222   5.267   1.244   5.526 -0.5493  0.3368 -0.5566
  155SAPE   H6X17223   5.294   1.139   5.505  1.4011  1.0209 -1.7859
  155SAPE   H6Y17224   5.353   1.309   5.500  0.5027 -1.2722 -1.2141
  155SAPE   C3717225   5.147   1.286   5.431 -0.4514  0.0176 -0.5162
  155SAPE   H7X17226   5.137   1.396   5.422 -2.5196 -0.0824  0.0141
  155SAPE   H7Y17227   5.055   1.252   5.482 -0.0393  1.4264  1.2580
  155SAPE   C3817228   5.165   1.229   5.288  0.5772 -0.1890  0.1844
  155SAPE   H8X17229   5.080   1.263   5.224 -0.0933 -5.0355 -1.9730
  155SAPE   H8Y17230   5.155   1.118   5.293  0.1428 -0.3717 -2.8170
  155SAPE   C3917231   5.287   1.275   5.217  0.1247 -0.0594  0.1342
  155SAPE   H9X17232   5.375   1.229   5.267  1.9939  3.0048 -0.1288
  155SAPE   H9Y17233   5.294   1.384   5.200  0.0669  0.1204  1.2122
  155SAPE  C31017234   5.280   1.209   5.075 -0.0184  0.6134 -0.7792
  155SAPE  H10X17235   5.184   1.224   5.021  0.5960 -3.0985 -3.2845
  155SAPE  H10Y17236   5.282   1.098   5.081 -3.2578  0.2714 -3.2818
  155SAPE  C31117237   5.389   1.276   4.998  0.0866  0.5814  0.2661
  155SAPE  H11X17238   5.480   1.298   5.058 -0.0190 -0.9167  1.0183
  155SAPE  H11Y17239   5.355   1.366   4.943  0.3388 -0.3692 -1.5091
  155SAPE  C31217240   5.433   1.193   4.878 -0.1748 -0.3676 -0.2121
  155SAPE  H12X17241   5.354   1.146   4.816  0.8718 -0.1903 -1.7430
  155SAPE  H12Y17242   5.503   1.114   4.914  1.0072  0.2111 -1.1456
  155SAPE  C31317243   5.488   1.288   4.767 -0.0266 -0.3704 -0.1851
  155SAPE  H13X17244   5.562   1.356   4.814  1.4806 -0.8301 -1.7862
  155SAPE  H13Y17245   5.408   1.352   4.722 -0.4978 -0.7003  0.1809
  155SAPE  C31417246   5.563   1.219   4.653  0.6031  0.3505 -0.5051
  155SAPE  H14X17247   5.479   1.162   4.607  0.2687 -0.1038  0.6384
  155SAPE  H14Y17248   5.645   1.161   4.699 -0.3806  0.0635  0.9448
  155SAPE  C31517249   5.629   1.316   4.564 -0.6030 -0.2851  0.2406
  155SAPE  H15X17250   5.735   1.328   4.597 -0.1225 -1.6672 -0.6761
  155SAPE  H15Y17251   5.576   1.413   4.561 -2.9297 -1.4615  0.8350
  155SAPE  C31617252   5.639   1.275   4.418 -0.0572  0.5366 -0.6134
  155SAPE  H16X17253   5.670   1.359   4.352  0.4497 -0.1622 -1.2751
  155SAPE  H16Y17254   5.537   1.237   4.393  0.0037 -0.5591  0.6725
  155SAPE  C31717255   5.732   1.152   4.401 -0.1450 -0.2846 -0.0434
  155SAPE  H17X17256   5.713   1.064   4.466  1.1238  0.2380  1.0904
  155SAPE  H17Y17257   5.839   1.178   4.415  0.5668 -1.9221 -1.9128
  155SAPE  C31817258   5.718   1.095   4.261  0.1632  0.6352 -1.1829
  155SAPE  H18X17259   5.768   0.995   4.263 -0.3498  0.3536  1.9978
  155SAPE  H18Y17260   5.754   1.172   4.189  1.2614  2.0595  0.7995
  155SAPE  H18Z17261   5.609   1.073   4.254  0.1225 -0.3912  1.5177
  156SAPE     N17262   0.356   1.981   6.448 -0.1204  0.3786  0.6579
  156SAPE   HN117263   0.381   1.891   6.494  0.0590 -0.2169 -0.5733
  156SAPE   HN217264   0.355   2.059   6.517 -0.5617  0.3191  0.7209
  156SAPE   HN317265   0.260   1.965   6.412  0.5534  0.0168 -1.0985
  156SAPE   C1217266   0.438   2.016   6.332  0.5987 -0.2704 -0.5624
  156SAPE  H12A17267   0.425   1.940   6.251 -0.4624 -0.6282 -0.0729
  156SAPE  H12B17268   0.541   1.997   6.369  0.8661 -1.6017 -1.8638
  156SAPE   C1117269   0.422   2.161   6.285 -0.0863  0.4080  0.3192
  156SAPE  H11A17270   0.330   2.162   6.223  0.8531 -2.2761 -1.2488
  156SAPE  H11B17271   0.508   2.192   6.222 -1.0431 -0.2108 -1.3384
  156SAPE     P17272   0.476   2.390   6.423 -0.0368  0.3648  0.2119
  156SAPE   O1317273   0.365   2.471   6.480  0.4313 -0.1850 -0.5473
  156SAPE   O1417274   0.593   2.372   6.518 -0.1222 -0.1167  0.2685
  156SAPE   O1217275   0.411   2.253   6.395 -0.1378  0.4682 -0.0566
  156SAPE   O1117276   0.515   2.448   6.287 -0.1091  0.1030  0.4365
  156SAPE    C117277   0.426   2.508   6.192  0.2631  0.5043 -0.5542
  156SAPE    HA17278   0.317   2.491   6.209  0.0379  2.4552  0.1881
  156SAPE    HB17279   0.427   2.619   6.200 -0.1317  0.3934  1.8452
  156SAPE    C217280   0.477   2.477   6.047  0.3952 -0.3425  0.4788
  156SAPE    HS17281   0.448   2.553   5.971  1.2250 -1.2160 -0.7494
  156SAPE   O2117282   0.441   2.342   6.018 -0.1867  0.5809 -0.5167
  156SAPE   C2117283   0.316   2.323   5.984 -0.5448 -0.1827 -0.2990
  156SAPE   O2217284   0.230   2.407   5.990  0.0151  0.6872 -0.4988
  156SAPE   C2217285   0.290   2.181   5.925  0.4803  0.4396 -0.5783
  156SAPE   H2R17286   0.369   2.168   5.848  1.9404  0.0020  0.9328
  156SAPE   H2S17287   0.300   2.101   6.001 -2.5906 -1.2177 -1.7480
  156SAPE    C317288   0.636   2.470   6.042  0.4154  0.4177 -0.1155
  156SAPE    HX17289   0.667   2.387   6.109 -0.7355 -0.9431 -1.2010
  156SAPE    HY17290   0.675   2.568   6.077 -2.5878  2.0934 -1.0363
  156SAPE   O3117291   0.684   2.444   5.912  0.6972  0.3585  0.5105
  156SAPE   C3117292   0.813   2.407   5.920 -0.3980 -0.7105  0.3298
  156SAPE   O3217293   0.890   2.423   6.010  0.2029 -0.6237  0.0731
  156SAPE   C3217294   0.859   2.345   5.784  0.4851  0.3994 -0.5903
  156SAPE   H2X17295   0.903   2.430   5.729 -0.8316  1.1389 -0.5391
  156SAPE   H2Y17296   0.766   2.317   5.730 -1.1894  4.1806  0.0394
  156SAPE   C2317297   0.140   2.161   5.880  0.2306 -0.0066  0.3950
  156SAPE   H3R17298   0.068   2.201   5.955  0.7765  1.6909  0.0593
  156SAPE   H3S17299   0.136   2.052   5.860  3.2659  0.1499 -1.6454
  156SAPE   C2417300   0.123   2.244   5.749 -0.2804  0.6448  0.1626
  156SAPE   H4R17301   0.195   2.194   5.681 -0.8639 -0.2008  0.1479
  156SAPE   H4S17302   0.145   2.353   5.761  0.5224  0.3028  2.0382
  156SAPE   C2517303  -0.018   2.226   5.701  0.5153 -0.5572 -0.0531
  156SAPE   H5R17304  -0.087   2.273   5.773  0.8125  2.7281 -1.6918
  156SAPE   C2617305  -0.055   2.186   5.579 -0.1645  0.6329 -0.1673
  156SAPE   H6R17306  -0.160   2.173   5.551  0.9117 -0.4212 -4.4685
  156SAPE   C2717307   0.040   2.131   5.483  0.1229  0.3742  0.0326
  156SAPE   H7R17308   0.006   2.027   5.463  3.3217 -1.0680  1.5075
  156SAPE   H7S17309   0.141   2.108   5.522 -0.1293 -0.2228  0.3441
  156SAPE   C2817310   0.042   2.215   5.359 -0.5254 -0.3454  0.3914
  156SAPE   H8R17311   0.067   2.320   5.380  0.4564 -0.4181 -0.3304
  156SAPE   C2917312   0.017   2.187   5.227 -0.6122  1.1053 -0.4003
  156SAPE   H9R17313   0.018   2.274   5.159  1.5825  1.6172  0.1832
  156SAPE  C21017314  -0.002   2.047   5.170 -0.1986  0.2790  0.1573
  156SAPE  H10R17315  -0.085   2.059   5.097 -1.4182  1.1091  1.6091
  156SAPE  H10S17316  -0.046   1.978   5.245  1.3450 -1.0761 -0.1432
  156SAPE  C21117317   0.117   1.984   5.111 -0.5287  0.6605 -0.0178
  156SAPE  H11R17318   0.196   1.974   5.186 -0.1835  1.3503 -0.2788
  156SAPE  C21217319   0.126   1.941   4.983  0.2795  0.4866  0.1437
  156SAPE  H12R17320   0.210   1.877   4.950  1.1408  2.0383 -0.8108
  156SAPE  C21317321   0.022   1.949   4.873  0.2303 -0.1945  0.5828
  156SAPE  H13R17322  -0.006   2.054   4.847  0.4282 -0.4250 -0.6050
  156SAPE  H13S17323  -0.069   1.905   4.918 -1.8448  2.0509 -1.1608
  156SAPE  C21417324   0.056   1.888   4.742  0.6442 -0.0049  0.1183
  156SAPE  H14R17325   0.095   1.954   4.663 -1.3442 -1.3191 -2.0737
  156SAPE  C21517326   0.005   1.773   4.681  0.0477  0.4645  0.2839
  156SAPE  H15R17327   0.040   1.743   4.582  2.0982  1.8904  0.4944
  156SAPE  C21617328  -0.092   1.681   4.750 -0.2090  0.1931 -0.1061
  156SAPE  H16R17329  -0.163   1.639   4.675  0.5353 -1.0637 -0.1275
  156SAPE  H16S17330  -0.152   1.726   4.832 -1.6154 -1.6745 -0.0383
  156SAPE  C21717331  -0.021   1.561   4.820 -0.5652 -0.6696  0.0503
  156SAPE  H17R17332   0.032   1.589   4.914 -1.5166 -1.1835  0.7555
  156SAPE  H17S17333   0.052   1.518   4.748 -1.3754 -1.9532 -0.0352
  156SAPE  C21817334  -0.116   1.453   4.881  0.2551  0.5882 -0.6494
  156SAPE  H18R17335  -0.165   1.402   4.795 -0.6328  2.5378 -1.3556
  156SAPE  H18S17336  -0.193   1.511   4.937  0.9521  2.9901 -2.0492
  156SAPE  C21917337  -0.065   1.356   4.981  0.3994 -0.6067  0.1562
  156SAPE  H19R17338  -0.044   1.408   5.077 -0.9256  3.4594 -1.5705
  156SAPE  H19S17339   0.028   1.319   4.933  0.0580 -1.0397 -0.1830
  156SAPE  C22017340  -0.160   1.237   5.001  0.9734  0.2343 -0.0815
  156SAPE  H20R17341  -0.130   1.156   5.072 -1.2439 -0.5464  0.0277
  156SAPE  H20S17342  -0.158   1.191   4.900 -0.2977  1.0692 -0.4995
  156SAPE  H20T17343  -0.260   1.267   5.038  1.2197  1.2152 -0.1953
  156SAPE   C3317344   0.954   2.231   5.803 -0.1324  0.4592 -0.2571
  156SAPE   H3X17345   0.935   2.157   5.884 -1.1008 -0.2557 -1.1062
  156SAPE   H3Y17346   1.037   2.280   5.859  1.6593 -2.9409  0.3613
  156SAPE   C3417347   1.001   2.171   5.667  1.0277  0.2711 -0.3969
  156SAPE   H4X17348   1.080   2.093   5.674  1.3177  0.4771 -1.3261
  156SAPE   H4Y17349   1.040   2.260   5.614  0.1947  0.6909 -0.3307
  156SAPE   C3517350   0.885   2.110   5.582  0.4791  0.0881  1.0361
  156SAPE   H5X17351   0.798   2.178   5.567  0.3166 -0.2759  0.2613
  156SAPE   H5Y17352   0.845   2.028   5.645  0.4099 -0.6900  0.0126
  156SAPE   C3617353   0.931   2.060   5.445 -0.5001  0.3784  0.0332
  156SAPE   H6X17354   0.852   2.002   5.393 -2.2297  3.3185 -0.8495
  156SAPE   H6Y17355   1.020   1.995   5.458 -1.3607 -0.8817 -0.2190
  156SAPE   C3717356   0.968   2.174   5.342  0.3744 -0.4002 -0.2994
  156SAPE   H7X17357   1.048   2.238   5.385  0.2429 -1.5490  1.7798
  156SAPE   H7Y17358   0.879   2.240   5.338  3.1704  3.6527 -2.5068
  156SAPE   C3817359   1.002   2.128   5.200  0.7511 -1.3322  0.3245
  156SAPE   H8X17360   1.037   2.023   5.208  1.0944 -1.1713  1.0851
  156SAPE   H8Y17361   1.087   2.183   5.155  0.4336 -0.3435  0.8855
  156SAPE   C3917362   0.891   2.141   5.104 -0.9340  0.3144 -0.2049
  156SAPE   H9X17363   0.882   2.251   5.085 -1.1071  0.7590  2.1607
  156SAPE   H9Y17364   0.793   2.115   5.149 -1.1095  1.4352  0.1043
  156SAPE  C31017365   0.931   2.063   4.975 -0.7048 -0.0412 -0.4220
  156SAPE  H10X17366   0.950   1.955   4.992  1.2978  0.6429  2.5212
  156SAPE  H10Y17367   1.031   2.106   4.954 -0.1466 -1.5609 -1.0039
  156SAPE  C31117368   0.837   2.072   4.851  0.4156  0.4086 -1.0372
  156SAPE  H11X17369   0.733   2.040   4.874 -0.0720  2.0263 -0.8170
  156SAPE  H11Y17370   0.885   1.998   4.785  1.1096 -0.0099 -0.0834
  156SAPE  C31217371   0.822   2.212   4.804  0.7709 -0.1276  0.1759
  156SAPE  H12X17372   0.921   2.259   4.789  1.0537 -0.6473  0.4133
  156SAPE  H12Y17373   0.781   2.279   4.882  0.2426  1.2047 -1.1780
  156SAPE  C31317374   0.729   2.236   4.680 -0.2617 -0.2508  0.0778
  156SAPE  H13X17375   0.735   2.342   4.650 -0.9434 -0.3454 -0.4073
  156SAPE  H13Y17376   0.627   2.202   4.710 -1.0770  2.6023  0.8260
  156SAPE  C31417377   0.773   2.148   4.566  0.6943  0.0927 -0.7655
  156SAPE  H14X17378   0.731   2.048   4.590  3.3735 -0.5196  1.8817
  156SAPE  H14Y17379   0.884   2.148   4.567  0.7486 -2.3782  0.7092
  156SAPE  C31517380   0.719   2.200   4.430  0.0143 -0.2092  0.5388
  156SAPE  H15X17381   0.624   2.252   4.458  0.6522  1.0750  0.3809
  156SAPE  H15Y17382   0.693   2.114   4.365 -0.2139  1.4493 -1.7077
  156SAPE  C31617383   0.811   2.303   4.366  0.4386  0.0359 -0.6387
  156SAPE  H16X17384   0.914   2.261   4.368  0.4932  0.1388  1.5537
  156SAPE  H16Y17385   0.798   2.394   4.427 -0.5691 -1.5387  1.6386
  156SAPE  C31717386   0.765   2.340   4.224 -0.4856  0.3070 -0.9672
  156SAPE  H17X17387   0.824   2.429   4.193  1.5218 -1.3799 -2.2387
  156SAPE  H17Y17388   0.656   2.363   4.224 -1.2534 -2.8325 -1.9652
  156SAPE  C31817389   0.784   2.233   4.112  0.6191  0.6527  0.1395
  156SAPE  H18X17390   0.754   2.133   4.151 -0.4440  0.4155 -1.2401
  156SAPE  H18Y17391   0.888   2.227   4.071  1.2090 -0.6108  1.7063
  156SAPE  H18Z17392   0.714   2.265   4.032  0.2109  3.3602  1.4809
  157SAPE     N17393   5.613   0.103   6.547  0.0293  0.3798  0.4202
  157SAPE   HN117394   5.538   0.173   6.530  0.4469  0.6439 -0.4476
  157SAPE   HN217395   5.565   0.010   6.543 -2.2202  1.4880 -0.1949
  157SAPE   HN317396   5.669   0.114   6.633 -0.0835 -0.8158  0.6642
  157SAPE   C1217397   5.699   0.111   6.422  0.5566  0.8051  0.7188
  157SAPE  H12A17398   5.640   0.158   6.341  0.6736 -1.7538 -0.9547
  157SAPE  H12B17399   5.730   0.012   6.384 -1.1703 -0.0050  1.3067
  157SAPE   C1117400   5.826   0.190   6.446 -0.6253 -0.7727  0.1306
  157SAPE  H11A17401   5.813   0.298   6.425 -0.9210 -0.3032  2.3935
  157SAPE  H11B17402   5.897   0.147   6.372 -0.6390 -0.4890 -0.0478
  157SAPE     P17403   5.960   0.063   6.636  0.0763 -0.1434  0.3275
  157SAPE   O1317404   6.079   0.122   6.701 -0.5543  0.7190  0.0970
  157SAPE   O1417405   5.866  -0.019   6.717  0.1303  0.8690  0.5196
  157SAPE   O1217406   5.884   0.186   6.576  0.5565  0.3562 -0.3507
  157SAPE   O1117407   5.996  -0.032   6.508 -0.2668 -0.0375  0.1076
  157SAPE    C117408   6.128  -0.048   6.459 -0.2604  0.2373 -0.1284
  157SAPE    HA17409   6.197  -0.005   6.534 -1.2175 -1.0575  1.5583
  157SAPE    HB17410   6.141  -0.158   6.447  0.2659  0.0501  1.9011
  157SAPE    C217411   6.165   0.015   6.319  0.2358  0.5029  0.0545
  157SAPE    HS17412   6.273  -0.008   6.309 -0.8205 -6.0503 -0.4621
  157SAPE   O2117413   6.123   0.156   6.306 -0.0312 -0.3249  1.2183
  157SAPE   C2117414   6.214   0.253   6.313 -0.1425 -0.3072 -0.0685
  157SAPE   O2217415   6.334   0.237   6.329  0.1204 -0.7892 -0.0142
  157SAPE   C2217416   6.143   0.389   6.308  0.1934  0.0073  0.6812
  157SAPE   H2R17417   6.061   0.390   6.382  1.0568 -1.7052  1.7127
  157SAPE   H2S17418   6.215   0.461   6.352  0.5623 -0.7071  1.2648
  157SAPE    C317419   6.101  -0.066   6.201 -0.2873  0.2375  0.3966
  157SAPE    HX17420   5.996  -0.030   6.203  0.4207  2.4189  0.5956
  157SAPE    HY17421   6.107  -0.177   6.203  3.2517  0.2927 -0.0923
  157SAPE   O3117422   6.178  -0.042   6.081 -0.3261  0.3755 -0.4233
  157SAPE   C3117423   6.128   0.050   5.996  0.6070 -0.0730  0.5767
  157SAPE   O3217424   6.021   0.101   6.007  0.0786  0.4427  0.1639
  157SAPE   C3217425   6.230   0.084   5.877  0.3302 -0.2422  0.1087
  157SAPE   H2X17426   6.330   0.059   5.919  0.8033  2.1759  0.6161
  157SAPE   H2Y17427   6.210   0.193   5.867  2.6286  0.2448  0.3141
  157SAPE   C2317428   6.098   0.411   6.158 -0.4659 -0.0688  0.1450
  157SAPE   H3R17429   6.041   0.507   6.160  0.3685  0.4201  0.9019
  157SAPE   H3S17430   6.027   0.331   6.129  0.5530 -1.4000  1.2230
  157SAPE   C2417431   6.213   0.430   6.055  0.1998 -0.1304  0.1121
  157SAPE   H4R17432   6.178   0.456   5.952  1.8142  0.1454 -0.3852
  157SAPE   H4S17433   6.279   0.340   6.058 -1.3585 -1.4522 -1.9224
  157SAPE   C2517434   6.304   0.541   6.095  0.1434 -0.4695  0.5752
  157SAPE   H5R17435   6.260   0.599   6.178  0.3000 -0.5246  0.6978
  157SAPE   C2617436   6.417   0.588   6.031  0.1951  0.2789 -0.0489
  157SAPE   H6R17437   6.461   0.682   6.068  0.0785 -0.2025  1.3772
  157SAPE   C2717438   6.477   0.527   5.903 -0.4574  0.1868  0.0475
  157SAPE   H7R17439   6.419   0.555   5.813  2.0796  2.6546 -0.9453
  157SAPE   H7S17440   6.465   0.416   5.906  2.7426 -0.2937 -1.0182
  157SAPE   C2817441   6.623   0.569   5.874  0.4691 -0.4449 -0.3288
  157SAPE   H8R17442   6.687   0.524   5.951 -1.6055  0.2141  1.8956
  157SAPE   C2917443   6.671   0.634   5.760  0.7927 -0.0472 -0.7734
  157SAPE   H9R17444   6.779   0.647   5.744  1.2479 -0.2779  1.7164
  157SAPE  C21017445   6.582   0.680   5.650 -0.6796  0.3274 -0.2622
  157SAPE  H10R17446   6.635   0.760   5.595 -0.0105  0.0901  0.0248
  157SAPE  H10S17447   6.496   0.739   5.688 -0.6139 -0.0875  0.5550
  157SAPE  C21117448   6.528   0.597   5.539  0.3316  0.3961  1.1424
  157SAPE  H11R17449   6.425   0.565   5.561 -0.1768  1.3663  0.2757
  157SAPE  C21217450   6.593   0.536   5.438  0.2169 -0.6025 -1.0284
  157SAPE  H12R17451   6.534   0.482   5.362 -1.0604  0.2648 -0.6813
  157SAPE  C21317452   6.734   0.562   5.408 -0.1853 -0.6005 -0.5895
  157SAPE  H13R17453   6.763   0.659   5.453 -0.2718 -2.0381  2.8743
  157SAPE  H13S17454   6.740   0.572   5.298 -0.3323 -1.9321 -0.7406
  157SAPE  C21417455   6.839   0.457   5.429 -0.5780  0.2269  0.0959
  157SAPE  H14R17456   6.807   0.374   5.493  0.3788 -3.1195 -3.4156
  157SAPE  C21517457   6.961   0.442   5.379 -0.6078  1.1500  0.7597
  157SAPE  H15R17458   7.004   0.341   5.379 -0.0652  1.3686 -0.4298
  157SAPE  C21617459   7.018   0.533   5.276 -0.1557 -0.8309  0.0643
  157SAPE  H16R17460   7.102   0.584   5.327 -0.5382 -1.3205  1.2068
  157SAPE  H16S17461   6.946   0.614   5.251 -2.2426 -2.6986 -0.2382
  157SAPE  C21717462   7.067   0.466   5.149 -0.0504 -0.1859 -0.4682
  157SAPE  H17R17463   7.117   0.371   5.178  2.8500  1.2901 -0.3340
  157SAPE  H17S17464   7.147   0.525   5.100 -0.2756  0.6604  0.1587
  157SAPE  C21817465   6.964   0.417   5.047 -0.1024 -0.4024 -0.1032
  157SAPE  H18R17466   6.895   0.501   5.023 -0.6750 -0.3002  1.7558
  157SAPE  H18S17467   6.899   0.345   5.101  0.4624  0.0550  1.2263
  157SAPE  C21917468   7.015   0.358   4.910 -0.1341  0.1767  0.3555
  157SAPE  H19R17469   7.077   0.271   4.939 -1.2021 -0.7503 -0.0612
  157SAPE  H19S17470   7.076   0.430   4.852  0.9458 -0.5107  0.6156
  157SAPE  C22017471   6.910   0.310   4.817  0.3142  0.4394  0.1044
  157SAPE  H20R17472   6.829   0.265   4.879 -0.0232  0.7468 -0.1059
  157SAPE  H20S17473   6.953   0.234   4.748 -0.7810 -0.4905  0.4130
  157SAPE  H20T17474   6.874   0.387   4.745  0.7841  1.6114  1.1102
  157SAPE   C3317475   6.206   0.024   5.741 -0.4447 -0.1338  0.7958
  157SAPE   H3X17476   6.246   0.097   5.667  0.0161 -1.7395 -0.5915
  157SAPE   H3Y17477   6.100   0.006   5.715  0.3353  0.4376 -3.5982
  157SAPE   C3417478   6.286  -0.105   5.703  0.1076  0.0258 -0.1136
  157SAPE   H4X17479   6.272  -0.174   5.789  0.0319 -0.2331 -0.3314
  157SAPE   H4Y17480   6.393  -0.080   5.690  0.2111  0.8273  1.8648
  157SAPE   C3517481   6.222  -0.172   5.574  0.1829  0.0247  0.2419
  157SAPE   H5X17482   6.124  -0.211   5.608 -0.1609  0.5399 -0.1404
  157SAPE   H5Y17483   6.281  -0.265   5.558  0.7509 -0.0190  2.3006
  157SAPE   C3617484   6.221  -0.079   5.456  0.5890  0.6002 -0.4366
  157SAPE   H6X17485   6.324  -0.039   5.452  0.5986  1.5307  4.2147
  157SAPE   H6Y17486   6.153   0.007   5.474 -0.7603 -0.7972  1.5243
  157SAPE   C3717487   6.176  -0.148   5.329 -0.6354  0.0586  0.2647
  157SAPE   H7X17488   6.068  -0.172   5.344 -0.7743  0.7718  0.4413
  157SAPE   H7Y17489   6.233  -0.242   5.341 -0.0737  0.2668 -0.6724
  157SAPE   C3817490   6.207  -0.076   5.204  0.4950 -0.3933 -0.0867
  157SAPE   H8X17491   6.315  -0.050   5.199  0.0318  1.7711  0.3943
  157SAPE   H8Y17492   6.160   0.023   5.221 -0.8112 -1.1089  0.6628
  157SAPE   C3917493   6.150  -0.142   5.079  0.2490  0.1123  0.2311
  157SAPE   H9X17494   6.039  -0.147   5.080  0.2594 -1.5422  2.7565
  157SAPE   H9Y17495   6.173  -0.251   5.082 -2.8634 -0.6564 -0.5919
  157SAPE  C31017496   6.192  -0.068   4.960  0.4235 -0.2485  0.1344
  157SAPE  H10X17497   6.302  -0.081   4.952  0.9150  1.1625  3.2030
  157SAPE  H10Y17498   6.181   0.042   4.965  2.3131  0.0444 -0.9498
  157SAPE  C31117499   6.136  -0.131   4.828  0.6684  0.1308 -0.4403
  157SAPE  H11X17500   6.026  -0.119   4.824  0.7888  1.4032 -0.1571
  157SAPE  H11Y17501   6.167  -0.238   4.834 -1.3908 -0.5950 -1.6779
  157SAPE  C31217502   6.197  -0.062   4.705 -0.0536  0.4552  0.5102
  157SAPE  H12X17503   6.181  -0.113   4.608  1.6171 -0.6606  0.7888
  157SAPE  H12Y17504   6.307  -0.063   4.721 -0.1381 -0.4416  1.1204
  157SAPE  C31317505   6.154   0.085   4.696  0.2093 -0.0304  0.0700
  157SAPE  H13X17506   6.200   0.128   4.787  0.1601 -1.0437  0.5929
  157SAPE  H13Y17507   6.044   0.088   4.708  0.0907 -1.5505 -0.4483
  157SAPE  C31417508   6.198   0.162   4.568 -0.7060  0.5881 -0.9702
  157SAPE  H14X17509   6.180   0.270   4.583 -1.2055  0.4617 -0.6247
  157SAPE  H14Y17510   6.141   0.134   4.477 -2.0644 -0.3547  0.1316
  157SAPE  C31517511   6.345   0.139   4.537 -0.6456  0.1461  0.0166
  157SAPE  H15X17512   6.365   0.032   4.514 -1.8478 -0.0370 -0.2369
  157SAPE  H15Y17513   6.400   0.161   4.631 -0.4623  0.4496 -0.1622
  157SAPE  C31617514   6.405   0.237   4.428 -0.0782  0.2915  0.2379
  157SAPE  H16X17515   6.400   0.334   4.482  0.3149 -0.1626  1.1301
  157SAPE  H16Y17516   6.333   0.241   4.345  0.6016 -1.7967 -0.5219
  157SAPE  C31717517   6.550   0.210   4.380 -0.4584 -0.0951  0.4918
  157SAPE  H17X17518   6.541   0.116   4.322  1.0108 -0.4891  0.8637
  157SAPE  H17Y17519   6.615   0.199   4.470 -3.3518 -0.1561  2.7430
  157SAPE  C31817520   6.603   0.321   4.279  0.6194  0.3534 -0.5551
  157SAPE  H18X17521   6.523   0.335   4.203  1.2453 -0.6162 -1.4194
  157SAPE  H18Y17522   6.702   0.294   4.236 -0.6155 -1.7380 -2.2743
  157SAPE  H18Z17523   6.610   0.410   4.345  1.0533  0.5241 -0.8256
  158SAPE     N17524   3.152   5.848   6.942 -0.4104 -0.1208 -0.4550
  158SAPE   HN117525   3.177   5.776   7.012 -1.3228 -0.7422 -0.7524
  158SAPE   HN217526   3.229   5.869   6.874 -0.8070 -0.3397 -0.9759
  158SAPE   HN317527   3.132   5.933   6.998 -2.3676 -0.2165 -0.9478
  158SAPE   C1217528   3.021   5.838   6.871 -0.4649  0.0030 -0.0341
  158SAPE  H12A17529   3.016   5.914   6.790 -1.2182 -0.2002 -0.1872
  158SAPE  H12B17530   2.940   5.863   6.943  0.6479 -0.0198  1.2744
  158SAPE   C1117531   2.995   5.704   6.801 -0.0724 -0.4468 -0.6837
  158SAPE  H11A17532   2.991   5.630   6.884  0.0147  0.3718  0.0608
  158SAPE  H11B17533   3.086   5.685   6.741  0.7556  1.9215 -0.2868
  158SAPE     P17534   2.736   5.693   6.816  0.4948 -0.2050 -0.3536
  158SAPE   O1317535   2.734   5.564   6.885 -0.0111 -0.2665 -0.6128
  158SAPE   O1417536   2.706   5.809   6.898  0.5711  0.2688 -0.0275
  158SAPE   O1217537   2.873   5.703   6.733 -0.5815 -0.2923 -0.1105
  158SAPE   O1117538   2.622   5.694   6.703  0.0281  0.1710  0.5333
  158SAPE    C117539   2.659   5.623   6.579  0.4266  0.0107  0.4596
  158SAPE    HA17540   2.747   5.671   6.531  0.2219 -0.6781 -0.6446
  158SAPE    HB17541   2.680   5.516   6.602 -2.2555 -0.7455 -0.1502
  158SAPE    C217542   2.538   5.614   6.485  0.2486 -0.4402  0.2562
  158SAPE    HS17543   2.563   5.546   6.401  0.5405  0.4760 -0.4222
  158SAPE   O2117544   2.486   5.745   6.435 -0.5120 -0.2445 -0.2963
  158SAPE   C2117545   2.510   5.767   6.309 -0.2025  0.0924  0.5184
  158SAPE   O2217546   2.582   5.700   6.235  0.1108  0.3795 -0.5957
  158SAPE   C2217547   2.411   5.874   6.267 -0.3963  0.1796  0.0558
  158SAPE   H2R17548   2.314   5.849   6.315  0.5487 -2.2376  0.8604
  158SAPE   H2S17549   2.462   5.966   6.300  1.3003 -0.5278 -0.5047
  158SAPE    C317550   2.414   5.553   6.555 -0.1673 -0.3426 -0.6946
  158SAPE    HX17551   2.389   5.619   6.641  1.1890  0.6914 -1.0649
  158SAPE    HY17552   2.439   5.457   6.603 -1.5954 -0.8111 -0.8333
  158SAPE   O3117553   2.301   5.551   6.469 -0.0876 -0.3568 -0.4112
  158SAPE   C3117554   2.274   5.429   6.414  0.2710  1.1208 -0.6835
  158SAPE   O3217555   2.345   5.330   6.427 -0.0220  0.4287  0.0568
  158SAPE   C3217556   2.141   5.431   6.343  0.0017 -0.0243  0.2907
  158SAPE   H2X17557   2.092   5.531   6.340  2.4462  1.2337 -0.8470
  158SAPE   H2Y17558   2.065   5.379   6.406 -1.5154  1.4722 -0.2019
  158SAPE   C2317559   2.389   5.891   6.111  0.0425 -0.5965 -0.3646
  158SAPE   H3R17560   2.368   5.791   6.067  0.0241 -0.5775 -0.3988
  158SAPE   H3S17561   2.472   5.927   6.047  0.1955  0.2737  0.3072
  158SAPE   C2417562   2.274   5.988   6.067 -0.7772 -0.2331  0.2158
  158SAPE   H4R17563   2.294   5.976   5.959 -1.0338 -0.7186  0.2182
  158SAPE   H4S17564   2.286   6.096   6.087  0.8607 -0.2399 -0.5821
  158SAPE   C2517565   2.130   5.940   6.098  0.2115  0.1873  0.3076
  158SAPE   H5R17566   2.078   5.968   6.191  1.8153 -2.7630  2.2532
  158SAPE   C2617567   2.062   5.855   6.019  0.4917 -0.5242 -0.6335
  158SAPE   H6R17568   1.969   5.822   6.068  2.0818 -3.6321  0.6286
  158SAPE   C2717569   2.105   5.786   5.897 -0.3779  0.5497 -0.7423
  158SAPE   H7R17570   2.096   5.675   5.907 -1.7129  0.7532  0.6982
  158SAPE   H7S17571   2.213   5.793   5.874  0.2077  0.4570  1.7848
  158SAPE   C2817572   2.026   5.827   5.777  0.7295  0.1369  0.3855
  158SAPE   H8R17573   1.918   5.838   5.795  0.4927 -2.8018  1.2846
  158SAPE   C2917574   2.079   5.851   5.655  0.2080 -0.0130  0.0353
  158SAPE   H9R17575   2.015   5.883   5.572 -0.0187  2.0047  0.9251
  158SAPE  C21017576   2.226   5.840   5.609 -0.2646 -0.3684 -0.8765
  158SAPE  H10R17577   2.222   5.791   5.509  1.5352 -1.5334 -0.4205
  158SAPE  H10S17578   2.279   5.764   5.670  0.4685  0.4718 -0.4499
  158SAPE  C21117579   2.313   5.959   5.620  0.4062 -0.1216 -0.1493
  158SAPE  H11R17580   2.347   5.989   5.720 -1.2289  1.6413 -0.0812
  158SAPE  C21217581   2.348   6.029   5.513 -0.2419  0.6586  1.0749
  158SAPE  H12R17582   2.412   6.116   5.533 -1.3781  1.4928  1.2086
  158SAPE  C21317583   2.311   5.990   5.368  0.1917  0.6464 -0.8788
  158SAPE  H13R17584   2.200   5.979   5.368  0.2380 -1.6742  2.9226
  158SAPE  H13S17585   2.342   5.888   5.339 -0.2029 -0.0388  0.9881
  158SAPE  C21417586   2.364   6.096   5.268  1.0478  0.1139 -0.2166
  158SAPE  H14R17587   2.426   6.178   5.308  2.4798 -0.9845 -0.1156
  158SAPE  C21517588   2.339   6.091   5.135 -0.1897  0.5400  0.1579
  158SAPE  H15R17589   2.390   6.169   5.077  2.8343 -0.2944  1.5496
  158SAPE  C21617590   2.265   5.984   5.058  0.0785  0.1933 -0.5357
  158SAPE  H16R17591   2.251   5.896   5.124 -1.1409  1.4947  1.0348
  158SAPE  H16S17592   2.317   5.953   4.965  1.4872  1.3489 -0.1686
  158SAPE  C21717593   2.131   6.042   5.032 -0.4563 -0.7506  0.2871
  158SAPE  H17R17594   2.080   6.082   5.123 -1.5661 -0.8025 -0.2945
  158SAPE  H17S17595   2.074   5.957   4.988 -1.4717 -0.3327  0.7612
  158SAPE  C21817596   2.120   6.150   4.926  0.0816 -0.3590 -0.0628
  158SAPE  H18R17597   2.182   6.123   4.838  0.4191  0.3937 -0.0641
  158SAPE  H18S17598   2.170   6.240   4.968  2.9069 -0.0850 -3.5561
  158SAPE  C21917599   1.978   6.171   4.879  0.7311 -0.2714 -0.5155
  158SAPE  H19R17600   1.917   6.171   4.972  0.6466  0.2756 -0.5654
  158SAPE  H19S17601   1.956   6.095   4.801 -1.2807  1.5956 -1.8779
  158SAPE  C22017602   1.955   6.310   4.819 -0.6538  0.6438 -0.3349
  158SAPE  H20R17603   1.984   6.391   4.889  0.9778  0.2324 -0.4790
  158SAPE  H20S17604   1.846   6.321   4.800 -0.6370  0.3869 -0.5904
  158SAPE  H20T17605   2.007   6.324   4.722 -1.0026  1.0097 -0.4668
  158SAPE   C3317606   2.158   5.366   6.206 -0.6454  0.2087 -0.1199
  158SAPE   H3X17607   2.057   5.374   6.161  0.0510  2.7965 -1.4498
  158SAPE   H3Y17608   2.192   5.261   6.200  0.1000  0.5166 -1.8529
  158SAPE   C3417609   2.257   5.447   6.110 -0.1233 -0.3551 -0.2792
  158SAPE   H4X17610   2.361   5.433   6.146 -0.7914 -1.4615  1.3235
  158SAPE   H4Y17611   2.236   5.555   6.118  2.1516  0.0227  1.9452
  158SAPE   C3517612   2.237   5.394   5.969 -0.4069  0.3317 -0.1286
  158SAPE   H5X17613   2.133   5.416   5.939 -0.2051  3.7380  1.3095
  158SAPE   H5Y17614   2.237   5.282   5.966 -0.3029  0.3038  0.7088
  158SAPE   C3617615   2.340   5.448   5.871 -0.3597 -0.8001 -0.0810
  158SAPE   H6X17616   2.443   5.416   5.898 -0.8916 -1.8400  0.8272
  158SAPE   H6Y17617   2.334   5.559   5.860 -3.6348 -0.9575 -0.9112
  158SAPE   C3717618   2.308   5.387   5.728 -0.3388  0.1562 -0.0444
  158SAPE   H7X17619   2.199   5.404   5.713 -0.1957  1.0584 -0.0875
  158SAPE   H7Y17620   2.321   5.277   5.721 -0.3093  0.2428 -1.8621
  158SAPE   C3817621   2.383   5.455   5.613  0.3230 -0.2115  0.4589
  158SAPE   H8X17622   2.479   5.400   5.620  0.6297  0.4351  1.5940
  158SAPE   H8Y17623   2.394   5.565   5.628 -0.2876  0.0672 -0.9680
  158SAPE   C3917624   2.308   5.425   5.478  0.6118  0.9621  0.6654
  158SAPE   H9X17625   2.208   5.472   5.484  0.4590  0.6224  0.7685
  158SAPE   H9Y17626   2.291   5.317   5.459  2.9759  0.6569 -0.1132
  158SAPE  C31017627   2.380   5.484   5.359 -0.1699  0.0182  0.3230
  158SAPE  H10X17628   2.484   5.450   5.346 -0.3571 -0.9158  1.1580
  158SAPE  H10Y17629   2.397   5.594   5.367  2.8284 -0.2823 -0.6959
  158SAPE  C31117630   2.301   5.476   5.230 -0.4543 -0.1171 -0.4486
  158SAPE  H11X17631   2.195   5.494   5.256 -0.7763  0.4636 -2.0519
  158SAPE  H11Y17632   2.319   5.367   5.220  1.1721 -0.0642  1.2495
  158SAPE  C31217633   2.355   5.564   5.116  0.1906  0.1254 -0.9068
  158SAPE  H12X17634   2.466   5.551   5.113  0.2370  0.5244 -0.9516
  158SAPE  H12Y17635   2.345   5.670   5.147 -0.0954 -0.6648  2.0042
  158SAPE  C31317636   2.297   5.552   4.977 -0.1059 -0.7294  1.0755
  158SAPE  H13X17637   2.188   5.568   4.994  0.1817  1.6308  1.0435
  158SAPE  H13Y17638   2.307   5.451   4.931  0.3955 -0.3486  0.3353
  158SAPE  C31417639   2.366   5.655   4.879 -0.0991  0.0319  0.7062
  158SAPE  H14X17640   2.473   5.624   4.870 -0.2675 -0.3399 -0.0492
  158SAPE  H14Y17641   2.361   5.758   4.920 -0.7080  0.3739 -0.2145
  158SAPE  C31517642   2.298   5.669   4.741 -0.3384 -0.5654 -0.0186
  158SAPE  H15X17643   2.190   5.646   4.757 -0.5361 -0.6948 -1.4053
  158SAPE  H15Y17644   2.330   5.584   4.676  0.8959 -0.5150  0.5014
  158SAPE  C31617645   2.314   5.813   4.685 -0.8299  0.2422  0.2304
  158SAPE  H16X17646   2.421   5.843   4.681 -1.1068  1.2219  0.0382
  158SAPE  H16Y17647   2.265   5.880   4.759 -0.1935  0.0474  0.8501
  158SAPE  C31717648   2.238   5.828   4.555  0.1926  0.1359  0.3387
  158SAPE  H17X17649   2.217   5.935   4.533 -1.8448 -0.3871 -0.5336
  158SAPE  H17Y17650   2.139   5.777   4.556  1.1886 -1.9029  1.7510
  158SAPE  C31817651   2.315   5.772   4.431  0.5273 -0.0531  0.5882
  158SAPE  H18X17652   2.409   5.827   4.412  0.3267 -0.5334 -2.2629
  158SAPE  H18Y17653   2.249   5.758   4.343 -0.1643  0.7976  0.9515
  158SAPE  H18Z17654   2.340   5.667   4.455  1.3432 -0.1476 -0.6484
  159SAPE     N17655   5.492   3.856   2.057  0.5604  0.2572 -0.0043
  159SAPE   HN117656   5.499   3.919   2.140 -1.0357 -0.1102  0.4436
  159SAPE   HN217657   5.524   3.763   2.090 -0.4286 -0.2137 -0.3124
  159SAPE   HN317658   5.561   3.897   1.991  1.4425 -2.0241 -0.6081
  159SAPE   C1217659   5.352   3.846   2.001 -0.2042 -0.7732  0.2939
  159SAPE  H12A17660   5.366   3.786   1.909  0.4268  0.2615 -0.3056
  159SAPE  H12B17661   5.311   3.947   1.979 -0.9784 -0.6211  2.2268
  159SAPE   C1117662   5.253   3.783   2.100 -0.2299  0.3592  0.1062
  159SAPE  H11A17663   5.152   3.792   2.056 -0.9286  1.0837  1.7728
  159SAPE  H11B17664   5.242   3.852   2.186 -2.3491 -0.5061  0.5855
  159SAPE     P17665   5.233   3.515   2.089  0.2383 -0.2621 -0.0949
  159SAPE   O1317666   5.119   3.551   1.997  0.2608 -0.0728  0.2200
  159SAPE   O1417667   5.338   3.440   2.012  0.7055 -0.0751 -0.4554
  159SAPE   O1217668   5.292   3.650   2.154  0.6748 -0.3799  0.2983
  159SAPE   O1117669   5.176   3.430   2.210 -0.4727  0.2638  0.0013
  159SAPE    C117670   5.254   3.384   2.324  1.0463  0.8243  0.1655
  159SAPE    HA17671   5.261   3.273   2.320 -2.5846  0.4382  1.2547
  159SAPE    HB17672   5.360   3.416   2.328  0.9337  1.0780  1.9911
  159SAPE    C217673   5.183   3.414   2.462  0.0175 -0.7379 -0.0065
  159SAPE    HS17674   5.092   3.350   2.467 -1.8440  1.4989 -2.3077
  159SAPE   O2117675   5.151   3.551   2.463 -0.6026 -0.8313 -1.0979
  159SAPE   C2117676   5.027   3.583   2.434 -0.0241 -0.3535 -0.3925
  159SAPE   O2217677   4.947   3.504   2.389  0.1230  0.4702 -0.0973
  159SAPE   C2217678   5.000   3.733   2.442  0.2880 -0.7421  0.1673
  159SAPE   H2R17679   5.091   3.784   2.478 -0.4246 -0.2720  1.3717
  159SAPE   H2S17680   4.981   3.776   2.341  1.4781 -1.6587 -0.4761
  159SAPE    C317681   5.286   3.399   2.573  0.4903  0.4420 -0.0605
  159SAPE    HX17682   5.366   3.476   2.562  1.4552 -0.2540  1.7013
  159SAPE    HY17683   5.342   3.307   2.541  0.9331  1.4687 -2.4900
  159SAPE   O3117684   5.242   3.402   2.707 -0.0358 -0.1832 -0.3275
  159SAPE   C3117685   5.146   3.332   2.747  0.1182 -0.2504  0.0979
  159SAPE   O3217686   5.074   3.254   2.691  0.1919  0.1554 -0.4491
  159SAPE   C3217687   5.121   3.372   2.894 -0.9598 -0.0612 -0.2385
  159SAPE   H2X17688   5.037   3.444   2.892  0.6076  1.8592  0.0380
  159SAPE   H2Y17689   5.212   3.412   2.944 -0.3587  0.0669 -1.3847
  159SAPE   C2317690   4.880   3.752   2.537 -0.7244 -0.1763  0.2058
  159SAPE   H3R17691   4.916   3.714   2.635 -0.0833  1.8355  0.8103
  159SAPE   H3S17692   4.789   3.698   2.502  1.4410 -4.6896  0.8325
  159SAPE   C2417693   4.849   3.904   2.559  0.5760  0.0177 -0.0024
  159SAPE   H4R17694   4.843   3.957   2.461 -2.0569 -0.0748  0.0307
  159SAPE   H4S17695   4.935   3.948   2.613  0.1653  1.6773 -0.6347
  159SAPE   C2517696   4.730   3.924   2.649  0.1119 -0.6460 -0.7842
  159SAPE   H5R17697   4.634   3.889   2.608 -0.4589  1.3499 -1.2498
  159SAPE   C2617698   4.717   3.956   2.781 -0.8431 -0.5705  0.7294
  159SAPE   H6R17699   4.611   3.961   2.808 -0.4832  1.5188  2.0482
  159SAPE   C2717700   4.825   3.996   2.877 -0.0716 -0.0586  0.3269
  159SAPE   H7R17701   4.797   4.088   2.932 -1.0216 -0.4671  0.5489
  159SAPE   H7S17702   4.914   4.036   2.824 -1.8572 -0.1362 -2.9639
  159SAPE   C2817703   4.874   3.904   2.985 -0.1282  0.1913 -0.0953
  159SAPE   H8R17704   4.962   3.848   2.950  0.7078  0.6563  1.1955
  159SAPE   C2917705   4.817   3.867   3.106  0.2401  0.2315 -0.1103
  159SAPE   H9R17706   4.866   3.790   3.167  0.2437  0.6983  0.4864
  159SAPE  C21017707   4.689   3.917   3.165  0.4574  0.7986  0.1216
  159SAPE  H10R17708   4.651   3.839   3.235  0.6401 -0.6639 -1.3683
  159SAPE  H10S17709   4.614   3.919   3.084  1.3940  1.3384 -0.7523
  159SAPE  C21117710   4.708   4.054   3.231  0.6287  0.1413  0.2314
  159SAPE  H11R17711   4.655   4.131   3.173  1.7741 -0.1666 -1.2783
  159SAPE  C21217712   4.752   4.068   3.352 -0.7651 -0.0601  0.3731
  159SAPE  H12R17713   4.757   4.165   3.405 -0.6373 -1.0185  2.2171
  159SAPE  C21317714   4.818   3.967   3.444 -0.2803 -0.3709  0.2335
  159SAPE  H13R17715   4.854   3.882   3.383  0.2742 -0.5517  0.7949
  159SAPE  H13S17716   4.734   3.916   3.497 -1.8530  0.3837 -1.4279
  159SAPE  C21417717   4.940   4.007   3.530 -0.0441 -0.2793 -0.1364
  159SAPE  H14R17718   5.031   3.947   3.517  0.1428  0.3809 -2.1351
  159SAPE  C21517719   4.942   4.076   3.643  0.8020 -0.1628  0.3681
  159SAPE  H15R17720   5.037   4.081   3.698  0.1776  0.9108  1.3928
  159SAPE  C21617721   4.823   4.141   3.716 -0.3672 -0.2623 -0.0544
  159SAPE  H16R17722   4.730   4.124   3.659 -0.4570 -3.5712  0.8788
  159SAPE  H16S17723   4.859   4.245   3.735 -1.5668  0.2974 -0.7298
  159SAPE  C21717724   4.807   4.095   3.865 -0.9094 -0.4949  0.0852
  159SAPE  H17R17725   4.776   3.989   3.856  1.5085 -1.1094 -2.5827
  159SAPE  H17S17726   4.729   4.164   3.905 -1.2773  0.2473 -1.7909
  159SAPE  C21817727   4.933   4.100   3.956  0.5994 -0.1489 -0.1352
  159SAPE  H18R17728   4.976   4.199   3.929  0.4789  0.3056  1.2348
  159SAPE  H18S17729   5.006   4.019   3.936 -0.2015 -1.8139  2.9948
  159SAPE  C21917730   4.893   4.105   4.100 -0.0794  0.3462  0.1996
  159SAPE  H19R17731   4.851   4.005   4.125 -0.7668  0.7100  0.5032
  159SAPE  H19S17732   4.816   4.184   4.109  0.2940  0.8312 -0.7233
  159SAPE  C22017733   5.016   4.126   4.200 -1.0429  0.3507 -0.2137
  159SAPE  H20R17734   4.978   4.193   4.280 -1.7010  1.2061 -1.2182
  159SAPE  H20S17735   5.094   4.179   4.142  0.5713 -1.1684  0.4472
  159SAPE  H20T17736   5.064   4.037   4.247  1.9873  1.4299 -1.0120
  159SAPE   C3317737   5.063   3.260   2.980  0.2123 -0.0773 -0.6639
  159SAPE   H3X17738   5.134   3.174   2.977  0.5636  0.1996 -0.4038
  159SAPE   H3Y17739   4.968   3.227   2.934 -0.5803  3.7046 -2.1651
  159SAPE   C3417740   5.051   3.309   3.117 -0.6126 -0.7090  0.0828
  159SAPE   H4X17741   4.990   3.402   3.124  1.7001  0.8992  0.0622
  159SAPE   H4Y17742   5.155   3.344   3.133 -0.3796 -0.4987 -1.6798
  159SAPE   C3517743   5.008   3.205   3.219  0.2895  0.0473  0.8051
  159SAPE   H5X17744   5.065   3.110   3.213  0.3824 -0.2343  4.2519
  159SAPE   H5Y17745   4.904   3.168   3.204  0.6105 -1.4270  1.9549
  159SAPE   C3617746   5.035   3.245   3.366  0.1736  0.3701  0.5743
  159SAPE   H6X17747   5.146   3.253   3.379  0.4737 -0.7497 -1.0406
  159SAPE   H6Y17748   5.002   3.167   3.437  1.2462 -0.8080 -0.1822
  159SAPE   C3717749   4.954   3.375   3.412 -0.7017  0.1208  0.2725
  159SAPE   H7X17750   4.845   3.358   3.395 -1.2619  0.4430  2.9963
  159SAPE   H7Y17751   4.996   3.454   3.346 -1.4026 -0.6279 -1.1168
  159SAPE   C3817752   4.983   3.401   3.559 -0.0043 -0.7217 -0.7173
  159SAPE   H8X17753   5.075   3.463   3.568  0.9661 -2.1570 -0.3698
  159SAPE   H8Y17754   5.000   3.306   3.614  2.3114 -0.4884 -0.9303
  159SAPE   C3917755   4.873   3.482   3.637  0.3492 -0.5045  1.0819
  159SAPE   H9X17756   4.785   3.414   3.644  1.4830 -2.5044 -2.1264
  159SAPE   H9Y17757   4.861   3.571   3.572  3.5108 -0.2169  0.7223
  159SAPE  C31017758   4.923   3.509   3.777  0.2393 -0.2808 -0.0417
  159SAPE  H10X17759   5.028   3.542   3.760  0.3702 -0.0565  1.1028
  159SAPE  H10Y17760   4.925   3.417   3.838  0.3147 -0.7991 -0.8156
  159SAPE  C31117761   4.854   3.627   3.851  0.1291  0.1033 -0.6662
  159SAPE  H11X17762   4.760   3.593   3.899 -0.4011 -1.2297 -2.5487
  159SAPE  H11Y17763   4.825   3.697   3.770  1.3066  1.4319  0.0066
  159SAPE  C31217764   4.951   3.702   3.951 -0.0089 -0.4247 -0.2223
  159SAPE  H12X17765   4.897   3.784   4.003 -1.4809 -1.6635  0.2831
  159SAPE  H12Y17766   5.036   3.751   3.901  0.2360  1.1043  1.5841
  159SAPE  C31317767   5.024   3.604   4.043  0.4793  0.0947  0.1428
  159SAPE  H13X17768   5.083   3.662   4.118  1.3941  0.7732 -1.0614
  159SAPE  H13Y17769   5.085   3.532   3.984 -1.2584 -0.7235 -0.7184
  159SAPE  C31417770   4.939   3.527   4.143  0.2119  0.0960  0.3181
  159SAPE  H14X17771   4.860   3.467   4.092 -0.6499  0.6031  1.0254
  159SAPE  H14Y17772   4.876   3.594   4.205 -3.4357  0.7583 -3.6221
  159SAPE  C31517773   5.028   3.432   4.228  0.0201 -0.1649  0.3842
  159SAPE  H15X17774   4.960   3.380   4.299  0.8791 -1.7434  0.1007
  159SAPE  H15Y17775   5.096   3.500   4.284  0.1973  0.0173 -0.0487
  159SAPE  C31617776   5.108   3.333   4.141  0.0184  0.3927  0.4093
  159SAPE  H16X17777   5.214   3.365   4.132 -0.7394  3.0768  0.3919
  159SAPE  H16Y17778   5.059   3.330   4.042 -0.5265 -0.1479  0.6829
  159SAPE  C31717779   5.102   3.200   4.209 -0.2169  0.0308  1.0062
  159SAPE  H17X17780   4.998   3.163   4.208 -1.0688  1.5195 -4.9294
  159SAPE  H17Y17781   5.140   3.207   4.313 -0.4158  2.3781  0.9824
  159SAPE  C31817782   5.189   3.104   4.136  0.7579  0.1016  0.5476
  159SAPE  H18X17783   5.180   3.008   4.190 -1.0461  1.1639  2.2769
  159SAPE  H18Y17784   5.299   3.121   4.139  1.1172 -2.1073  1.2548
  159SAPE  H18Z17785   5.153   3.087   4.032  2.1210  0.2017  0.0301
  160SAPE     N17786   4.898   1.917   2.232  0.3439 -0.8850 -0.0188
  160SAPE   HN117787   4.853   2.010   2.247 -1.7532 -1.1167 -3.6909
  160SAPE   HN217788   4.961   1.911   2.315  0.0276  1.8999  0.5270
  160SAPE   HN317789   4.953   1.937   2.146 -0.6230  2.5918  0.0012
  160SAPE   C1217790   4.803   1.793   2.223 -0.0661  0.0961  0.5453
  160SAPE  H12A17791   4.855   1.700   2.254  0.1377  0.1883  0.4814
  160SAPE  H12B17792   4.775   1.776   2.116 -0.1549 -1.5588  0.8055
  160SAPE   C1117793   4.674   1.812   2.305  0.8025 -0.1181  0.1424
  160SAPE  H11A17794   4.700   1.809   2.413 -0.9607  2.4374  0.7226
  160SAPE  H11B17795   4.600   1.734   2.276 -1.1617  2.1743 -1.4367
  160SAPE     P17796   4.465   1.957   2.242 -0.1088 -0.5760 -0.1545
  160SAPE   O1317797   4.428   2.092   2.192  0.0542  0.1880  0.7371
  160SAPE   O1417798   4.428   1.841   2.156 -0.8602 -0.0524 -0.8966
  160SAPE   O1217799   4.620   1.943   2.269 -0.4973 -0.5268 -0.6653
  160SAPE   O1117800   4.401   1.935   2.381 -0.1571 -0.0035 -0.4574
  160SAPE    C117801   4.375   2.043   2.466  0.4910 -0.0673 -0.1920
  160SAPE    HA17802   4.328   2.129   2.414  1.0372  0.1394 -0.3473
  160SAPE    HB17803   4.296   2.008   2.536 -0.4901  1.6794 -0.3613
  160SAPE    C217804   4.495   2.091   2.544 -0.7504  0.8183  0.5478
  160SAPE    HS17805   4.571   2.134   2.475  0.3425 -0.5852  0.8421
  160SAPE   O2117806   4.550   1.989   2.624 -0.1867 -0.3008  0.7532
  160SAPE   C2117807   4.675   2.022   2.666  0.3912 -0.5649 -0.0633
  160SAPE   O2217808   4.731   2.127   2.643 -0.3973  0.3258  0.2807
  160SAPE   C2217809   4.730   1.901   2.747 -0.5079  0.1759 -0.3804
  160SAPE   H2R17810   4.673   1.895   2.842  1.8293  2.7206  1.3483
  160SAPE   H2S17811   4.721   1.816   2.675  0.1485 -0.4378  0.2320
  160SAPE    C317812   4.449   2.214   2.632  0.8703  0.6907 -0.4188
  160SAPE    HX17813   4.410   2.290   2.561  1.7435  0.4031 -1.2403
  160SAPE    HY17814   4.529   2.257   2.695  0.8384  0.3070 -0.1092
  160SAPE   O3117815   4.326   2.183   2.711 -0.3163 -0.6405 -0.0803
  160SAPE   C3117816   4.345   2.156   2.839 -0.8008  0.2852  0.2488
  160SAPE   O3217817   4.449   2.165   2.900  0.3050  0.4328  0.3601
  160SAPE   C3217818   4.212   2.129   2.902  0.0004 -0.7600 -0.4381
  160SAPE   H2X17819   4.175   2.044   2.842 -0.3350  0.7204 -2.4176
  160SAPE   H2Y17820   4.150   2.215   2.870 -0.7258 -0.7105  1.0336
  160SAPE   C2317821   4.886   1.917   2.783  0.1512  0.6359 -0.2535
  160SAPE   H3R17822   4.911   2.004   2.846  0.0305 -0.0600  0.7788
  160SAPE   H3S17823   4.939   1.921   2.686  0.3750 -0.9288 -0.2238
  160SAPE   C2417824   4.956   1.802   2.853  0.0972 -0.3851 -0.2966
  160SAPE   H4R17825   5.053   1.851   2.876  0.1658 -0.5775 -0.1730
  160SAPE   H4S17826   4.969   1.726   2.773 -1.2303  0.7171 -1.6311
  160SAPE   C2517827   4.899   1.739   2.975  1.0106 -0.1017  0.0625
  160SAPE   H5R17828   4.812   1.673   2.960  1.7835 -1.3003  0.6438
  160SAPE   C2617829   4.936   1.760   3.103  0.3927  0.1020  0.1753
  160SAPE   H6R17830   4.884   1.703   3.182 -1.1814  1.4277  0.1339
  160SAPE   C2717831   5.032   1.857   3.155 -0.0285 -0.1266  0.7580
  160SAPE   H7R17832   4.971   1.934   3.207 -0.9659  1.3819 -2.3337
  160SAPE   H7S17833   5.090   1.906   3.074 -1.4472 -1.7461 -1.3467
  160SAPE   C2817834   5.123   1.790   3.249 -0.3931  0.6228  0.2855
  160SAPE   H8R17835   5.173   1.699   3.213 -2.0238  0.4460 -1.6855
  160SAPE   C2917836   5.154   1.829   3.380  0.0743  0.0972 -0.0759
  160SAPE   H9R17837   5.226   1.774   3.441 -0.0046 -0.9754 -0.9209
  160SAPE  C21017838   5.095   1.942   3.457  0.5480  0.1251  0.3398
  160SAPE  H10R17839   5.013   1.995   3.404  0.7489  0.7442  0.6414
  160SAPE  H10S17840   5.172   2.021   3.469  2.2065 -1.4417  0.5537
  160SAPE  C21117841   5.026   1.890   3.581  0.5436 -0.6496 -0.4097
  160SAPE  H11R17842   5.005   1.783   3.591  1.1620 -0.5999  2.3764
  160SAPE  C21217843   5.006   1.967   3.692  0.1033 -0.3362  0.0058
  160SAPE  H12R17844   4.955   1.921   3.778  1.1197 -0.7910  0.3801
  160SAPE  C21317845   5.032   2.118   3.701 -0.2429 -0.4246 -0.0563
  160SAPE  H13R17846   5.086   2.156   3.611  0.1739  0.1557  0.4274
  160SAPE  H13S17847   5.097   2.152   3.785 -0.5702  2.6630 -0.9225
  160SAPE  C21417848   4.902   2.191   3.716  0.0811  0.7137  0.5542
  160SAPE  H14R17849   4.809   2.137   3.696 -0.6119  0.9829  2.7476
  160SAPE  C21517850   4.891   2.313   3.771  0.3051  0.6493  0.1712
  160SAPE  H15R17851   4.794   2.364   3.763  0.2478  0.4789 -0.2447
  160SAPE  C21617852   4.986   2.414   3.827 -0.0529  0.2920 -0.2854
  160SAPE  H16R17853   4.983   2.513   3.776 -1.0826 -0.5934 -2.0335
  160SAPE  H16S17854   5.091   2.381   3.811 -0.1348  0.0385 -0.3045
  160SAPE  C21717855   4.973   2.424   3.975  0.0099 -0.5757 -0.4569
  160SAPE  H17R17856   5.065   2.478   4.006  0.5047 -1.0923 -1.0052
  160SAPE  H17S17857   4.978   2.326   4.026  0.9359  0.7439  2.1306
  160SAPE  C21817858   4.842   2.498   4.035  0.4549 -0.1664 -0.6918
  160SAPE  H18R17859   4.756   2.430   4.021  0.0740  0.0056  0.6840
  160SAPE  H18S17860   4.814   2.595   3.990 -1.2486 -1.5507 -2.8191
  160SAPE  C21917861   4.849   2.509   4.188 -0.1953 -0.3309  0.4115
  160SAPE  H19R17862   4.749   2.541   4.223 -0.4863 -2.3599  1.6287
  160SAPE  H19S17863   4.910   2.598   4.216 -2.8982  1.3389  1.3708
  160SAPE  C22017864   4.884   2.386   4.266  0.5442  0.0007  0.8067
  160SAPE  H20R17865   4.805   2.310   4.247 -0.2962  1.0325  0.0761
  160SAPE  H20S17866   4.895   2.427   4.369 -0.9253  0.9969  0.5971
  160SAPE  H20T17867   4.979   2.347   4.223  0.6000  3.0139 -2.2271
  160SAPE   C3317868   4.207   2.091   3.055  0.3941 -0.7198  0.1069
  160SAPE   H3X17869   4.247   2.177   3.113  0.9786 -1.3748  0.6846
  160SAPE   H3Y17870   4.262   1.996   3.069 -1.2317 -1.7007  0.0539
  160SAPE   C3417871   4.064   2.074   3.113 -0.4848 -0.0741 -0.1051
  160SAPE   H4X17872   4.021   1.981   3.068  0.5345  0.4612 -2.3319
  160SAPE   H4Y17873   4.001   2.162   3.087 -1.5740 -0.4948  1.0263
  160SAPE   C3517874   4.074   2.059   3.269 -0.5468 -0.3696  0.2278
  160SAPE   H5X17875   4.135   2.144   3.304 -1.4438 -0.2832  1.6615
  160SAPE   H5Y17876   4.136   1.973   3.304 -1.2921 -0.9198  0.2373
  160SAPE   C3617877   3.940   2.065   3.345  0.1095  0.3966  0.4427
  160SAPE   H6X17878   3.886   1.977   3.304  1.5568  0.5612 -1.9717
  160SAPE   H6Y17879   3.893   2.160   3.312  0.0666  0.3983  0.5079
  160SAPE   C3717880   3.955   2.066   3.497  0.5485  0.9021 -0.7003
  160SAPE   H7X17881   3.851   2.075   3.535  0.5198 -1.7055  0.0352
  160SAPE   H7Y17882   4.019   2.155   3.514 -1.2298  2.5597 -2.1964
  160SAPE   C3817883   4.029   1.952   3.563  0.2578 -0.2245  0.0436
  160SAPE   H8X17884   4.121   1.920   3.510  0.5961 -1.5556  1.3522
  160SAPE   H8Y17885   3.955   1.869   3.560 -0.4772  0.3401  1.3688
  160SAPE   C3917886   4.079   1.982   3.706 -0.4505  0.0414 -0.8425
  160SAPE   H9X17887   4.183   2.021   3.711 -0.6465  0.4174  1.0303
  160SAPE   H9Y17888   4.090   1.881   3.748  1.1035  0.6318  0.2370
  160SAPE  C31017889   3.984   2.050   3.797 -0.1972  0.0942 -0.0204
  160SAPE  H10X17890   3.895   1.984   3.802 -3.0558  3.6262  0.4926
  160SAPE  H10Y17891   3.951   2.148   3.757  0.2617  0.9826  1.6752
  160SAPE  C31117892   4.022   2.050   3.951 -0.0467  0.1990 -0.2004
  160SAPE  H11X17893   4.111   2.117   3.956  1.1994 -1.1698 -2.4002
  160SAPE  H11Y17894   4.067   1.953   3.981  1.3582  0.7228 -0.5521
  160SAPE  C31217895   3.909   2.100   4.046  0.3078 -0.3566 -0.2780
  160SAPE  H12X17896   3.814   2.049   4.020 -0.2853  0.9867 -0.7968
  160SAPE  H12Y17897   3.892   2.208   4.028  2.9707  0.5097  1.6829
  160SAPE  C31317898   3.947   2.090   4.194  1.1821  0.7891 -0.2823
  160SAPE  H13X17899   3.873   2.160   4.236 -0.9966 -1.8211  0.5617
  160SAPE  H13Y17900   4.052   2.123   4.206  1.4339  0.8455 -2.2132
  160SAPE  C31417901   3.938   1.937   4.232  0.5686  0.1281 -0.1148
  160SAPE  H14X17902   4.038   1.893   4.210 -0.1272 -0.8400 -1.4869
  160SAPE  H14Y17903   3.869   1.889   4.159 -0.5443  1.3166  0.1254
  160SAPE  C31517904   3.902   1.910   4.381  0.1582  0.4488 -0.0027
  160SAPE  H15X17905   3.980   1.952   4.447  1.6914 -2.3701  0.1363
  160SAPE  H15Y17906   3.899   1.802   4.406 -1.9826  0.6916  1.0699
  160SAPE  C31617907   3.761   1.961   4.418 -1.0471 -0.4011 -0.7645
  160SAPE  H16X17908   3.681   1.957   4.341 -1.6852  2.4841 -0.3857
  160SAPE  H16Y17909   3.782   2.070   4.424 -0.2714 -0.6448  2.8085
  160SAPE  C31717910   3.720   1.917   4.560 -0.1589  0.7631 -0.1194
  160SAPE  H17X17911   3.811   1.917   4.623 -0.1529 -4.2124  0.3035
  160SAPE  H17Y17912   3.690   1.812   4.535  0.7344  0.3160  0.6348
  160SAPE  C31817913   3.623   2.005   4.632 -1.0431 -0.1658  0.3680
  160SAPE  H18X17914   3.651   2.113   4.636  0.0261 -0.4653  1.7034
  160SAPE  H18Y17915   3.610   1.975   4.739 -0.5343 -1.0838  0.1826
  160SAPE  H18Z17916   3.521   1.999   4.589 -0.6258  1.8074 -1.0299
  161SAPE     N17917   4.034   5.380   1.961 -0.6125 -0.7286  0.0534
  161SAPE   HN117918   3.989   5.392   1.868 -0.7480 -1.5971 -0.0056
  161SAPE   HN217919   4.058   5.475   1.995 -0.4485 -1.1830  1.2453
  161SAPE   HN317920   4.127   5.334   1.948  0.9522  2.7020 -2.2405
  161SAPE   C1217921   3.936   5.323   2.066  0.3812 -1.0260  0.1142
  161SAPE  H12A17922   3.989   5.304   2.162  1.5668  0.4507 -0.2170
  161SAPE  H12B17923   3.905   5.222   2.033  1.5823 -1.9458  1.6582
  161SAPE   C1117924   3.809   5.412   2.096 -0.1083  0.7757  0.2642
  161SAPE  H11A17925   3.770   5.377   2.194 -1.4690  1.7252  0.0730
  161SAPE  H11B17926   3.739   5.393   2.012  0.4553  2.0613 -0.5327
  161SAPE     P17927   3.742   5.655   2.169 -0.0245 -0.0236 -0.1339
  161SAPE   O1317928   3.828   5.777   2.184  0.4249 -0.2250  0.2211
  161SAPE   O1417929   3.620   5.667   2.094  0.1030  0.1075  0.0946
  161SAPE   O1217930   3.827   5.547   2.091 -0.5570  0.3528 -0.2953
  161SAPE   O1117931   3.727   5.595   2.311 -0.4378 -0.5282 -0.3515
  161SAPE    C117932   3.615   5.521   2.357 -0.4461  0.1254 -0.6414
  161SAPE    HA17933   3.568   5.441   2.297  1.4870 -3.2914  2.0516
  161SAPE    HB17934   3.641   5.463   2.448 -1.7548  2.9480  1.6944
  161SAPE    C217935   3.502   5.615   2.410  0.1514 -0.3046 -0.0145
  161SAPE    HS17936   3.498   5.678   2.319  3.2260  1.0929  0.6824
  161SAPE   O2117937   3.551   5.699   2.516  0.2102 -0.0675 -0.1959
  161SAPE   C2117938   3.493   5.820   2.529  0.3607  0.7598 -0.2997
  161SAPE   O2217939   3.412   5.865   2.461 -0.0080 -0.3794  0.1905
  161SAPE   C2217940   3.551   5.898   2.644  0.1609 -0.0685 -0.3735
  161SAPE   H2R17941   3.626   5.843   2.704  1.3955  2.2299  0.2904
  161SAPE   H2S17942   3.608   5.982   2.599  1.3837 -0.9974 -0.5995
  161SAPE    C317943   3.364   5.547   2.441  0.2115 -0.1888  0.1897
  161SAPE    HX17944   3.354   5.468   2.363 -0.7463 -0.9725  1.0676
  161SAPE    HY17945   3.279   5.616   2.419  0.3327  0.3679  1.3951
  161SAPE   O3117946   3.349   5.500   2.576 -0.3933 -0.9492  0.4541
  161SAPE   C3117947   3.361   5.376   2.597 -0.7801  1.0779  0.2655
  161SAPE   O3217948   3.394   5.287   2.522  0.5161  0.0611  0.7628
  161SAPE   C3217949   3.311   5.349   2.744  0.3144  0.0373 -0.3740
  161SAPE   H2X17950   3.202   5.365   2.737  0.1767 -1.1723 -1.3327
  161SAPE   H2Y17951   3.353   5.433   2.803 -1.7227 -0.4159  1.8662
  161SAPE   C2317952   3.452   5.962   2.745  0.2910 -0.2559 -0.0887
  161SAPE   H3R17953   3.381   6.026   2.687  0.1382  0.1980  0.5773
  161SAPE   H3S17954   3.514   6.026   2.811  0.7558  1.4694 -2.0912
  161SAPE   C2417955   3.368   5.861   2.823  0.0232 -0.7828  0.0552
  161SAPE   H4R17956   3.438   5.782   2.857  0.4624 -1.1626 -1.6190
  161SAPE   H4S17957   3.299   5.807   2.756  1.3409 -2.8059  0.2520
  161SAPE   C2517958   3.281   5.930   2.932 -0.6508  0.0670 -0.3071
  161SAPE   H5R17959   3.182   5.967   2.903 -0.4109  0.3211 -0.8091
  161SAPE   C2617960   3.322   5.943   3.059 -0.1579  0.7881 -0.1945
  161SAPE   H6R17961   3.249   5.981   3.132 -1.4405 -2.4136  0.3325
  161SAPE   C2717962   3.453   5.904   3.124  0.3568  0.4807 -1.0132
  161SAPE   H7R17963   3.484   5.997   3.175 -0.3863  0.9486 -1.3861
  161SAPE   H7S17964   3.533   5.890   3.049  2.0546 -1.6560  1.0680
  161SAPE   C2817965   3.448   5.791   3.225  0.4749 -0.0966 -0.3946
  161SAPE   H8R17966   3.473   5.690   3.188 -0.8692 -0.9556  0.9312
  161SAPE   C2917967   3.422   5.798   3.357  0.5949  0.2456 -0.2610
  161SAPE   H9R17968   3.418   5.708   3.420  2.5894  1.2738  1.4838
  161SAPE  C21017969   3.398   5.917   3.447 -0.4399 -0.2368 -0.8247
  161SAPE  H10R17970   3.296   5.916   3.490 -0.0661 -0.2034  0.0898
  161SAPE  H10S17971   3.407   6.018   3.401 -4.5592  1.9168  2.3507
  161SAPE  C21117972   3.491   5.910   3.563  0.1241  0.3168 -0.4841
  161SAPE  H11R17973   3.596   5.943   3.555 -0.0145  1.9911  2.7473
  161SAPE  C21217974   3.459   5.869   3.687  0.4981 -0.1808  0.3164
  161SAPE  H12R17975   3.528   5.882   3.771 -0.5639  1.4675  0.9801
  161SAPE  C21317976   3.327   5.821   3.740 -0.1559  0.1644 -0.7015
  161SAPE  H13R17977   3.255   5.804   3.656  0.8612  0.8494 -1.7512
  161SAPE  H13S17978   3.277   5.895   3.807 -1.2661  1.0844 -2.4546
  161SAPE  C21417979   3.344   5.689   3.806 -0.1797  0.0709  0.3826
  161SAPE  H14R17980   3.319   5.608   3.736 -0.5877  0.6059 -0.1003
  161SAPE  C21517981   3.349   5.668   3.934 -0.1290 -0.4613  0.0347
  161SAPE  H15R17982   3.339   5.565   3.969 -0.0260 -0.0821  1.2142
  161SAPE  C21617983   3.355   5.772   4.049 -0.0485  0.5025  0.5619
  161SAPE  H16R17984   3.411   5.718   4.128 -1.7810 -0.3861  1.2314
  161SAPE  H16S17985   3.259   5.796   4.098  0.1472  0.3034  1.0534
  161SAPE  C21717986   3.433   5.905   4.035 -0.6379 -0.8828  0.7873
  161SAPE  H17R17987   3.362   5.976   3.988  2.0187  0.4191 -1.5878
  161SAPE  H17S17988   3.516   5.901   3.960 -1.3674  1.8269 -0.2638
  161SAPE  C21817989   3.485   5.965   4.169  0.7147  0.1974 -0.6540
  161SAPE  H18R17990   3.563   5.899   4.215  0.8510  0.4904 -0.4619
  161SAPE  H18S17991   3.404   5.965   4.246  0.7864 -0.9736 -0.5525
  161SAPE  C21917992   3.549   6.098   4.130 -0.6199  0.7795 -0.5016
  161SAPE  H19R17993   3.492   6.154   4.053  1.7797  2.6379 -1.0664
  161SAPE  H19S17994   3.649   6.081   4.085 -0.9805  1.1918 -1.4916
  161SAPE  C22017995   3.558   6.186   4.249 -0.0576  0.2664 -0.5618
  161SAPE  H20R17996   3.626   6.270   4.221  3.8595 -2.0457  1.2278
  161SAPE  H20S17997   3.608   6.134   4.333 -0.3771  0.9984  0.0899
  161SAPE  H20T17998   3.456   6.227   4.265 -0.9148 -1.4722 -1.3450
  161SAPE   C3317999   3.372   5.210   2.794 -0.1564  0.3922  0.1112
  161SAPE   H3X18000   3.482   5.221   2.783  0.0248 -0.5566  0.7868
  161SAPE   H3Y18001   3.338   5.137   2.717 -0.5590 -1.1884  1.7113
  161SAPE   C3418002   3.321   5.145   2.918  1.0317  0.4520 -0.3839
  161SAPE   H4X18003   3.344   5.037   2.935  0.2853  0.8635  5.0089
  161SAPE   H4Y18004   3.211   5.149   2.912  1.1152  2.0528 -1.5282
  161SAPE   C3518005   3.352   5.220   3.051 -0.4453 -0.1720  0.2166
  161SAPE   H5X18006   3.312   5.324   3.051 -0.5237 -0.1378  3.1262
  161SAPE   H5Y18007   3.456   5.211   3.089 -0.8380 -1.0204  1.1259
  161SAPE   C3618008   3.265   5.147   3.148 -0.2899 -0.3917 -0.1481
  161SAPE   H6X18009   3.268   5.040   3.119  0.2254  0.4743 -3.6489
  161SAPE   H6Y18010   3.163   5.188   3.132  1.1261  3.2197 -0.9607
  161SAPE   C3718011   3.311   5.150   3.290  0.4577 -0.2203  0.0663
  161SAPE   H7X18012   3.421   5.148   3.296  0.4806 -1.4897 -0.4232
  161SAPE   H7Y18013   3.264   5.072   3.354 -0.2441 -1.9870 -2.4543
  161SAPE   C3818014   3.267   5.276   3.369  0.1336 -0.0388  0.0618
  161SAPE   H8X18015   3.158   5.275   3.392 -0.0284  2.1169 -0.3640
  161SAPE   H8Y18016   3.286   5.361   3.300  3.2588 -0.7013 -0.0473
  161SAPE   C3918017   3.347   5.305   3.498  0.0202 -0.0420 -0.1167
  161SAPE   H9X18018   3.342   5.415   3.513  1.3286  0.1479 -0.9193
  161SAPE   H9Y18019   3.454   5.279   3.491 -0.0132 -0.9407  2.1245
  161SAPE  C31018020   3.288   5.230   3.621  0.6037  0.3375 -0.0308
  161SAPE  H10X18021   3.293   5.122   3.597  0.4752  0.4253 -0.4624
  161SAPE  H10Y18022   3.180   5.255   3.632  0.1897 -0.7143 -1.4398
  161SAPE  C31118023   3.355   5.265   3.752  0.9922  0.2861  0.3371
  161SAPE  H11X18024   3.341   5.374   3.766  0.9314  0.4396 -0.8378
  161SAPE  H11Y18025   3.465   5.248   3.743  0.7708 -0.8981 -0.3069
  161SAPE  C31218026   3.306   5.167   3.861  0.3213 -0.1432  0.1805
  161SAPE  H12X18027   3.345   5.068   3.828 -2.6106 -1.0545 -0.8550
  161SAPE  H12Y18028   3.198   5.142   3.855  0.6933 -3.0546  3.2141
  161SAPE  C31318029   3.352   5.209   4.004 -0.1175  0.1547  0.7724
  161SAPE  H13X18030   3.284   5.293   4.028  0.7863  0.8343  1.0087
  161SAPE  H13Y18031   3.458   5.241   4.009  0.3063 -1.1715  0.8925
  161SAPE  C31418032   3.340   5.113   4.118  0.4708  0.6377 -0.3453
  161SAPE  H14X18033   3.399   5.022   4.094  1.1126  0.5931  1.2741
  161SAPE  H14Y18034   3.233   5.087   4.134  0.9173 -1.1499  0.0088
  161SAPE  C31518035   3.391   5.151   4.260  0.4140  0.2692  0.3381
  161SAPE  H15X18036   3.334   5.238   4.300  0.7358 -0.2786  2.0949
  161SAPE  H15Y18037   3.495   5.188   4.250  0.3631  0.4689  0.5200
  161SAPE  C31618038   3.379   5.030   4.347 -0.5637  0.5054 -0.6613
  161SAPE  H16X18039   3.449   4.956   4.304  0.6821 -1.0419  3.5094
  161SAPE  H16Y18040   3.273   4.999   4.351 -0.6803  0.8227 -1.1787
  161SAPE  C31718041   3.438   5.052   4.491  0.0784  0.0788  0.5589
  161SAPE  H17X18042   3.374   5.132   4.535 -1.1882 -0.4683 -0.2146
  161SAPE  H17Y18043   3.541   5.094   4.493  0.2172 -0.2794  1.8133
  161SAPE  C31818044   3.421   4.930   4.573  0.0439 -0.1333  0.2972
  161SAPE  H18X18045   3.461   4.850   4.507  1.7937 -0.1354  1.3067
  161SAPE  H18Y18046   3.315   4.903   4.594  0.0097  0.5728  1.0896
  161SAPE  H18Z18047   3.470   4.941   4.672  0.1747 -1.3287  0.3869
  162SAPE     N18048   2.424   1.168   1.990 -0.0178  0.5372 -0.2263
  162SAPE   HN118049   2.404   1.267   1.965 -1.4417  0.3968  0.3060
  162SAPE   HN218050   2.376   1.105   1.924  2.2119  0.3249 -1.7582
  162SAPE   HN318051   2.381   1.167   2.085  0.5405  0.0237  0.0312
  162SAPE   C1218052   2.577   1.124   1.985  1.0337  0.1777 -0.4161
  162SAPE  H12A18053   2.635   1.203   2.038 -0.3086  0.8319  0.1484
  162SAPE  H12B18054   2.608   1.119   1.879  0.0484  0.9674 -0.7624
  162SAPE   C1118055   2.608   0.989   2.050  0.5524  0.4781 -0.9283
  162SAPE  H11A18056   2.618   1.013   2.158 -0.3299 -1.6847 -0.3137
  162SAPE  H11B18057   2.710   0.954   2.026  1.5108  1.4767  1.4467
  162SAPE     P18058   2.529   0.778   1.928 -0.0708  0.2733  0.3793
  162SAPE   O1318059   2.401   0.745   1.869 -0.0238  0.0271  0.5887
  162SAPE   O1418060   2.638   0.821   1.831 -0.3897  0.0311 -0.0934
  162SAPE   O1218061   2.506   0.893   2.032  0.1995  0.3132 -0.0953
  162SAPE   O1118062   2.588   0.667   2.017 -0.6049 -0.5480 -0.1547
  162SAPE    C118063   2.501   0.588   2.100  0.7818  0.4535  0.0811
  162SAPE    HA18064   2.409   0.566   2.041  0.8704 -0.8011  0.3862
  162SAPE    HB18065   2.550   0.488   2.109  0.8082  0.6446  2.7216
  162SAPE    C218066   2.468   0.657   2.236 -0.4950  0.5290  0.1929
  162SAPE    HS18067   2.417   0.749   2.202  1.5472  1.8846  0.6178
  162SAPE   O2118068   2.587   0.686   2.308 -0.2568 -0.1237 -0.3127
  162SAPE   C2118069   2.575   0.790   2.381 -0.1663 -0.1529  0.5043
  162SAPE   O2218070   2.495   0.878   2.369  0.4936  0.1062  0.5443
  162SAPE   C2218071   2.684   0.778   2.492  0.3918 -0.1124 -0.8472
  162SAPE   H2R18072   2.675   0.681   2.545 -2.5049  0.8014  0.5630
  162SAPE   H2S18073   2.784   0.783   2.442  1.0441 -2.1941  0.1443
  162SAPE    C318074   2.375   0.564   2.327 -0.0211 -0.4192 -0.2504
  162SAPE    HX18075   2.423   0.468   2.355  0.0652 -0.0136  1.0845
  162SAPE    HY18076   2.281   0.546   2.271 -1.2497  0.3513  1.4607
  162SAPE   O3118077   2.338   0.620   2.458 -0.1666  0.0430 -0.1615
  162SAPE   C3118078   2.214   0.649   2.477 -0.5102  0.1754 -0.8284
  162SAPE   O3218079   2.122   0.615   2.405 -0.2535  0.3107  0.2331
  162SAPE   C3218080   2.213   0.735   2.605 -0.4526  0.4703  0.2597
  162SAPE   H2X18081   2.226   0.835   2.559 -1.8781  0.4775 -0.1864
  162SAPE   H2Y18082   2.290   0.700   2.676 -1.2703  0.1437  0.9972
  162SAPE   C2318083   2.671   0.878   2.609 -0.9207 -0.4230  0.0339
  162SAPE   H3R18084   2.725   0.970   2.578 -2.4706  0.3615 -0.4172
  162SAPE   H3S18085   2.718   0.830   2.698 -1.7068 -0.6073  0.3598
  162SAPE   C2418086   2.530   0.904   2.673  0.3677  0.0511  0.1211
  162SAPE   H4R18087   2.491   0.800   2.684  0.8413 -0.2906 -1.2345
  162SAPE   H4S18088   2.461   0.949   2.598  0.4047 -0.5818 -0.2996
  162SAPE   C2518089   2.523   0.974   2.807  0.2137  0.0651  0.5964
  162SAPE   H5R18090   2.535   1.083   2.799 -1.5396  0.2123 -0.3754
  162SAPE   C2618091   2.510   0.922   2.927  0.0646  0.7923  0.0046
  162SAPE   H6R18092   2.515   0.989   3.014 -0.1873  1.2167 -0.3040
  162SAPE   C2718093   2.483   0.775   2.962 -0.0875  0.2044 -0.2311
  162SAPE   H7R18094   2.583   0.728   2.968 -0.3420 -0.7227 -2.3685
  162SAPE   H7S18095   2.424   0.718   2.886 -1.7080 -0.9043  1.7597
  162SAPE   C2818096   2.409   0.776   3.096 -0.0087 -0.2523  0.7284
  162SAPE   H8R18097   2.303   0.804   3.089 -0.2611 -1.4982 -1.7714
  162SAPE   C2918098   2.458   0.749   3.219 -0.0006  0.3229  0.3742
  162SAPE   H9R18099   2.386   0.761   3.301 -0.2052 -1.3384  0.4693
  162SAPE  C21018100   2.599   0.709   3.247  1.0733 -0.1194  0.1103
  162SAPE  H10R18101   2.642   0.653   3.162 -0.9242 -0.1174 -0.9433
  162SAPE  H10S18102   2.605   0.639   3.333  0.3835 -1.2397 -0.7352
  162SAPE  C21118103   2.695   0.810   3.291 -0.2945 -0.0847 -0.0607
  162SAPE  H11R18104   2.753   0.851   3.207 -0.1783  0.6152  0.3603
  162SAPE  C21218105   2.719   0.839   3.419  0.5825  0.1290  0.2005
  162SAPE  H12R18106   2.801   0.911   3.432  0.0756  0.4862  1.6132
  162SAPE  C21318107   2.654   0.788   3.546 -0.0761 -0.7145 -0.1155
  162SAPE  H13R18108   2.720   0.819   3.630  0.5575  0.2003 -0.9335
  162SAPE  H13S18109   2.649   0.678   3.558  0.2278 -0.5169  2.4009
  162SAPE  C21418110   2.513   0.850   3.566 -0.3754 -0.2870 -0.5456
  162SAPE  H14R18111   2.485   0.930   3.495 -0.2470 -1.5361 -2.0707
  162SAPE  C21518112   2.423   0.822   3.671 -0.0233  0.1438  0.0958
  162SAPE  H15R18113   2.315   0.837   3.661  0.1207  0.8235 -0.4501
  162SAPE  C21618114   2.476   0.716   3.763 -0.5549  0.1780 -0.7276
  162SAPE  H16R18115   2.580   0.742   3.792 -0.1611 -1.4912 -0.5519
  162SAPE  H16S18116   2.481   0.631   3.692 -0.1884 -1.8804  1.6080
  162SAPE  C21718117   2.397   0.693   3.886 -0.2682 -0.0304  0.7599
  162SAPE  H17R18118   2.393   0.783   3.951  0.2826 -0.9069  2.0669
  162SAPE  H17S18119   2.446   0.604   3.933  1.4903  1.1228  1.2106
  162SAPE  C21818120   2.256   0.636   3.844  0.1298  0.1236 -0.0151
  162SAPE  H18R18121   2.268   0.537   3.795 -2.5740 -0.9090  1.2270
  162SAPE  H18S18122   2.211   0.702   3.767  1.5138 -0.9598 -1.8513
  162SAPE  C21918123   2.161   0.621   3.962 -0.1290 -0.2208  0.6966
  162SAPE  H19R18124   2.143   0.717   4.016 -1.2432  1.6020 -2.6273
  162SAPE  H19S18125   2.197   0.549   4.038 -2.1901 -0.6756  1.3036
  162SAPE  C22018126   2.034   0.568   3.912 -0.5210 -0.2013  0.6302
  162SAPE  H20R18127   2.060   0.473   3.861  0.1058  0.6961 -0.7588
  162SAPE  H20S18128   2.003   0.624   3.822 -1.3767 -0.3068  0.8547
  162SAPE  H20T18129   1.944   0.559   3.977 -2.6848  0.7635 -2.0508
  162SAPE   C3318130   2.072   0.731   2.676 -0.5984  0.0115  0.0573
  162SAPE   H3X18131   2.056   0.644   2.743 -3.0552  1.8729  2.0821
  162SAPE   H3Y18132   1.988   0.721   2.604 -1.0148 -1.5492  0.7367
  162SAPE   C3418133   2.035   0.861   2.744  0.2261  1.1114  0.0751
  162SAPE   H4X18134   1.943   0.842   2.804  0.3882  1.8912  0.5889
  162SAPE   H4Y18135   2.000   0.926   2.661 -1.6484  0.6495  0.4560
  162SAPE   C3518136   2.155   0.925   2.829 -0.3801 -0.0965 -0.1886
  162SAPE   H5X18137   2.233   0.950   2.755 -1.9766 -2.0350 -2.6964
  162SAPE   H5Y18138   2.182   0.853   2.909 -2.2604  0.6813  1.2315
  162SAPE   C3618139   2.118   1.059   2.881  0.1170  0.4465  0.2008
  162SAPE   H6X18140   2.095   1.123   2.793  1.1685  2.6842  1.4752
  162SAPE   H6Y18141   2.203   1.105   2.935  0.5538 -0.8890  0.6841
  162SAPE   C3718142   1.998   1.049   2.976 -0.3743 -0.3819 -0.2789
  162SAPE   H7X18143   1.914   1.005   2.918 -1.8138  0.4788  1.0574
  162SAPE   H7Y18144   1.963   1.149   3.011  1.3638 -0.0400  0.5968
  162SAPE   C3818145   2.027   0.973   3.109  0.1936  0.0642  0.0222
  162SAPE   H8X18146   2.117   1.003   3.165  0.3895 -0.8530  0.2178
  162SAPE   H8Y18147   2.040   0.866   3.081  1.8601 -0.5694  2.8298
  162SAPE   C3918148   1.907   0.974   3.208 -0.6800 -0.4715  0.0245
  162SAPE   H9X18149   1.816   0.944   3.151 -0.5835  0.2047 -0.4878
  162SAPE   H9Y18150   1.889   1.076   3.247  1.8036  0.0218  0.0484
  162SAPE  C31018151   1.932   0.882   3.330 -0.0157  0.2360 -0.5602
  162SAPE  H10X18152   2.022   0.917   3.384  0.8895  0.3200 -2.0697
  162SAPE  H10Y18153   1.964   0.782   3.293  1.7482  0.0819  1.2657
  162SAPE  C31118154   1.818   0.856   3.426 -0.0031  0.4585 -0.7216
  162SAPE  H11X18155   1.720   0.828   3.382  0.1051 -1.1740  0.0131
  162SAPE  H11Y18156   1.798   0.941   3.494  3.0141  0.6584  0.0586
  162SAPE  C31218157   1.842   0.737   3.533  0.0137  0.6850  0.2760
  162SAPE  H12X18158   1.933   0.752   3.595 -0.9962  0.5078  1.8626
  162SAPE  H12Y18159   1.869   0.652   3.467 -3.1393  0.3907 -0.8167
  162SAPE  C31318160   1.719   0.711   3.621 -1.1269 -0.5964 -0.5831
  162SAPE  H13X18161   1.743   0.627   3.690  0.2749  0.7021  0.5766
  162SAPE  H13Y18162   1.621   0.693   3.571 -1.1025 -1.2720 -0.3917
  162SAPE  C31418163   1.694   0.823   3.724 -0.6676 -0.9239  0.5554
  162SAPE  H14X18164   1.594   0.812   3.773 -1.3517  0.9838 -0.3148
  162SAPE  H14Y18165   1.692   0.916   3.665  1.6338 -0.8666  0.5095
  162SAPE  C31518166   1.808   0.838   3.831  0.6084 -0.0845 -0.2889
  162SAPE  H15X18167   1.910   0.830   3.789  0.8134 -1.4031  0.3981
  162SAPE  H15Y18168   1.802   0.770   3.919  1.3531 -0.4247 -0.4943
  162SAPE  C31618169   1.810   0.988   3.884  0.5781  0.3442 -0.2425
  162SAPE  H16X18170   1.827   0.983   3.993 -1.8888 -2.2937  0.1279
  162SAPE  H16Y18171   1.711   1.028   3.854 -1.6265 -2.4741  2.6435
  162SAPE  C31718172   1.920   1.073   3.834  0.1414 -0.2173 -0.4086
  162SAPE  H17X18173   2.014   1.040   3.884  1.1969  1.2517 -1.3632
  162SAPE  H17Y18174   1.908   1.183   3.845  0.6150  0.0324 -2.1634
  162SAPE  C31818175   1.937   1.060   3.680 -0.2535 -0.8841 -0.4048
  162SAPE  H18X18176   1.837   1.072   3.633 -1.0600  3.6851  1.8329
  162SAPE  H18Y18177   1.990   0.969   3.647 -2.1937 -1.8704 -0.9493
  162SAPE  H18Z18178   1.999   1.144   3.640 -1.2242  0.2315  0.3497
  163SAPE     N18179   2.806   5.900   1.723  0.1337 -0.4248  0.4814
  163SAPE   HN118180   2.718   5.921   1.775  1.6436  0.3450  2.8851
  163SAPE   HN218181   2.792   5.917   1.621  3.7498 -2.6271 -0.5447
  163SAPE   HN318182   2.824   5.798   1.729  0.8768 -0.3926 -0.8554
  163SAPE   C1218183   2.908   5.980   1.801 -0.3111  0.8205  0.5058
  163SAPE  H12A18184   3.008   5.964   1.754 -0.3479  1.6016  0.1557
  163SAPE  H12B18185   2.921   5.936   1.902  2.7650 -1.2286 -0.6366
  163SAPE   C1118186   2.871   6.130   1.798  0.0189  0.9733 -0.4568
  163SAPE  H11A18187   2.844   6.150   1.692 -1.4746 -0.6084 -0.4178
  163SAPE  H11B18188   2.966   6.178   1.830  0.0201  0.5354  0.2175
  163SAPE     P18189   2.623   6.191   1.859 -0.2605  0.3845 -0.1505
  163SAPE   O1318190   2.608   6.300   1.761 -0.3072 -0.4395 -0.2661
  163SAPE   O1418191   2.569   6.058   1.828  0.0321  0.1431 -0.3429
  163SAPE   O1218192   2.772   6.172   1.891 -0.0111 -0.0561  0.0080
  163SAPE   O1118193   2.567   6.238   1.998 -0.0468 -0.6583 -0.0709
  163SAPE    C118194   2.630   6.199   2.121  0.5179  0.8519 -0.2396
  163SAPE    HA18195   2.676   6.099   2.107  1.1874  1.2604 -1.0827
  163SAPE    HB18196   2.708   6.270   2.156  0.0006  0.5594  1.5625
  163SAPE    C218197   2.522   6.198   2.233  0.0793  0.1847 -0.5494
  163SAPE    HS18198   2.441   6.128   2.205 -0.3700  0.4698  0.0303
  163SAPE   O2118199   2.472   6.335   2.252 -0.3006  0.2440 -0.0104
  163SAPE   C2118200   2.367   6.351   2.336 -0.0223  0.1708  0.3990
  163SAPE   O2218201   2.309   6.264   2.389 -0.2839 -0.1089 -0.2718
  163SAPE   C2218202   2.338   6.503   2.353 -0.0471 -0.3504  0.0648
  163SAPE   H2R18203   2.417   6.556   2.295 -0.8995 -1.2931 -2.0476
  163SAPE   H2S18204   2.235   6.522   2.317 -1.1558  1.3476  3.6475
  163SAPE    C318205   2.589   6.144   2.363  0.0987 -0.4923  0.0586
  163SAPE    HX18206   2.623   6.044   2.328 -0.2940 -0.2441 -1.0676
  163SAPE    HY18207   2.523   6.137   2.452  0.6799 -0.3761  0.5070
  163SAPE   O3118208   2.701   6.225   2.405 -0.0822  0.0857 -0.1194
  163SAPE   C3118209   2.823   6.198   2.383  0.0605  0.8945  0.7365
  163SAPE   O3218210   2.865   6.094   2.338 -0.0790  0.0751 -0.2341
  163SAPE   C3218211   2.903   6.313   2.418  0.1202  0.4201  0.2172
  163SAPE   H2X18212   2.839   6.398   2.450  0.2909  0.7231 -0.2321
  163SAPE   H2Y18213   2.950   6.356   2.327  1.4666  0.3700  0.8573
  163SAPE   C2318214   2.327   6.545   2.503  0.2310  0.0490 -0.3930
  163SAPE   H3R18215   2.274   6.471   2.567  0.2312  1.5213  1.3661
  163SAPE   H3S18216   2.260   6.633   2.501  1.5725  1.1054 -2.3162
  163SAPE   C2418217   2.461   6.567   2.577 -0.4683  0.1802  0.5082
  163SAPE   H4R18218   2.439   6.609   2.678 -1.5094  1.3859 -0.1914
  163SAPE   H4S18219   2.503   6.650   2.516 -0.1563 -1.2274 -1.2498
  163SAPE   C2518220   2.539   6.440   2.577  0.6011 -0.0348 -0.3559
  163SAPE   H5R18221   2.593   6.417   2.484  0.9742  0.9706 -0.4037
  163SAPE   C2618222   2.539   6.352   2.680 -0.2248  0.1622  0.2349
  163SAPE   H6R18223   2.628   6.286   2.679  1.1744  1.9477  1.1461
  163SAPE   C2718224   2.480   6.365   2.818 -0.4550  0.3299 -0.5620
  163SAPE   H7R18225   2.460   6.473   2.836  2.8493  0.5557  2.6868
  163SAPE   H7S18226   2.553   6.340   2.897 -0.6187 -1.7799 -1.0254
  163SAPE   C2818227   2.363   6.274   2.850  0.5269  0.1980  0.1628
  163SAPE   H8R18228   2.298   6.267   2.761 -0.0923  1.2425  0.5041
  163SAPE   C2918229   2.320   6.223   2.969  0.0773  0.0687 -0.0282
  163SAPE   H9R18230   2.225   6.167   2.978  0.4904 -0.3994  1.9068
  163SAPE  C21018231   2.384   6.218   3.107  0.0378  0.1766  0.0709
  163SAPE  H10R18232   2.484   6.265   3.116  0.9706 -1.9027  1.3013
  163SAPE  H10S18233   2.407   6.111   3.127 -0.7218  0.0032  0.0359
  163SAPE  C21118234   2.292   6.281   3.212  0.2806 -0.1646 -0.9751
  163SAPE  H11R18235   2.240   6.370   3.174  1.3539  0.3554 -1.2790
  163SAPE  C21218236   2.289   6.256   3.344  0.7029  0.1793  0.0485
  163SAPE  H12R18237   2.209   6.307   3.399 -1.0983 -0.7177 -1.6150
  163SAPE  C21318238   2.376   6.160   3.421 -0.2450  0.5911  0.3080
  163SAPE  H13R18239   2.445   6.107   3.352 -0.5974 -0.8523  1.0293
  163SAPE  H13S18240   2.320   6.073   3.463  0.3118 -0.7596 -1.5967
  163SAPE  C21418241   2.474   6.240   3.502  0.5129  0.2665 -0.7960
  163SAPE  H14R18242   2.538   6.304   3.439  1.4203  0.3663  0.1812
  163SAPE  C21518243   2.500   6.240   3.631  0.4363 -0.2051 -0.2247
  163SAPE  H15R18244   2.568   6.320   3.665  0.9037 -0.5912 -0.2230
  163SAPE  C21618245   2.423   6.158   3.733  0.4403  0.2004 -0.0884
  163SAPE  H16R18246   2.493   6.093   3.791  1.4987 -1.4552 -3.0156
  163SAPE  H16S18247   2.362   6.081   3.681 -0.8109  2.4667 -2.1452
  163SAPE  C21718248   2.339   6.246   3.829 -0.0323 -0.1679 -0.7401
  163SAPE  H17R18249   2.294   6.177   3.904  1.1385  0.2883  0.4183
  163SAPE  H17S18250   2.262   6.302   3.772  0.7495  0.6845 -0.9808
  163SAPE  C21818251   2.411   6.359   3.901 -0.2896  0.0968 -0.3021
  163SAPE  H18R18252   2.434   6.443   3.831 -0.0376  1.3299  1.2129
  163SAPE  H18S18253   2.513   6.323   3.928  0.2229 -0.7868 -3.0289
  163SAPE  C21918254   2.325   6.414   4.017  0.1865 -0.6084 -0.3911
  163SAPE  H19R18255   2.279   6.325   4.066 -1.3442  0.7023  0.6881
  163SAPE  H19S18256   2.243   6.474   3.972  0.1068 -0.5180 -0.1330
  163SAPE  C22018257   2.398   6.506   4.115  1.5076 -0.2014 -0.6669
  163SAPE  H20R18258   2.435   6.591   4.054  1.2211  0.0204 -0.5358
  163SAPE  H20S18259   2.480   6.451   4.167  0.7182  0.8391  1.8516
  163SAPE  H20T18260   2.328   6.549   4.190  2.2876 -3.2706  2.0411
  163SAPE   C3318261   3.004   6.286   2.531  0.3779  0.3375 -0.0990
  163SAPE   H3X18262   3.069   6.374   2.552  2.6906 -1.2471 -0.2264
  163SAPE   H3Y18263   3.060   6.194   2.505 -0.8672 -0.9373  1.5011
  163SAPE   C3418264   2.949   6.241   2.671 -0.3335  0.1115  0.2519
  163SAPE   H4X18265   2.880   6.155   2.660  0.3457 -0.5716  1.2678
  163SAPE   H4Y18266   2.883   6.320   2.712  1.1084  0.4544  2.0585
  163SAPE   C3518267   3.045   6.225   2.787  0.8681  0.0242 -0.2033
  163SAPE   H5X18268   3.122   6.305   2.784 -0.6385  1.5112 -0.6265
  163SAPE   H5Y18269   3.102   6.130   2.777 -0.3963 -0.7679 -0.0738
  163SAPE   C3618270   2.978   6.236   2.928 -0.3230 -0.4353 -0.5621
  163SAPE   H6X18271   2.880   6.186   2.917 -0.5628  0.3809 -2.4251
  163SAPE   H6Y18272   2.963   6.344   2.947  1.7347 -0.5641  2.7358
  163SAPE   C3718273   3.054   6.174   3.050  0.0166 -0.1106  0.7057
  163SAPE   H7X18274   3.150   6.223   3.078  0.6331  1.0770 -2.9854
  163SAPE   H7Y18275   3.077   6.067   3.029 -1.0395  0.1427 -2.1716
  163SAPE   C3818276   2.970   6.156   3.177 -0.3559 -0.6763  0.9825
  163SAPE   H8X18277   2.878   6.098   3.155 -1.4211  1.1664  0.3922
  163SAPE   H8Y18278   2.924   6.251   3.209  0.1273 -0.3695  0.7891
  163SAPE   C3918279   3.044   6.099   3.302  0.1784 -0.3849  0.8725
  163SAPE   H9X18280   3.138   6.152   3.328  1.0759 -1.7814  0.5481
  163SAPE   H9Y18281   3.071   5.996   3.271 -0.5987 -0.2678 -0.2474
  163SAPE  C31018282   2.959   6.098   3.427  0.1090 -0.3214 -0.5194
  163SAPE  H10X18283   2.881   6.018   3.425  1.2716 -1.4728 -1.0670
  163SAPE  H10Y18284   2.914   6.198   3.444 -0.2705 -0.5461 -0.1652
  163SAPE  C31118285   3.041   6.063   3.557 -0.7038 -0.1954  0.4567
  163SAPE  H11X18286   3.107   6.146   3.590 -0.7287 -0.5921  1.5693
  163SAPE  H11Y18287   3.096   5.968   3.553 -0.2417  0.0952 -0.3183
  163SAPE  C31218288   2.948   6.037   3.676 -0.3375  0.8158 -0.5296
  163SAPE  H12X18289   2.880   5.954   3.648  0.2368 -0.0324  0.5445
  163SAPE  H12Y18290   2.887   6.129   3.691  0.1568  0.9120  1.0751
  163SAPE  C31318291   3.014   5.987   3.802  1.0799 -0.0985  0.0408
  163SAPE  H13X18292   3.083   6.069   3.829  0.5003  0.5685 -0.4709
  163SAPE  H13Y18293   3.063   5.889   3.782 -0.0125 -0.9203  1.2267
  163SAPE  C31418294   2.918   5.954   3.919 -0.0474  0.7166  0.1205
  163SAPE  H14X18295   2.993   5.914   3.991  0.1621 -1.5686 -1.2754
  163SAPE  H14Y18296   2.851   5.868   3.896  3.0928 -1.8016 -0.4244
  163SAPE  C31518297   2.839   6.074   3.971 -0.3418 -0.5233  0.1137
  163SAPE  H15X18298   2.772   6.107   3.889  0.0577 -1.8935 -0.8118
  163SAPE  H15Y18299   2.904   6.163   3.982 -0.7014 -0.4747  2.2571
  163SAPE  C31618300   2.750   6.034   4.095  0.8376  0.2218  0.1263
  163SAPE  H16X18301   2.821   6.034   4.180 -1.6476 -0.5572  2.3357
  163SAPE  H16Y18302   2.699   5.936   4.081 -0.1748  0.7669 -0.1186
  163SAPE  C31718303   2.644   6.142   4.124 -0.1706  0.5679  0.4482
  163SAPE  H17X18304   2.598   6.163   4.025 -1.9436 -0.7625  0.9292
  163SAPE  H17Y18305   2.689   6.235   4.165 -0.2563 -0.1247  2.2102
  163SAPE  C31818306   2.528   6.101   4.217  0.0512  0.4349  0.4721
  163SAPE  H18X18307   2.460   6.187   4.199  0.5617  1.0447  1.3739
  163SAPE  H18Y18308   2.558   6.105   4.324  1.1997  2.5058  0.1358
  163SAPE  H18Z18309   2.488   6.006   4.177  1.8734 -0.2515  0.2120
  164SAPE     N18310   6.500   4.821   2.204 -0.4893  0.1105 -0.3226
  164SAPE   HN118311   6.501   4.820   2.308  0.0695  1.3981 -0.2941
  164SAPE   HN218312   6.463   4.729   2.171 -3.8194  0.5841  1.6730
  164SAPE   HN318313   6.598   4.843   2.175 -0.3896  0.8135  0.5210
  164SAPE   C1218314   6.408   4.922   2.147 -0.2222  0.0566 -0.0605
  164SAPE  H12A18315   6.303   4.903   2.179 -0.3223 -2.3918 -1.6013
  164SAPE  H12B18316   6.405   4.909   2.036 -1.0471  2.1126 -0.3288
  164SAPE   C1118317   6.457   5.066   2.168 -0.1384 -0.2149  0.2637
  164SAPE  H11A18318   6.397   5.142   2.114  0.2102  0.1217  0.3471
  164SAPE  H11B18319   6.560   5.067   2.128  0.0519 -0.6368  0.7325
  164SAPE     P18320   6.336   5.143   2.387 -0.0358  0.6472 -0.2350
  164SAPE   O1318321   6.375   5.162   2.529 -0.2530 -0.1592  0.4986
  164SAPE   O1418322   6.269   5.255   2.315 -0.0638  0.0264  0.1002
  164SAPE   O1218323   6.466   5.104   2.308  0.3017 -0.0650  0.0382
  164SAPE   O1118324   6.245   5.013   2.373  0.2102  0.2074 -0.2870
  164SAPE    C118325   6.259   4.897   2.461 -0.3582  0.2100  0.4190
  164SAPE    HA18326   6.262   4.805   2.399  2.3733  0.6006 -0.1609
  164SAPE    HB18327   6.353   4.900   2.519 -0.1700 -2.9020  0.4417
  164SAPE    C218328   6.152   4.891   2.569 -0.0836  0.9689 -0.5343
  164SAPE    HS18329   6.062   4.868   2.508 -0.3669  1.7699 -0.4238
  164SAPE   O2118330   6.136   5.011   2.651 -0.4711  0.1400 -0.2060
  164SAPE   C2118331   6.014   5.029   2.700 -0.4952  0.0314  0.7254
  164SAPE   O2218332   5.914   4.970   2.664 -0.5069 -0.1806 -0.3876
  164SAPE   C2218333   6.024   5.142   2.808  0.0811  0.7930 -0.0427
  164SAPE   H2R18334   6.119   5.133   2.866  0.4399  2.3827 -0.3208
  164SAPE   H2S18335   6.018   5.234   2.746 -0.4226 -0.3526 -1.7646
  164SAPE    C318336   6.178   4.775   2.671  0.6422 -0.1380 -0.4275
  164SAPE    HX18337   6.258   4.798   2.744  1.4270 -0.9908 -0.9923
  164SAPE    HY18338   6.219   4.682   2.624 -2.0482 -1.0492 -1.1738
  164SAPE   O3118339   6.068   4.752   2.767  0.2915  0.5542 -0.0691
  164SAPE   C3118340   5.954   4.682   2.726 -0.1113 -0.0194  0.0724
  164SAPE   O3218341   5.940   4.622   2.622  0.1197 -0.3421  0.5091
  164SAPE   C3218342   5.843   4.694   2.831 -0.2934  0.1347  0.6825
  164SAPE   H2X18343   5.774   4.610   2.806  1.0119 -1.2441  1.5268
  164SAPE   H2Y18344   5.811   4.800   2.822  0.5973  0.3347 -0.2013
  164SAPE   C2318345   5.892   5.145   2.895  0.2154  0.2804  0.0633
  164SAPE   H3R18346   5.801   5.126   2.833  0.4206  0.3930 -0.2722
  164SAPE   H3S18347   5.889   5.251   2.928  2.7749 -0.2128  2.1598
  164SAPE   C2418348   5.898   5.061   3.028  0.2030 -0.9046 -0.0423
  164SAPE   H4R18349   5.880   4.953   3.006  0.8656 -1.5223  2.2145
  164SAPE   H4S18350   5.800   5.084   3.074  0.3095 -0.7449  0.1058
  164SAPE   C2518351   6.012   5.082   3.129  0.0832  0.1461  0.7723
  164SAPE   H5R18352   6.111   5.058   3.087 -0.3402 -0.7946  0.2746
  164SAPE   C2618353   6.010   5.140   3.251 -0.3465 -0.2825  0.5034
  164SAPE   H6R18354   6.100   5.158   3.311 -0.2555 -0.4296  0.4132
  164SAPE   C2718355   5.893   5.194   3.325 -0.3585  0.2038  0.0693
  164SAPE   H7R18356   5.818   5.235   3.254  1.0732  1.5213 -0.7448
  164SAPE   H7S18357   5.926   5.278   3.389 -0.9785  0.1940  0.4107
  164SAPE   C2818358   5.837   5.092   3.424  0.0548 -0.1695  0.7603
  164SAPE   H8R18359   5.871   4.990   3.400  3.8194  0.4234  2.8900
  164SAPE   C2918360   5.762   5.104   3.533  0.1565  0.1553 -0.0689
  164SAPE   H9R18361   5.754   5.017   3.600  0.4785 -0.8523 -1.3091
  164SAPE  C21018362   5.717   5.223   3.606 -0.2513 -0.4135  0.0515
  164SAPE  H10R18363   5.607   5.234   3.598  0.0425  2.5467 -1.3815
  164SAPE  H10S18364   5.762   5.314   3.561  1.7978 -1.1049  0.6014
  164SAPE  C21118365   5.749   5.227   3.751  0.2277 -0.3182 -0.5543
  164SAPE  H11R18366   5.831   5.294   3.778  0.9748 -0.2108 -2.8675
  164SAPE  C21218367   5.666   5.201   3.849  0.9513 -0.2192  0.2303
  164SAPE  H12R18368   5.697   5.210   3.954  2.5438 -0.8879 -0.1508
  164SAPE  C21318369   5.534   5.130   3.841  0.4012 -0.2497 -0.6377
  164SAPE  H13R18370   5.529   5.033   3.895 -1.6347  0.4114  0.4595
  164SAPE  H13S18371   5.493   5.101   3.741 -3.4926 -1.2880  1.0769
  164SAPE  C21418372   5.432   5.224   3.905 -0.2373  0.0370  0.1449
  164SAPE  H14R18373   5.429   5.313   3.841 -0.9969 -0.2509 -0.2340
  164SAPE  C21518374   5.369   5.214   4.018  0.4641 -0.6415  0.8711
  164SAPE  H15R18375   5.299   5.295   4.044  1.6815  1.0162 -0.7612
  164SAPE  C21618376   5.382   5.107   4.118  0.3638  0.1648  0.5276
  164SAPE  H16R18377   5.367   5.161   4.215 -2.5352 -1.5774  1.1624
  164SAPE  H16S18378   5.481   5.059   4.132  0.7112  0.7683  0.1719
  164SAPE  C21718379   5.277   4.994   4.119  0.7193  0.1679 -0.1270
  164SAPE  H17R18380   5.313   4.926   4.039 -0.1253 -1.1389  0.5599
  164SAPE  H17S18381   5.176   5.027   4.086 -1.1397 -2.7424  2.0727
  164SAPE  C21818382   5.268   4.917   4.246  0.0637  0.5557  0.2647
  164SAPE  H18R18383   5.246   4.991   4.325 -0.8415  0.3910  0.1810
  164SAPE  H18S18384   5.369   4.877   4.268 -0.0667  0.1160  0.0959
  164SAPE  C21918385   5.155   4.806   4.242 -0.0230 -0.1552 -0.9756
  164SAPE  H19R18386   5.159   4.760   4.141  0.9700 -1.3866 -0.4016
  164SAPE  H19S18387   5.061   4.864   4.252  1.2448  1.8851 -0.3097
  164SAPE  C22018388   5.176   4.704   4.356  0.1548  0.7138 -0.1193
  164SAPE  H20R18389   5.279   4.663   4.353 -0.7448 -1.9118  1.3519
  164SAPE  H20S18390   5.101   4.622   4.357  0.3558  0.5375  0.5393
  164SAPE  H20T18391   5.182   4.761   4.451  1.6703 -1.6068  1.2527
  164SAPE   C3318392   5.887   4.672   2.976  0.9313  0.1850 -0.0429
  164SAPE   H3X18393   5.959   4.748   3.013 -0.8296  0.9858  1.9846
  164SAPE   H3Y18394   5.926   4.569   2.988 -0.4469 -0.5145 -1.2498
  164SAPE   C3418395   5.763   4.684   3.068 -0.2329  0.8158 -0.0839
  164SAPE   H4X18396   5.687   4.609   3.040  0.7467 -0.5694  0.8628
  164SAPE   H4Y18397   5.717   4.784   3.050 -0.6331  0.2880 -2.3216
  164SAPE   C3518398   5.792   4.663   3.219  0.3961  0.4154 -0.0813
  164SAPE   H5X18399   5.854   4.746   3.258 -0.1343  0.8551 -0.1559
  164SAPE   H5Y18400   5.850   4.570   3.238  2.3703  1.7825  0.9254
  164SAPE   C3618401   5.665   4.630   3.305  0.7993 -0.3312 -0.4664
  164SAPE   H6X18402   5.713   4.601   3.401  1.4534 -1.3785 -1.0855
  164SAPE   H6Y18403   5.603   4.548   3.262 -0.2256 -0.0370  0.4169
  164SAPE   C3718404   5.576   4.756   3.314 -0.1445 -0.2937  0.2244
  164SAPE   H7X18405   5.509   4.765   3.226 -0.9894  2.4320  1.0434
  164SAPE   H7Y18406   5.644   4.844   3.313  1.9402 -1.8219  1.2183
  164SAPE   C3818407   5.477   4.764   3.429  0.6757  0.1487 -0.2918
  164SAPE   H8X18408   5.408   4.677   3.426  1.0068 -0.1023 -0.8550
  164SAPE   H8Y18409   5.426   4.862   3.418  1.5739  0.7458  0.7227
  164SAPE   C3918410   5.548   4.765   3.563 -0.3837  0.3492 -0.3716
  164SAPE   H9X18411   5.611   4.854   3.543 -0.6266  0.7388  0.5404
  164SAPE   H9Y18412   5.597   4.667   3.580  0.8864  1.1008  0.4111
  164SAPE  C31018413   5.444   4.772   3.673 -0.4032 -0.2949  0.4699
  164SAPE  H10X18414   5.380   4.683   3.662  0.1836 -0.5426 -1.1757
  164SAPE  H10Y18415   5.398   4.873   3.664  0.6952  0.1217 -0.7531
  164SAPE  C31118416   5.518   4.753   3.803 -0.0521 -0.6505  0.1041
  164SAPE  H11X18417   5.454   4.791   3.886 -0.8762 -0.7484 -0.4732
  164SAPE  H11Y18418   5.603   4.823   3.791 -1.7069  1.9724  2.2990
  164SAPE  C31218419   5.563   4.613   3.838 -0.3003  0.2006 -0.5621
  164SAPE  H12X18420   5.640   4.587   3.763 -1.4379 -2.0178 -1.0521
  164SAPE  H12Y18421   5.478   4.542   3.842 -2.0467  2.2576  0.6938
  164SAPE  C31318422   5.639   4.605   3.977 -0.2207  0.1206 -0.0356
  164SAPE  H13X18423   5.734   4.663   3.977  0.3110 -0.7119 -0.9879
  164SAPE  H13Y18424   5.675   4.500   3.983  2.0659  0.8762  0.8529
  164SAPE  C31418425   5.548   4.640   4.093 -0.1589 -0.2937  0.5314
  164SAPE  H14X18426   5.447   4.594   4.087 -0.8067  1.0857  0.3137
  164SAPE  H14Y18427   5.537   4.751   4.095 -2.1410 -0.4207 -0.2936
  164SAPE  C31518428   5.579   4.588   4.229 -0.2705  0.8788  0.7203
  164SAPE  H15X18429   5.593   4.477   4.227 -2.3263  0.5742  0.9939
  164SAPE  H15Y18430   5.496   4.610   4.300 -0.7508  1.1400  0.0846
  164SAPE  C31618431   5.710   4.649   4.283  0.6290 -0.2417  0.1797
  164SAPE  H16X18432   5.694   4.753   4.319  1.4724 -0.5061  1.3707
  164SAPE  H16Y18433   5.781   4.665   4.198 -0.6901  0.8432 -0.7647
  164SAPE  C31718434   5.785   4.563   4.388 -0.2393 -0.2258 -0.4248
  164SAPE  H17X18435   5.793   4.454   4.365 -0.8113 -0.5433  0.8164
  164SAPE  H17Y18436   5.722   4.557   4.479  0.9255  1.7232  0.5556
  164SAPE  C31818437   5.921   4.614   4.427  0.2844  0.2808 -0.1142
  164SAPE  H18X18438   5.947   4.547   4.511 -5.7856  0.9257  2.7574
  164SAPE  H18Y18439   5.919   4.723   4.451  1.0767  1.0766 -3.1984
  164SAPE  H18Z18440   5.983   4.604   4.335 -0.1690  1.7081 -0.5997
  165SAPE     N18441   4.243   6.526   2.028 -0.3143 -0.1212 -0.0704
  165SAPE   HN118442   4.143   6.516   2.054  0.3472  1.4495  3.6060
  165SAPE   HN218443   4.272   6.588   2.106  2.1680 -1.3286  0.0558
  165SAPE   HN318444   4.243   6.581   1.940 -1.8749 -1.5866 -1.0547
  165SAPE   C1218445   4.337   6.405   2.024  0.2923 -0.3477 -0.2524
  165SAPE  H12A18446   4.303   6.325   1.955  0.4726 -1.6293  1.0850
  165SAPE  H12B18447   4.351   6.363   2.126 -2.4871  0.6885  0.6613
  165SAPE   C1118448   4.484   6.451   1.977  0.3828 -0.3071 -0.0906
  165SAPE  H11A18449   4.464   6.476   1.871 -2.8205  1.2243  0.7646
  165SAPE  H11B18450   4.546   6.359   1.986 -0.7683 -0.9958  1.1883
  165SAPE     P18451   4.686   6.586   2.044  0.4388 -0.3195  0.0323
  165SAPE   O1318452   4.733   6.575   1.902  0.3693  0.3500 -0.5447
  165SAPE   O1418453   4.716   6.710   2.119 -0.4035  0.3293  0.3189
  165SAPE   O1218454   4.531   6.565   2.049  0.7964 -0.1546 -0.0315
  165SAPE   O1118455   4.736   6.463   2.122 -0.5835 -0.1628  0.5268
  165SAPE    C118456   4.684   6.403   2.243 -0.7489  0.1615 -0.0738
  165SAPE    HA18457   4.624   6.472   2.307  0.1061 -0.8141  1.8263
  165SAPE    HB18458   4.621   6.317   2.213  1.1331 -1.1393 -0.4143
  165SAPE    C218459   4.802   6.359   2.340 -0.1467 -0.0635  0.1981
  165SAPE    HS18460   4.765   6.341   2.443  0.0161 -0.0066  0.2681
  165SAPE   O2118461   4.914   6.457   2.349  0.5858  0.0152  0.6712
  165SAPE   C2118462   4.886   6.578   2.388 -0.3471  0.2580  0.1171
  165SAPE   O2218463   4.796   6.615   2.458 -0.4498  0.1217 -0.4235
  165SAPE   C2218464   4.987   6.666   2.337 -0.4732  0.3197  0.0298
  165SAPE   H2R18465   4.994   6.644   2.228  0.2116 -1.1304  0.3403
  165SAPE   H2S18466   4.956   6.771   2.353 -0.9605  0.4390 -1.5460
  165SAPE    C318467   4.864   6.226   2.294 -0.2889  1.2283  0.2039
  165SAPE    HX18468   4.899   6.257   2.193 -0.2471 -0.4637 -0.3180
  165SAPE    HY18469   4.781   6.154   2.275  0.3196  0.3229  0.9448
  165SAPE   O3118470   4.960   6.176   2.392 -0.0656 -0.0680 -0.0252
  165SAPE   C3118471   5.082   6.208   2.356 -0.6816 -0.4908  0.1348
  165SAPE   O3218472   5.118   6.251   2.248  0.0809  0.4116  0.3975
  165SAPE   C3218473   5.182   6.178   2.469  0.4396 -0.2950 -0.3469
  165SAPE   H2X18474   5.270   6.246   2.459 -0.2410  0.7889  0.7258
  165SAPE   H2Y18475   5.223   6.077   2.449 -0.0118 -0.4436 -0.5290
  165SAPE   C2318476   5.119   6.646   2.414  0.2469 -0.2638  0.2807
  165SAPE   H3R18477   5.190   6.699   2.347 -0.2059 -0.2464 -0.1899
  165SAPE   H3S18478   5.164   6.544   2.414  1.9151  0.4208 -1.2431
  165SAPE   C2418479   5.122   6.717   2.552 -0.4684 -0.6243 -0.1295
  165SAPE   H4R18480   5.054   6.662   2.621  0.7603 -0.4174  1.2852
  165SAPE   H4S18481   5.075   6.817   2.540 -0.6077 -0.2688  2.6181
  165SAPE   C2518482   5.258   6.741   2.612 -0.3636  0.4552  0.4938
  165SAPE   H5R18483   5.339   6.690   2.557 -0.7846 -0.3293  0.5964
  165SAPE   C2618484   5.277   6.794   2.735 -0.4844 -0.5514  0.0256
  165SAPE   H6R18485   5.379   6.792   2.776  0.0930 -1.0052 -1.3504
  165SAPE   C2718486   5.172   6.863   2.812 -0.1137 -0.4395  0.0909
  165SAPE   H7R18487   5.116   6.779   2.857  2.4813 -3.7139 -2.2957
  165SAPE   H7S18488   5.105   6.927   2.751 -0.9519 -0.9984  0.4012
  165SAPE   C2818489   5.243   6.946   2.913 -0.6233 -1.2333  0.2462
  165SAPE   H8R18490   5.314   6.889   2.976 -1.8902 -2.0727  0.9694
  165SAPE   C2918491   5.221   7.074   2.946 -0.4715 -0.6251 -0.3008
  165SAPE   H9R18492   5.266   7.120   3.035  0.1940  1.3445 -1.5905
  165SAPE  C21018493   5.106   7.162   2.892 -1.0081 -0.0819  0.3321
  165SAPE  H10R18494   5.106   7.156   2.781  0.5456  2.1135  0.1343
  165SAPE  H10S18495   5.133   7.268   2.911 -0.1545  0.0792 -1.4963
  165SAPE  C21118496   4.975   7.119   2.950 -0.0825 -0.1983 -0.2766
  165SAPE  H11R18497   4.921   7.057   2.878  0.9964  0.9225 -2.1396
  165SAPE  C21218498   4.926   7.144   3.071 -0.0155 -0.4639  0.3481
  165SAPE  H12R18499   4.822   7.111   3.087 -1.2208  1.0738 -3.1515
  165SAPE  C21318500   4.989   7.221   3.185 -0.2316  0.4529 -0.2362
  165SAPE  H13R18501   5.099   7.229   3.171  0.0566 -2.2964 -0.1319
  165SAPE  H13S18502   4.987   7.148   3.269  3.1749 -0.0040 -0.4080
  165SAPE  C21418503   4.927   7.353   3.214 -0.0941 -0.3899  0.2701
  165SAPE  H14R18504   4.895   7.403   3.121  0.2513 -3.0367 -1.3774
  165SAPE  C21518505   4.905   7.410   3.336 -0.2932 -0.2529  0.4507
  165SAPE  H15R18506   4.868   7.513   3.346 -0.1311 -0.3953  3.2754
  165SAPE  C21618507   4.932   7.342   3.470  0.4927 -0.0959  0.4240
  165SAPE  H16R18508   5.033   7.377   3.501  0.5299 -0.2714  0.4992
  165SAPE  H16S18509   4.943   7.232   3.457 -0.1378 -0.2903  1.4122
  165SAPE  C21718510   4.829   7.374   3.578  0.5145 -1.0260 -0.8731
  165SAPE  H17R18511   4.864   7.321   3.669 -0.1945  0.9863  0.6419
  165SAPE  H17S18512   4.734   7.326   3.548 -1.1998  1.1206  0.8429
  165SAPE  C21818513   4.801   7.525   3.606  0.1459  0.5042  0.6172
  165SAPE  H18R18514   4.752   7.569   3.516  0.3153  1.1156  0.8147
  165SAPE  H18S18515   4.899   7.578   3.602 -1.0092  2.7883  0.6178
  165SAPE  C21918516   4.725   7.552   3.735 -0.7000 -0.1475 -0.0794
  165SAPE  H19R18517   4.625   7.504   3.731 -0.2550 -1.0678 -0.2564
  165SAPE  H19S18518   4.713   7.662   3.744  2.8887  0.3989 -0.5976
  165SAPE  C22018519   4.801   7.520   3.859  0.0489  0.0852 -0.5353
  165SAPE  H20R18520   4.826   7.412   3.867 -1.1159 -0.0968  1.4883
  165SAPE  H20S18521   4.743   7.569   3.941 -0.3278  2.5156 -2.1403
  165SAPE  H20T18522   4.894   7.577   3.876 -0.0979 -0.1409  1.2308
  165SAPE   C3318523   5.128   6.189   2.615 -0.4798 -0.3708 -0.3978
  165SAPE   H3X18524   5.208   6.158   2.685 -0.7178 -0.1128 -0.0083
  165SAPE   H3Y18525   5.041   6.120   2.625 -0.6470 -0.4656 -2.1863
  165SAPE   C3418526   5.080   6.340   2.638 -0.1644 -0.4720  0.9359
  165SAPE   H4X18527   4.998   6.369   2.568  1.2914 -1.1102 -1.1183
  165SAPE   H4Y18528   5.163   6.410   2.616 -2.6668  2.2628 -0.5290
  165SAPE   C3518529   5.033   6.354   2.793  0.3141 -0.3104  0.3843
  165SAPE   H5X18530   5.122   6.328   2.854  0.6790 -1.2458 -0.5111
  165SAPE   H5Y18531   4.947   6.284   2.800  0.6863 -0.7454  0.6288
  165SAPE   C3618532   4.991   6.495   2.834 -0.0268  0.2259 -0.1744
  165SAPE   H6X18533   4.899   6.521   2.779  0.9696  2.1087 -1.0591
  165SAPE   H6Y18534   5.066   6.570   2.799  1.4745 -0.9202  0.4364
  165SAPE   C3718535   4.952   6.505   2.979  0.0481  0.0394  0.3549
  165SAPE   H7X18536   5.032   6.463   3.043  0.6657 -0.9320 -1.0001
  165SAPE   H7Y18537   4.858   6.448   2.993  0.2309 -0.4897 -0.4831
  165SAPE   C3818538   4.912   6.641   3.029 -0.5972  0.4824  0.2282
  165SAPE   H8X18539   4.842   6.695   2.962  0.3677  0.9394 -0.4364
  165SAPE   H8Y18540   5.009   6.695   3.020  0.6309 -1.5026  0.6979
  165SAPE   C3918541   4.857   6.644   3.170  0.1705 -0.6744 -0.7779
  165SAPE   H9X18542   4.925   6.582   3.231 -0.7230 -1.3766 -0.4709
  165SAPE   H9Y18543   4.758   6.593   3.171  0.4471 -1.4135 -3.3785
  165SAPE  C31018544   4.847   6.784   3.228  0.7660 -0.3234 -0.4026
  165SAPE  H10X18545   4.756   6.829   3.184  0.5297 -0.3874  0.0200
  165SAPE  H10Y18546   4.946   6.833   3.214  1.0196 -0.6975  0.0464
  165SAPE  C31118547   4.830   6.781   3.381 -0.0434  0.6579 -0.3574
  165SAPE  H11X18548   4.917   6.737   3.435  0.6603 -0.1243 -2.0413
  165SAPE  H11Y18549   4.745   6.712   3.400 -0.8516  0.8327 -2.9156
  165SAPE  C31218550   4.809   6.919   3.437 -0.3061  0.3169 -0.2702
  165SAPE  H12X18551   4.748   6.983   3.370 -2.5600 -0.8975  0.4982
  165SAPE  H12Y18552   4.905   6.972   3.453 -1.5522  2.1461  1.5890
  165SAPE  C31318553   4.746   6.921   3.578 -0.6445  0.9535  0.0263
  165SAPE  H13X18554   4.791   6.838   3.636  0.6124  2.2941  1.0415
  165SAPE  H13Y18555   4.635   6.912   3.576 -0.8128  0.6977  3.6461
  165SAPE  C31418556   4.778   7.051   3.666  1.0160  0.4994 -0.0584
  165SAPE  H14X18557   4.797   7.135   3.596  1.2070  2.1929  1.9374
  165SAPE  H14Y18558   4.871   7.035   3.724  0.5218  0.5384  0.7739
  165SAPE  C31518559   4.663   7.084   3.762  0.1025  0.1102  0.5243
  165SAPE  H15X18560   4.583   7.132   3.701  1.0894  1.1017 -0.0118
  165SAPE  H15Y18561   4.698   7.158   3.837  0.2996 -1.6907  2.2804
  165SAPE  C31618562   4.600   6.964   3.848  0.3671  0.4216  0.2043
  165SAPE  H16X18563   4.578   6.877   3.782 -0.5885  0.6764  0.1729
  165SAPE  H16Y18564   4.508   7.002   3.896  0.3923 -0.3351  0.8529
  165SAPE  C31718565   4.679   6.928   3.974 -0.0437  0.4612  1.2640
  165SAPE  H17X18566   4.704   7.022   4.028  0.5173  1.7149 -1.0065
  165SAPE  H17Y18567   4.777   6.893   3.935 -0.6979  0.3284 -0.3229
  165SAPE  C31818568   4.615   6.820   4.053 -0.0610  0.2416 -0.2264
  165SAPE  H18X18569   4.660   6.811   4.154  0.4668  1.2860 -0.3634
  165SAPE  H18Y18570   4.622   6.725   3.995  2.4998  1.2487 -1.7581
  165SAPE  H18Z18571   4.507   6.841   4.071  0.3245  0.9802  1.4664
  166SAPE     N18572   6.256   5.527   2.265  0.5314 -0.2388  0.3047
  166SAPE   HN118573   6.240   5.514   2.163 -1.1489 -0.9502  0.6145
  166SAPE   HN218574   6.349   5.574   2.264  1.2969 -1.6033  1.8458
  166SAPE   HN318575   6.258   5.429   2.302  0.2441  0.0588  1.1444
  166SAPE   C1218576   6.148   5.605   2.338 -0.5764  0.2283  0.5553
  166SAPE  H12A18577   6.203   5.671   2.409 -0.0256  1.1104 -0.6712
  166SAPE  H12B18578   6.084   5.524   2.380  1.6946 -2.6365 -1.1690
  166SAPE   C1118579   6.069   5.707   2.247  0.2245  0.4981 -0.1238
  166SAPE  H11A18580   5.981   5.748   2.300 -0.8925  2.5814 -3.2937
  166SAPE  H11B18581   6.027   5.647   2.164 -1.0050  2.4700 -1.0058
  166SAPE     P18582   6.218   5.928   2.244  0.0285 -0.4556 -0.3256
  166SAPE   O1318583   6.326   5.875   2.330  0.4121  0.6261  0.0148
  166SAPE   O1418584   6.251   6.018   2.133  0.4133 -0.2033 -0.0681
  166SAPE   O1218585   6.155   5.802   2.177  0.4348 -0.2274  0.6876
  166SAPE   O1118586   6.094   5.988   2.329  0.1928  0.9393 -0.2394
  166SAPE    C118587   5.988   6.068   2.269 -0.1041  0.3167 -0.4184
  166SAPE    HA18588   5.958   6.031   2.168  0.3027  0.1092 -0.4657
  166SAPE    HB18589   5.892   6.057   2.325  0.8872  2.4286  1.8909
  166SAPE    C218590   6.006   6.222   2.249  0.0698  0.3232 -0.9994
  166SAPE    HS18591   6.111   6.245   2.224  1.1534 -0.7087  2.0437
  166SAPE   O2118592   5.978   6.289   2.372  0.2577 -0.0682 -0.5357
  166SAPE   C2118593   6.074   6.285   2.466 -0.0048  0.2678 -0.1057
  166SAPE   O2218594   6.191   6.253   2.451 -0.0606 -0.5206 -0.7851
  166SAPE   C2218595   6.017   6.336   2.597 -0.2682 -0.7184 -0.0034
  166SAPE   H2R18596   6.078   6.423   2.629 -0.0928 -1.4426  1.7314
  166SAPE   H2S18597   5.913   6.375   2.590  0.2608  0.6735 -0.3253
  166SAPE    C318598   5.907   6.269   2.143 -0.1906 -0.9250  0.1356
  166SAPE    HX18599   5.931   6.214   2.050  0.5866 -0.3017 -0.0496
  166SAPE    HY18600   5.941   6.374   2.126  0.9249 -0.8717  2.2341
  166SAPE   O3118601   5.766   6.264   2.172 -0.6845  0.1262 -0.2813
  166SAPE   C3118602   5.710   6.367   2.221  0.2458 -0.4313 -0.3843
  166SAPE   O3218603   5.768   6.475   2.247  0.5239  0.2227  0.1827
  166SAPE   C3218604   5.564   6.338   2.267  0.8836 -0.5695 -0.0612
  166SAPE   H2X18605   5.548   6.228   2.263  1.8601 -0.7219  0.2075
  166SAPE   H2Y18606   5.496   6.401   2.204  1.1269 -0.5165 -0.2712
  166SAPE   C2318607   6.017   6.227   2.707  0.5429 -0.4164 -0.1326
  166SAPE   H3R18608   6.107   6.239   2.771 -0.4517 -2.7944  1.8582
  166SAPE   H3S18609   6.014   6.127   2.658  0.7108  0.1437 -1.3114
  166SAPE   C2418610   5.896   6.243   2.800 -0.4619  0.2563  0.1132
  166SAPE   H4R18611   5.904   6.153   2.865 -0.9161 -0.7012 -1.1271
  166SAPE   H4S18612   5.806   6.230   2.736 -0.9634 -2.5642  1.2403
  166SAPE   C2518613   5.897   6.376   2.867 -0.0120 -0.8432 -0.2788
  166SAPE   H5R18614   5.819   6.451   2.850  0.3191 -0.1475  1.1306
  166SAPE   C2618615   5.967   6.400   2.979  0.1825 -0.6821 -0.1148
  166SAPE   H6R18616   5.958   6.499   3.026  0.6573 -0.7627  0.1474
  166SAPE   C2718617   6.059   6.307   3.055 -0.2384 -0.2783 -0.0549
  166SAPE   H7R18618   6.145   6.366   3.095 -0.2713 -0.3031  0.0535
  166SAPE   H7S18619   6.107   6.229   2.993 -1.4164  0.0437 -1.4215
  166SAPE   C2818620   5.981   6.238   3.164  0.1919  0.2529  0.2399
  166SAPE   H8R18621   5.900   6.172   3.130  1.5719 -1.5869  0.4397
  166SAPE   C2918622   6.003   6.236   3.296 -0.3518 -0.1420  0.1574
  166SAPE   H9R18623   5.927   6.180   3.353 -0.7467  0.5429  0.3200
  166SAPE  C21018624   6.099   6.326   3.379 -0.1964  0.1535  0.5218
  166SAPE  H10R18625   6.173   6.381   3.316 -0.3188 -0.8540 -0.5503
  166SAPE  H10S18626   6.171   6.266   3.438  0.4269 -0.9137 -1.2256
  166SAPE  C21118627   6.037   6.436   3.458 -0.0518 -0.5882  0.0250
  166SAPE  H11R18628   5.996   6.519   3.399 -3.8421 -0.7405  2.0999
  166SAPE  C21218629   6.030   6.457   3.593  0.3663  0.5463 -0.4396
  166SAPE  H12R18630   5.977   6.545   3.631  0.2857 -0.5865  2.2995
  166SAPE  C21318631   6.095   6.356   3.691  0.9505  0.3283  0.2942
  166SAPE  H13R18632   6.200   6.338   3.662  1.0388  2.0594 -0.5445
  166SAPE  H13S18633   6.045   6.257   3.683 -1.3631  1.5814 -3.1506
  166SAPE  C21418634   6.086   6.395   3.838  0.4911  0.3540  0.0009
  166SAPE  H14R18635   6.176   6.443   3.880  0.6129  1.0819 -1.0616
  166SAPE  C21518636   5.969   6.389   3.914 -0.0547 -1.1987 -0.0037
  166SAPE  H15R18637   5.980   6.414   4.020 -0.5033 -2.5740  0.3988
  166SAPE  C21618638   5.838   6.327   3.868  0.1777 -0.5111  0.2044
  166SAPE  H16R18639   5.843   6.314   3.757  0.3620 -1.1740  0.2851
  166SAPE  H16S18640   5.748   6.388   3.889  0.1374  0.2916 -2.0228
  166SAPE  C21718641   5.835   6.188   3.938  0.0304 -0.6351  0.3701
  166SAPE  H17R18642   5.927   6.134   3.908  0.2426 -0.3351  0.4808
  166SAPE  H17S18643   5.750   6.131   3.896  0.8256 -3.3540  2.2119
  166SAPE  C21818644   5.815   6.198   4.091 -0.0471  0.1659 -0.2162
  166SAPE  H18R18645   5.715   6.241   4.113 -1.2400 -1.7220 -1.5962
  166SAPE  H18S18646   5.886   6.268   4.139  1.9185 -0.9139 -1.4295
  166SAPE  C21918647   5.824   6.066   4.166  0.2046 -0.8210  0.4712
  166SAPE  H19R18648   5.913   6.010   4.129  1.2990  2.5514 -2.4985
  166SAPE  H19S18649   5.739   6.004   4.129 -0.4310 -0.0711  0.6634
  166SAPE  C22018650   5.841   6.073   4.318  0.4552  0.2341 -0.2021
  166SAPE  H20R18651   5.747   6.094   4.373  0.5609  0.1725  0.0008
  166SAPE  H20S18652   5.916   6.147   4.352 -1.3369  1.8860  0.3281
  166SAPE  H20T18653   5.882   5.978   4.357 -1.4835  0.0547  1.5547
  166SAPE   C3318654   5.540   6.384   2.416  0.1382 -0.7969 -0.4526
  166SAPE   H3X18655   5.435   6.413   2.434  0.6477 -0.6224  2.8317
  166SAPE   H3Y18656   5.598   6.477   2.432 -2.4743  0.9417 -0.5319
  166SAPE   C3418657   5.586   6.283   2.516 -0.0187  0.3868 -0.2451
  166SAPE   H4X18658   5.697   6.292   2.521  0.0511  0.1867 -1.3041
  166SAPE   H4Y18659   5.569   6.176   2.493 -2.9833  0.4383  1.3331
  166SAPE   C3518660   5.518   6.288   2.649 -0.0505 -0.9406 -0.5031
  166SAPE   H5X18661   5.588   6.239   2.720  0.2576 -1.0469 -0.8752
  166SAPE   H5Y18662   5.420   6.236   2.652  0.2663 -1.4913  1.2529
  166SAPE   C3618663   5.508   6.434   2.708  0.1896  0.0071 -0.1576
  166SAPE   H6X18664   5.436   6.502   2.657  1.3668  0.4388 -1.2942
  166SAPE   H6Y18665   5.598   6.498   2.697  0.4864 -0.4087 -0.1597
  166SAPE   C3718666   5.471   6.406   2.857  0.0664  0.2456 -0.2973
  166SAPE   H7X18667   5.564   6.380   2.912 -0.7880 -0.3907  0.9077
  166SAPE   H7Y18668   5.395   6.325   2.846  0.1571  0.2117 -0.6942
  166SAPE   C3818669   5.399   6.512   2.930  0.6852 -0.4412 -0.1484
  166SAPE   H8X18670   5.301   6.526   2.880 -0.5529 -0.0417  2.2653
  166SAPE   H8Y18671   5.444   6.611   2.909 -0.0626  0.0117  0.3398
  166SAPE   C3918672   5.367   6.506   3.081 -0.2057  0.1420 -0.0780
  166SAPE   H9X18673   5.443   6.437   3.123 -0.6535 -0.9550 -1.0192
  166SAPE   H9Y18674   5.281   6.436   3.088  1.9582 -3.0143 -2.2615
  166SAPE  C31018675   5.367   6.646   3.140  0.4111 -0.0499  0.0179
  166SAPE  H10X18676   5.321   6.713   3.063  0.5084 -0.6399 -0.5673
  166SAPE  H10Y18677   5.470   6.685   3.150  1.3379 -2.7528  2.0307
  166SAPE  C31118678   5.288   6.652   3.270 -0.0353 -0.8294  0.3863
  166SAPE  H11X18679   5.348   6.611   3.355 -0.2184  0.0047  0.9311
  166SAPE  H11Y18680   5.205   6.580   3.254 -0.3603 -0.1662 -1.0921
  166SAPE  C31218681   5.237   6.795   3.297 -0.8781 -0.6003 -0.0994
  166SAPE  H12X18682   5.136   6.788   3.343 -0.7302  1.6601  0.7352
  166SAPE  H12Y18683   5.218   6.839   3.197 -0.5247  0.8628  0.4453
  166SAPE  C31318684   5.322   6.880   3.382 -0.3942 -0.2559 -0.2842
  166SAPE  H13X18685   5.431   6.875   3.359 -0.6553  0.2536 -1.7341
  166SAPE  H13Y18686   5.314   6.842   3.486 -0.6369  2.2851  0.7087
  166SAPE  C31418687   5.273   7.030   3.370 -0.5125 -0.0623  0.7604
  166SAPE  H14X18688   5.176   7.042   3.422 -0.7953  1.2014 -0.0133
  166SAPE  H14Y18689   5.268   7.046   3.260 -0.2937 -0.1383  0.7391
  166SAPE  C31518690   5.370   7.130   3.435 -0.0554  0.0539  0.1783
  166SAPE  H15X18691   5.327   7.232   3.438 -1.8134 -0.6608  1.2068
  166SAPE  H15Y18692   5.469   7.139   3.386 -0.2788  1.0402 -0.1179
  166SAPE  C31618693   5.410   7.097   3.582 -0.4044  0.3269 -0.4988
  166SAPE  H16X18694   5.401   6.986   3.589  1.8114 -0.1194 -3.0696
  166SAPE  H16Y18695   5.350   7.145   3.662 -0.0416 -1.0204  0.6185
  166SAPE  C31718696   5.557   7.131   3.613  0.3458 -0.4117 -0.2041
  166SAPE  H17X18697   5.597   7.228   3.577  1.6444 -0.9730 -0.3461
  166SAPE  H17Y18698   5.622   7.065   3.552 -0.6718 -0.0650 -1.7280
  166SAPE  C31818699   5.576   7.094   3.761 -0.4079  0.0272 -0.1542
  166SAPE  H18X18700   5.558   6.990   3.795 -0.6033  0.7611  2.1477
  166SAPE  H18Y18701   5.514   7.156   3.829  0.5115  0.3881  0.3789
  166SAPE  H18Z18702   5.678   7.108   3.803 -0.5844 -3.2463  1.7476
  167SAPE     N18703   6.569   4.232   1.766  0.6440  0.2959 -0.6480
  167SAPE   HN118704   6.647   4.245   1.699  2.0547 -1.7285  0.5082
  167SAPE   HN218705   6.584   4.130   1.782  4.3717  1.1032  2.5357
  167SAPE   HN318706   6.482   4.258   1.716  1.6625  0.6476 -2.3183
  167SAPE   C1218707   6.578   4.304   1.898 -0.2208 -0.7761 -0.2769
  167SAPE  H12A18708   6.592   4.413   1.880  1.2333 -1.1766 -1.8207
  167SAPE  H12B18709   6.670   4.282   1.957 -0.3996 -1.4487 -0.2478
  167SAPE   C1118710   6.463   4.294   2.001  0.0074 -0.3256  0.0138
  167SAPE  H11A18711   6.445   4.185   2.017 -1.3224 -0.0066  0.8752
  167SAPE  H11B18712   6.363   4.334   1.973 -0.5254 -0.0482  2.1653
  167SAPE     P18713   6.433   4.473   2.189 -0.3256 -0.0869  0.1357
  167SAPE   O1318714   6.520   4.530   2.293  0.5018  0.0763 -0.3056
  167SAPE   O1418715   6.393   4.562   2.081  0.8693 -0.0364  0.1048
  167SAPE   O1218716   6.511   4.350   2.123  0.1740  0.0476  0.5066
  167SAPE   O1118717   6.299   4.412   2.251 -0.1766 -0.1331  1.2966
  167SAPE    C118718   6.287   4.276   2.308  0.1133  0.1142 -0.0694
  167SAPE    HA18719   6.236   4.216   2.230  1.5041 -0.6374 -0.4356
  167SAPE    HB18720   6.384   4.222   2.315 -0.6603 -1.3184  0.0911
  167SAPE    C218721   6.206   4.276   2.443  0.2257 -0.7576  0.0003
  167SAPE    HS18722   6.232   4.184   2.500 -0.3777  0.3713  2.2191
  167SAPE   O2118723   6.061   4.297   2.420 -0.0837  0.2748 -0.0686
  167SAPE   C2118724   5.988   4.185   2.411 -0.6592  0.1051  0.3834
  167SAPE   O2218725   6.036   4.071   2.414 -0.0508 -0.2039  0.2249
  167SAPE   C2218726   5.841   4.216   2.408  0.2405 -0.6023 -0.3608
  167SAPE   H2R18727   5.814   4.241   2.303  3.2449 -0.2123 -1.1372
  167SAPE   H2S18728   5.783   4.127   2.441  0.4276 -1.1066 -1.3485
  167SAPE    C318729   6.274   4.377   2.541  0.1402 -0.4387  0.3100
  167SAPE    HX18730   6.237   4.479   2.519 -0.1739 -0.4631  0.7028
  167SAPE    HY18731   6.384   4.359   2.540  0.1735 -0.2363  0.1232
  167SAPE   O3118732   6.221   4.349   2.674  0.2497  0.1587  0.2445
  167SAPE   C3118733   6.287   4.415   2.770 -0.3865 -0.2100 -0.1968
  167SAPE   O3218734   6.382   4.488   2.751  0.3664 -0.7021 -0.4139
  167SAPE   C3218735   6.232   4.377   2.909 -0.3566 -0.4169  0.8455
  167SAPE   H2X18736   6.315   4.314   2.949  1.9659 -1.2392 -4.4116
  167SAPE   H2Y18737   6.137   4.321   2.899  0.6782 -2.0322 -0.5455
  167SAPE   C2318738   5.796   4.325   2.510  0.6456  0.6495  0.2614
  167SAPE   H3R18739   5.686   4.318   2.525  0.3152  1.1185 -1.6853
  167SAPE   H3S18740   5.824   4.426   2.472 -1.9475  1.0973 -0.6652
  167SAPE   C2418741   5.849   4.305   2.654 -0.1405  0.2462 -0.1666
  167SAPE   H4R18742   5.822   4.393   2.716 -1.1094 -0.6750  0.7608
  167SAPE   H4S18743   5.960   4.309   2.657 -0.1326 -0.2852  0.6181
  167SAPE   C2518744   5.806   4.177   2.720  0.2286  0.1821 -0.7564
  167SAPE   H5R18745   5.874   4.091   2.712 -1.2530 -1.1073 -0.0070
  167SAPE   C2618746   5.689   4.172   2.784 -0.2831 -1.2240  0.1143
  167SAPE   H6R18747   5.642   4.084   2.832 -2.5285 -0.2833 -0.2224
  167SAPE   C2718748   5.597   4.289   2.807  0.1982  0.2560  0.1479
  167SAPE   H7R18749   5.590   4.345   2.711  0.0648 -1.8358 -1.1245
  167SAPE   H7S18750   5.637   4.364   2.879  1.4160 -0.5627  0.3666
  167SAPE   C2818751   5.457   4.259   2.834  0.0881 -0.0075  0.3474
  167SAPE   H8R18752   5.411   4.195   2.757 -0.1876 -1.9301  2.0258
  167SAPE   C2918753   5.378   4.322   2.924 -0.6466  0.0271 -0.3863
  167SAPE   H9R18754   5.270   4.298   2.929 -0.9773  1.2043 -1.3901
  167SAPE  C21018755   5.419   4.418   3.030 -0.7065 -0.4989  0.6397
  167SAPE  H10R18756   5.350   4.505   3.034  1.5567  1.3858  0.8308
  167SAPE  H10S18757   5.519   4.461   3.005 -1.4509  1.2898  0.5909
  167SAPE  C21118758   5.424   4.365   3.172 -0.0210 -0.3442  0.1600
  167SAPE  H11R18759   5.324   4.361   3.219 -0.9645  2.9702 -1.3376
  167SAPE  C21218760   5.518   4.298   3.241  0.0152  0.7219  0.7354
  167SAPE  H12R18761   5.496   4.271   3.345  0.2726  1.3312  0.9529
  167SAPE  C21318762   5.653   4.273   3.179  0.3852  0.1072 -0.1813
  167SAPE  H13R18763   5.712   4.367   3.173 -0.3825  0.8173  2.3063
  167SAPE  H13S18764   5.636   4.241   3.074  0.2324  0.1279 -0.1619
  167SAPE  C21418765   5.737   4.166   3.236 -0.1858  0.5318  0.3482
  167SAPE  H14R18766   5.733   4.073   3.178 -2.3418  0.5576  0.3533
  167SAPE  C21518767   5.818   4.179   3.345 -0.4081 -0.4292  0.7506
  167SAPE  H15R18768   5.878   4.095   3.384 -1.1753 -0.8799  0.9771
  167SAPE  C21618769   5.832   4.299   3.438 -0.2471  0.1758  0.2168
  167SAPE  H16R18770   5.732   4.346   3.446 -0.1356  0.2159  1.5800
  167SAPE  H16S18771   5.899   4.367   3.381  1.2913 -2.1891 -0.9614
  167SAPE  C21718772   5.898   4.284   3.576 -0.3359  0.6328 -0.2896
  167SAPE  H17R18773   5.910   4.379   3.632  0.1464  0.4333 -0.0466
  167SAPE  H17S18774   6.001   4.250   3.552 -0.4439  0.5163 -0.5859
  167SAPE  C21818775   5.833   4.178   3.663  0.0069 -0.7680 -0.1221
  167SAPE  H18R18776   5.874   4.080   3.630  2.8161  0.7204 -1.3633
  167SAPE  H18S18777   5.724   4.186   3.641  0.0898  1.7861  0.1306
  167SAPE  C21918778   5.840   4.204   3.816 -0.4178  0.1956  0.2665
  167SAPE  H19R18779   5.807   4.308   3.836 -0.8604  0.0098  0.4987
  167SAPE  H19S18780   5.949   4.210   3.839 -0.3030 -0.7544  0.0182
  167SAPE  C22018781   5.762   4.104   3.900  0.0719 -0.0666  0.0108
  167SAPE  H20R18782   5.828   4.017   3.924 -0.0376  0.4421  2.3813
  167SAPE  H20S18783   5.660   4.069   3.871 -0.4247  0.9368  0.4994
  167SAPE  H20T18784   5.756   4.142   4.004 -1.5585 -1.6561  0.5645
  167SAPE   C3318785   6.223   4.513   2.992  0.4695 -0.2774 -0.7480
  167SAPE   H3X18786   6.150   4.585   2.949  0.2176  1.0717  1.7320
  167SAPE   H3Y18787   6.320   4.568   2.993  0.6222 -0.5163  0.7017
  167SAPE   C3418788   6.176   4.491   3.140 -0.5036  1.3482 -0.0892
  167SAPE   H4X18789   6.240   4.414   3.188 -1.1841  1.8495  1.6796
  167SAPE   H4Y18790   6.075   4.446   3.142  0.0482  0.0752  0.3668
  167SAPE   C3518791   6.185   4.617   3.224 -0.2791  0.1577  0.3480
  167SAPE   H5X18792   6.126   4.690   3.164 -1.3696 -1.8871 -1.2122
  167SAPE   H5Y18793   6.291   4.650   3.227 -0.6026  1.1909  3.0232
  167SAPE   C3618794   6.117   4.599   3.366  0.8002  0.4251  0.9186
  167SAPE   H6X18795   6.183   4.529   3.422 -0.8717 -1.9588  0.0801
  167SAPE   H6Y18796   6.022   4.541   3.363  1.3112 -0.4036 -0.6463
  167SAPE   C3718797   6.108   4.724   3.449  0.6298 -0.1897 -0.1503
  167SAPE   H7X18798   6.038   4.792   3.395  0.3431 -0.1322  0.2871
  167SAPE   H7Y18799   6.210   4.766   3.455  0.8696 -0.4981 -1.6836
  167SAPE   C3818800   6.051   4.702   3.591 -0.2898 -0.4043 -0.1668
  167SAPE   H8X18801   6.094   4.623   3.656 -0.1380 -2.3369 -2.5026
  167SAPE   H8Y18802   5.942   4.681   3.584 -0.5917 -0.3859  3.0502
  167SAPE   C3918803   6.066   4.826   3.681 -0.3228  0.1049 -0.0542
  167SAPE   H9X18804   6.041   4.920   3.628 -3.3762 -0.7944 -0.4429
  167SAPE   H9Y18805   6.176   4.835   3.690 -0.1416 -0.6533 -1.2556
  167SAPE  C31018806   6.005   4.805   3.817  0.0955 -0.5614 -0.0105
  167SAPE  H10X18807   6.058   4.721   3.867  0.0047 -0.8297 -0.3587
  167SAPE  H10Y18808   5.906   4.764   3.790  0.5570 -0.5098 -1.9504
  167SAPE  C31118809   5.989   4.926   3.910  0.7966  0.3236  0.3364
  167SAPE  H11X18810   5.906   4.993   3.878  1.3553  1.2546  0.7773
  167SAPE  H11Y18811   6.081   4.989   3.915  1.4795 -0.3506 -2.2621
  167SAPE  C31218812   5.959   4.881   4.054 -0.0279 -0.4552  0.0968
  167SAPE  H12X18813   6.047   4.827   4.096  2.7141  2.3631 -1.5995
  167SAPE  H12Y18814   5.870   4.816   4.039 -1.1254  1.1464 -0.6838
  167SAPE  C31318815   5.920   4.992   4.154 -0.8959 -0.3776  0.2775
  167SAPE  H13X18816   5.882   4.941   4.245 -1.5427  2.5072  1.7485
  167SAPE  H13Y18817   5.848   5.062   4.107 -2.1977 -0.2445  2.3511
  167SAPE  C31418818   6.046   5.070   4.195  0.0858  0.4752 -0.7152
  167SAPE  H14X18819   6.083   5.127   4.107  0.1764  0.6173 -0.5853
  167SAPE  H14Y18820   6.130   5.008   4.233  0.5542  1.2487 -0.4686
  167SAPE  C31518821   6.013   5.160   4.318 -0.6683 -1.0647 -0.1788
  167SAPE  H15X18822   6.008   5.089   4.404 -1.2447  0.6656  1.2664
  167SAPE  H15Y18823   5.923   5.225   4.319  0.2664  0.3045 -1.3129
  167SAPE  C31618824   6.126   5.263   4.364 -0.1545 -0.7513 -0.2049
  167SAPE  H16X18825   6.130   5.344   4.288  3.4235  1.7391  2.2236
  167SAPE  H16Y18826   6.227   5.218   4.355 -0.3080 -1.9044  2.6666
  167SAPE  C31718827   6.094   5.320   4.507  0.3495 -0.6748 -0.2207
  167SAPE  H17X18828   6.093   5.238   4.582  0.6496 -0.5537 -0.0816
  167SAPE  H17Y18829   5.993   5.364   4.499  0.0294 -0.7925  2.3884
  167SAPE  C31818830   6.199   5.429   4.548  0.4043  0.1167  0.0766
  167SAPE  H18X18831   6.307   5.406   4.537  0.4086  0.3191 -0.3316
  167SAPE  H18Y18832   6.175   5.468   4.649  0.6705  0.8482 -0.1333
  167SAPE  H18Z18833   6.183   5.523   4.491 -1.3755  0.8877  1.7136
  168SAPE     N18834   3.107   0.140   1.896  0.1818  0.3407 -0.0833
  168SAPE   HN118835   3.204   0.163   1.924  0.1875 -0.0210  0.2037
  168SAPE   HN218836   3.098   0.099   1.800  1.2522  1.1928 -0.5724
  168SAPE   HN318837   3.056   0.230   1.895 -0.1865  0.1425  0.5418
  168SAPE   C1218838   3.051   0.038   1.986 -0.1185  0.0687  0.6975
  168SAPE  H12A18839   3.025   0.090   2.081  2.8559  1.6997  0.7282
  168SAPE  H12B18840   3.129  -0.036   2.013  0.5435  0.4450 -0.1661
  168SAPE   C1118841   2.928  -0.028   1.917 -0.5826 -1.0348  0.6624
  168SAPE  H11A18842   2.900  -0.122   1.968 -0.7025 -1.8291 -0.8003
  168SAPE  H11B18843   2.966  -0.058   1.817 -0.2837 -0.0901  0.4837
  168SAPE     P18844   2.701   0.065   2.000  0.0808 -0.5336  0.2655
  168SAPE   O1318845   2.602   0.168   1.955 -0.3571  0.2578 -0.0972
  168SAPE   O1418846   2.653  -0.074   2.024 -0.4466 -0.3740 -0.5622
  168SAPE   O1218847   2.819   0.064   1.891  0.3196 -0.3532 -0.5816
  168SAPE   O1118848   2.785   0.105   2.133  0.3204  0.0467  0.5266
  168SAPE    C118849   2.782   0.242   2.183 -0.3808  0.3045  0.6111
  168SAPE    HA18850   2.890   0.263   2.196 -0.6362  1.2948  1.2294
  168SAPE    HB18851   2.735   0.310   2.109  1.7415 -0.9570 -2.1006
  168SAPE    C218852   2.723   0.247   2.330  0.3333  0.0525  0.3077
  168SAPE    HS18853   2.784   0.183   2.396  1.0867  1.5322  1.0945
  168SAPE   O2118854   2.587   0.208   2.320  0.7345 -0.0414  0.2963
  168SAPE   C2118855   2.531   0.142   2.419 -0.6076 -0.8618 -0.2985
  168SAPE   O2218856   2.590   0.098   2.519 -0.1186 -0.3463  0.2569
  168SAPE   C2218857   2.380   0.153   2.387 -0.3675 -0.1881 -0.2651
  168SAPE   H2R18858   2.370   0.203   2.289  1.7792  0.7871 -0.0422
  168SAPE   H2S18859   2.345   0.050   2.366  0.1099  0.0085 -2.2015
  168SAPE    C318860   2.740   0.395   2.388  0.3260 -0.5421  0.0288
  168SAPE    HX18861   2.696   0.463   2.311  1.5469 -0.6726 -0.8201
  168SAPE    HY18862   2.849   0.419   2.387  0.3119 -0.4725 -0.9736
  168SAPE   O3118863   2.681   0.420   2.520 -0.8246  0.5200  0.0350
  168SAPE   C3118864   2.746   0.373   2.620  0.9971  0.6800 -0.0850
  168SAPE   O3218865   2.857   0.325   2.610  0.1829  0.5778  0.2591
  168SAPE   C3218866   2.668   0.387   2.747 -0.5687 -0.0203  0.5351
  168SAPE   H2X18867   2.559   0.375   2.729 -0.8947  2.7272  0.1207
  168SAPE   H2Y18868   2.682   0.494   2.776 -1.1931 -0.6607  3.5482
  168SAPE   C2318869   2.286   0.216   2.492  0.7522 -0.0222 -0.7417
  168SAPE   H3R18870   2.197   0.246   2.432  0.8312 -1.1959 -1.4714
  168SAPE   H3S18871   2.332   0.310   2.532 -0.0593  0.8811 -1.8598
  168SAPE   C2418872   2.227   0.119   2.599  0.8270 -0.7567 -0.1832
  168SAPE   H4R18873   2.175   0.038   2.542  0.1746 -1.1198  0.8917
  168SAPE   H4S18874   2.146   0.182   2.642  0.5759 -0.4849 -1.0254
  168SAPE   C2518875   2.310   0.065   2.717  0.2024 -1.2450  0.2956
  168SAPE   H5R18876   2.378  -0.009   2.675  0.4200  0.1074 -1.9176
  168SAPE   C2618877   2.324   0.104   2.843  0.3376  0.0521 -0.3625
  168SAPE   H6R18878   2.403   0.054   2.900  1.4339 -1.0075 -2.6917
  168SAPE   C2718879   2.267   0.231   2.904 -0.9801 -0.1327  0.3054
  168SAPE   H7R18880   2.215   0.291   2.826 -0.6498 -2.4298 -1.7928
  168SAPE   H7S18881   2.356   0.286   2.941  1.7106 -2.4848 -2.1372
  168SAPE   C2818882   2.180   0.200   3.015 -0.5159  0.1135 -0.8741
  168SAPE   H8R18883   2.093   0.138   2.988 -1.6968  1.1814  0.3540
  168SAPE   C2918884   2.186   0.233   3.149  0.2920 -0.5447  0.8319
  168SAPE   H9R18885   2.090   0.215   3.199  1.1910 -1.6518  2.2452
  168SAPE  C21018886   2.295   0.309   3.230  0.9624  0.3125  0.7503
  168SAPE  H10R18887   2.382   0.316   3.160 -1.0603  2.1008 -1.7897
  168SAPE  H10S18888   2.339   0.245   3.309 -0.2429 -1.1223  0.3051
  168SAPE  C21118889   2.267   0.449   3.274  0.3248  0.2215  0.0208
  168SAPE  H11R18890   2.247   0.523   3.195 -1.6515  0.0319  0.2902
  168SAPE  C21218891   2.258   0.490   3.400  0.2377  0.4233 -0.5060
  168SAPE  H12R18892   2.220   0.589   3.427  0.8022  0.6791 -0.6399
  168SAPE  C21318893   2.278   0.397   3.526 -0.8408 -0.0421  0.1128
  168SAPE  H13R18894   2.338   0.438   3.610 -1.5265  1.1293  0.0467
  168SAPE  H13S18895   2.339   0.306   3.502 -0.8141 -0.7729  2.6354
  168SAPE  C21418896   2.145   0.344   3.576  0.1537 -0.6046  0.6398
  168SAPE  H14R18897   2.057   0.380   3.520  0.2152  0.3844  1.1690
  168SAPE  C21518898   2.121   0.285   3.689 -0.1515  0.0126 -0.1280
  168SAPE  H15R18899   2.018   0.249   3.706 -0.6395  0.2364 -2.2053
  168SAPE  C21618900   2.232   0.240   3.782  0.1333 -0.1042  0.4639
  168SAPE  H16R18901   2.238   0.322   3.856  1.5372 -0.2331  0.5264
  168SAPE  H16S18902   2.325   0.252   3.722  0.2459  1.9715  0.9926
  168SAPE  C21718903   2.214   0.100   3.847 -0.1876 -0.1395 -1.5932
  168SAPE  H17R18904   2.236   0.014   3.779 -0.9882 -3.0800  1.5877
  168SAPE  H17S18905   2.109   0.081   3.877 -0.4141  1.0029 -1.6456
  168SAPE  C21818906   2.297   0.086   3.973  0.2355 -0.4619  0.0566
  168SAPE  H18R18907   2.402   0.117   3.950 -0.2062  2.2457  1.3804
  168SAPE  H18S18908   2.299  -0.015   4.020 -0.1055 -0.1088  0.8263
  168SAPE  C21918909   2.245   0.161   4.097 -0.0457  0.0016 -0.0829
  168SAPE  H19R18910   2.135   0.144   4.104 -0.3145  1.3329 -0.7322
  168SAPE  H19S18911   2.257   0.272   4.096 -2.1403  0.3270  1.7944
  168SAPE  C22018912   2.312   0.116   4.228 -0.5587 -0.2649  0.0950
  168SAPE  H20R18913   2.273   0.017   4.258 -1.3531 -0.0099 -0.0586
  168SAPE  H20S18914   2.287   0.195   4.303 -2.7327 -0.7849 -0.0148
  168SAPE  H20T18915   2.422   0.114   4.214 -0.6991 -0.3512 -1.0571
  168SAPE   C3318916   2.710   0.282   2.852 -0.3637  0.0430 -0.0934
  168SAPE   H3X18917   2.820   0.265   2.844 -0.2452  0.0011  1.3296
  168SAPE   H3Y18918   2.665   0.182   2.834 -0.5846 -0.1016  1.1593
  168SAPE   C3418919   2.681   0.335   2.994  0.9363 -0.6515  0.5726
  168SAPE   H4X18920   2.573   0.358   3.005  0.5168 -2.4878  0.6643
  168SAPE   H4Y18921   2.739   0.428   3.011 -0.6492  0.7638 -1.3285
  168SAPE   C3518922   2.714   0.226   3.097  0.2176  0.4835  0.0512
  168SAPE   H5X18923   2.819   0.196   3.075 -0.2269  0.3055 -2.0010
  168SAPE   H5Y18924   2.648   0.141   3.071  2.4175 -1.2570 -0.1031
  168SAPE   C3618925   2.680   0.265   3.245 -0.5825 -0.3267 -0.5983
  168SAPE   H6X18926   2.571   0.257   3.269 -0.5105  3.6559  1.9254
  168SAPE   H6Y18927   2.715   0.370   3.255  2.5229 -1.3223  0.0748
  168SAPE   C3718928   2.764   0.189   3.346  0.1150 -0.6010 -0.0314
  168SAPE   H7X18929   2.864   0.212   3.304  0.1317 -0.2077  0.2216
  168SAPE   H7Y18930   2.738   0.081   3.335 -0.7181 -0.3916 -0.1629
  168SAPE   C3818931   2.760   0.261   3.481 -0.5140  0.1446  0.3920
  168SAPE   H8X18932   2.764   0.371   3.463 -0.5855  0.1936  0.6682
  168SAPE   H8Y18933   2.847   0.225   3.540 -0.9698  0.9806  1.6210
  168SAPE   C3918934   2.631   0.233   3.558  0.1752  0.7971 -0.4504
  168SAPE   H9X18935   2.644   0.131   3.601 -0.1056  0.9599  0.0360
  168SAPE   H9Y18936   2.543   0.228   3.490  0.8379 -0.6635 -1.2370
  168SAPE  C31018937   2.612   0.321   3.683 -0.5502 -0.1017  0.3418
  168SAPE  H10X18938   2.527   0.287   3.746 -0.9258  1.7997  0.9264
  168SAPE  H10Y18939   2.590   0.425   3.653  1.0664 -0.1353 -1.0969
  168SAPE  C31118940   2.736   0.343   3.780  0.5690 -0.1126  0.3468
  168SAPE  H11X18941   2.819   0.387   3.721  1.4742 -2.4722 -0.2592
  168SAPE  H11Y18942   2.755   0.240   3.816 -0.1536  0.3570  2.2141
  168SAPE  C31218943   2.697   0.437   3.894 -0.2624 -0.1823 -0.2887
  168SAPE  H12X18944   2.597   0.410   3.935  1.3203 -1.6606  2.9068
  168SAPE  H12Y18945   2.674   0.539   3.856  1.3753 -1.0761 -4.1342
  168SAPE  C31318946   2.787   0.431   4.023 -0.6270  0.6730  0.1442
  168SAPE  H13X18947   2.893   0.414   3.995 -0.9041  0.6824 -0.9494
  168SAPE  H13Y18948   2.751   0.343   4.081 -0.3289 -0.7221 -1.6842
  168SAPE  C31418949   2.763   0.542   4.122 -0.0673  0.5647  0.3099
  168SAPE  H14X18950   2.656   0.551   4.150  0.2523 -2.1900  2.9446
  168SAPE  H14Y18951   2.804   0.637   4.082  2.7915 -0.6656  0.0734
  168SAPE  C31518952   2.826   0.501   4.256  0.1023  0.4165  0.2356
  168SAPE  H15X18953   2.929   0.469   4.228  1.0527  2.6197  1.0052
  168SAPE  H15Y18954   2.768   0.423   4.310 -1.6001 -0.1807 -2.2992
  168SAPE  C31618955   2.841   0.624   4.347  0.2914 -0.4731 -0.5811
  168SAPE  H16X18956   2.749   0.670   4.388  2.9949  3.8413  1.3820
  168SAPE  H16Y18957   2.880   0.694   4.270 -2.8213 -0.4701 -2.3260
  168SAPE  C31718958   2.940   0.597   4.465  0.1730  0.0406  0.2029
  168SAPE  H17X18959   2.909   0.503   4.517  0.6910 -1.3557 -1.9020
  168SAPE  H17Y18960   2.924   0.688   4.526  1.9047  0.7110 -0.3011
  168SAPE  C31818961   3.091   0.587   4.433  0.1044  0.1288 -0.1169
  168SAPE  H18X18962   3.115   0.674   4.369 -1.5899 -0.0079 -1.0108
  168SAPE  H18Y18963   3.104   0.493   4.376 -1.3988  1.1509 -2.2854
  168SAPE  H18Z18964   3.167   0.573   4.513 -0.4928  0.9898  0.6260
  169SAPE     N18965   6.252   3.498   1.721  0.6865 -0.2785 -0.6468
  169SAPE   HN118966   6.301   3.577   1.767  1.7267 -0.1479 -1.9140
  169SAPE   HN218967   6.158   3.530   1.690 -0.7979 -2.0797  1.6020
  169SAPE   HN318968   6.237   3.431   1.799 -0.2568  0.0585 -0.5347
  169SAPE   C1218969   6.331   3.425   1.614 -0.3270 -0.2566 -0.0507
  169SAPE  H12A18970   6.342   3.500   1.532 -3.1318  1.6552  1.1550
  169SAPE  H12B18971   6.262   3.349   1.571 -2.1633  2.1723 -1.6947
  169SAPE   C1118972   6.463   3.366   1.659 -0.3721  0.2452 -0.3278
  169SAPE  H11A18973   6.493   3.298   1.577  0.2234  0.4680 -0.3001
  169SAPE  H11B18974   6.452   3.308   1.753  0.6131 -1.2613 -1.1038
  169SAPE     P18975   6.695   3.466   1.758 -0.0490 -0.4904 -0.1093
  169SAPE   O1318976   6.794   3.374   1.697  0.0178 -0.0313  0.2516
  169SAPE   O1418977   6.744   3.605   1.775  0.3114 -0.0825 -1.0955
  169SAPE   O1218978   6.553   3.473   1.682  0.0610 -0.9575  0.9275
  169SAPE   O1118979   6.647   3.402   1.891  0.1064 -0.0183  0.1074
  169SAPE    C118980   6.541   3.462   1.969 -0.1447 -0.2766  0.1919
  169SAPE    HA18981   6.481   3.546   1.929 -0.4649 -0.5648  0.0604
  169SAPE    HB18982   6.470   3.380   1.994  0.5275 -0.5244  1.4318
  169SAPE    C218983   6.606   3.498   2.110 -0.3703  0.0644 -0.1943
  169SAPE    HS18984   6.671   3.414   2.143  0.5957  0.8439 -0.0635
  169SAPE   O2118985   6.509   3.495   2.214  0.7688 -0.1597  0.3015
  169SAPE   C2118986   6.415   3.591   2.218 -0.3925  0.0600  0.2302
  169SAPE   O2218987   6.382   3.661   2.129 -0.3796 -0.5434 -0.1705
  169SAPE   C2218988   6.341   3.580   2.347  0.1036  0.2427  0.1964
  169SAPE   H2R18989   6.258   3.509   2.328 -0.7458  1.3912 -0.4915
  169SAPE   H2S18990   6.400   3.520   2.420  1.6421 -0.7639 -1.7806
  169SAPE    C318991   6.697   3.627   2.114 -0.3195  0.6354 -0.0655
  169SAPE    HX18992   6.627   3.699   2.066 -0.2847 -1.1025 -3.0108
  169SAPE    HY18993   6.776   3.630   2.036  0.7570  2.2228  1.0455
  169SAPE   O3118994   6.755   3.669   2.236 -0.1876  0.4169 -0.2562
  169SAPE   C3118995   6.871   3.614   2.258 -0.7262 -0.3268 -0.1972
  169SAPE   O3218996   6.930   3.529   2.197 -0.5403  0.0522 -0.1046
  169SAPE   C3218997   6.922   3.665   2.395  0.4138 -0.0383 -0.4393
  169SAPE   H2X18998   6.835   3.688   2.461  1.8573 -0.4376  1.7156
  169SAPE   H2Y18999   6.975   3.762   2.385 -0.3794  0.2323 -2.3677
  169SAPE   C2319000   6.277   3.711   2.399 -0.2064 -0.0778 -0.3089
  169SAPE   H3R19001   6.199   3.740   2.326 -1.1916 -1.4957  0.1430
  169SAPE   H3S19002   6.354   3.792   2.402 -0.0219 -0.1643 -1.9052
  169SAPE   C2419003   6.190   3.705   2.524  0.2823 -0.4070  0.0673
  169SAPE   H4R19004   6.102   3.637   2.514 -0.4640  0.6820 -1.0198
  169SAPE   H4S19005   6.129   3.797   2.527  1.7735  0.5977  2.4695
  169SAPE   C2519006   6.259   3.659   2.649 -0.3343 -0.1027 -0.2998
  169SAPE   H5R19007   6.325   3.572   2.639  1.1935  1.0728 -0.8137
  169SAPE   C2619008   6.265   3.715   2.774  0.4959  0.4887  0.7938
  169SAPE   H6R19009   6.299   3.652   2.857  1.6417 -0.3082 -0.2474
  169SAPE   C2719010   6.192   3.844   2.808 -0.5129 -0.2249 -0.2075
  169SAPE   H7R19011   6.124   3.827   2.894 -0.4616  0.7645  0.0464
  169SAPE   H7S19012   6.140   3.885   2.719  0.3578  0.4862 -0.4043
  169SAPE   C2819013   6.288   3.949   2.868  0.4688  0.7587 -0.0754
  169SAPE   H8R19014   6.387   3.957   2.823  0.2740  0.6347 -0.5299
  169SAPE   C2919015   6.248   4.024   2.971 -0.5051  0.0297 -0.0786
  169SAPE   H9R19016   6.332   4.073   3.022 -0.2902 -1.4840  1.0703
  169SAPE  C21019017   6.121   4.010   3.046 -0.4304  0.0491 -0.5137
  169SAPE  H10R19018   6.126   3.906   3.087  0.5917 -0.3186 -1.5011
  169SAPE  H10S19019   6.048   4.011   2.962  0.9295  1.6049 -1.7388
  169SAPE  C21119020   6.084   4.111   3.159  0.0025  0.6865  1.3627
  169SAPE  H11R19021   6.037   4.206   3.131 -1.9083 -0.4666  0.4820
  169SAPE  C21219022   6.131   4.104   3.285  0.1314 -0.0238 -0.0579
  169SAPE  H12R19023   6.124   4.192   3.351  2.8458  1.3453 -1.4269
  169SAPE  C21319024   6.216   3.993   3.341 -0.0039  0.1520 -0.0574
  169SAPE  H13R19025   6.263   3.931   3.262 -0.4493 -1.5250  0.9390
  169SAPE  H13S19026   6.162   3.920   3.406  1.9429  0.7806  2.4523
  169SAPE  C21419027   6.325   4.053   3.425 -1.0593  0.0145 -0.1497
  169SAPE  H14R19028   6.394   4.114   3.364 -1.5004 -0.2975 -0.9790
  169SAPE  C21519029   6.355   4.022   3.553 -0.0383  0.1281  0.1100
  169SAPE  H15R19030   6.445   4.070   3.595 -1.1548  0.5770  2.1483
  169SAPE  C21619031   6.288   3.937   3.657  0.0531  0.7750  0.0775
  169SAPE  H16R19032   6.370   3.873   3.694  0.6181  1.8808  0.8086
  169SAPE  H16S19033   6.217   3.863   3.615 -2.2468  2.3491  0.9967
  169SAPE  C21719034   6.212   4.002   3.767 -0.6441 -0.8569 -0.3499
  169SAPE  H17R19035   6.123   4.063   3.743 -0.4764 -0.7503 -0.6969
  169SAPE  H17S19036   6.287   4.069   3.816 -1.1752 -0.3649 -0.2052
  169SAPE  C21819037   6.162   3.915   3.884  0.6920  0.2218  0.0118
  169SAPE  H18R19038   6.131   3.990   3.960  1.1607  3.7649 -3.0259
  169SAPE  H18S19039   6.241   3.850   3.929 -2.0264 -1.9599  2.0308
  169SAPE  C21919040   6.044   3.821   3.858  0.1064  0.6357 -0.3317
  169SAPE  H19R19041   6.088   3.754   3.781 -1.8974  0.3881 -1.3173
  169SAPE  H19S19042   5.969   3.896   3.823  0.6864  1.0772 -0.6482
  169SAPE  C22019043   6.007   3.735   3.978 -0.6442 -0.2851 -0.2235
  169SAPE  H20R19044   6.093   3.673   4.009 -1.3209 -1.8581 -1.3614
  169SAPE  H20S19045   5.931   3.656   3.959  0.1312 -0.7593 -1.4740
  169SAPE  H20T19046   5.977   3.804   4.060 -2.6202 -1.0533 -0.2507
  169SAPE   C3319047   7.008   3.563   2.471 -0.5993 -0.1644 -0.3828
  169SAPE   H3X19048   7.110   3.561   2.428  0.0380 -0.7798  1.1045
  169SAPE   H3Y19049   6.964   3.461   2.458 -1.1613 -0.0409  0.4932
  169SAPE   C3419050   7.013   3.602   2.617  0.4266  0.7050  0.4652
  169SAPE   H4X19051   6.908   3.594   2.653  0.4916 -1.8043  0.2940
  169SAPE   H4Y19052   7.048   3.706   2.628  1.9756  0.1490  1.1298
  169SAPE   C3519053   7.115   3.516   2.692  0.0338  0.4888  0.0560
  169SAPE   H5X19054   7.216   3.534   2.648  0.3384 -0.7622  0.2182
  169SAPE   H5Y19055   7.103   3.407   2.679  2.4026 -0.1409  2.2672
  169SAPE   C3619056   7.113   3.536   2.842  0.2673  0.1283  0.1735
  169SAPE   H6X19057   7.158   3.632   2.877  0.4341  0.1319 -0.0443
  169SAPE   H6Y19058   7.193   3.468   2.879 -0.6542  0.5514  3.1496
  169SAPE   C3719059   6.978   3.508   2.906  0.3745 -0.1778 -0.5844
  169SAPE   H7X19060   6.944   3.402   2.898  1.7237 -0.5325 -2.2775
  169SAPE   H7Y19061   6.905   3.579   2.863  1.7736  0.9698 -1.1418
  169SAPE   C3819062   6.971   3.543   3.061 -0.4163  0.7181  0.6262
  169SAPE   H8X19063   6.884   3.502   3.118  1.7885 -3.0395  1.6117
  169SAPE   H8Y19064   6.967   3.654   3.060 -1.5924  0.6923  0.1518
  169SAPE   C3919065   7.106   3.487   3.136  0.6644  0.0817 -0.1531
  169SAPE   H9X19066   7.195   3.543   3.102  1.6666 -1.9932 -1.1375
  169SAPE   H9Y19067   7.113   3.377   3.121 -0.0843  0.1450 -1.0775
  169SAPE  C31019068   7.099   3.513   3.284  0.3955  0.0645 -0.3491
  169SAPE  H10X19069   7.009   3.468   3.332 -0.3992  0.7756 -1.1305
  169SAPE  H10Y19070   7.098   3.623   3.299  3.1035 -0.1972  2.9272
  169SAPE  C31119071   7.228   3.474   3.349 -0.3278 -0.1633 -0.3726
  169SAPE  H11X19072   7.313   3.480   3.277 -0.0176  1.9801  0.1105
  169SAPE  H11Y19073   7.219   3.366   3.374 -0.6128 -0.3485 -1.2166
  169SAPE  C31219074   7.259   3.548   3.479  0.9785  0.0439 -0.1555
  169SAPE  H12X19075   7.166   3.568   3.536 -0.7124 -0.7987 -2.4480
  169SAPE  H12Y19076   7.306   3.647   3.462  0.6102  0.2255 -0.1345
  169SAPE  C31319077   7.343   3.472   3.578 -0.6040 -0.2007 -0.5810
  169SAPE  H13X19078   7.377   3.546   3.653  2.9909 -2.1684 -0.0215
  169SAPE  H13Y19079   7.436   3.446   3.522 -0.2804 -0.6706  0.1609
  169SAPE  C31419080   7.266   3.360   3.645  0.0909  0.3328  0.8036
  169SAPE  H14X19081   7.270   3.273   3.576 -0.2602  1.5548 -0.8257
  169SAPE  H14Y19082   7.160   3.390   3.661 -0.3859 -1.4608  1.2276
  169SAPE  C31519083   7.335   3.304   3.773 -0.0106  0.1396 -1.3536
  169SAPE  H15X19084   7.306   3.354   3.868  1.1571 -2.2319  0.3834
  169SAPE  H15Y19085   7.443   3.325   3.760 -0.3218  2.0274 -1.1888
  169SAPE  C31619086   7.292   3.159   3.790 -0.0980 -0.0014 -0.3893
  169SAPE  H16X19087   7.328   3.102   3.702 -0.5570 -0.5369 -0.2401
  169SAPE  H16Y19088   7.182   3.149   3.789 -0.0492 -0.5163 -0.8569
  169SAPE  C31719089   7.346   3.098   3.917  0.2725 -0.1766 -0.1531
  169SAPE  H17X19090   7.281   3.130   4.001  2.3182 -0.1154  1.4871
  169SAPE  H17Y19091   7.448   3.139   3.936  0.2746 -0.8440  1.4192
  169SAPE  C31819092   7.360   2.946   3.914  0.1403 -0.7428 -0.5174
  169SAPE  H18X19093   7.388   2.910   4.016  0.1551  2.8979  0.9289
  169SAPE  H18Y19094   7.440   2.913   3.844  1.0675  0.2813  0.0173
  169SAPE  H18Z19095   7.262   2.904   3.884 -1.0970  2.0201 -0.5867
  170SAPE     N19096   6.504   6.109   2.119  0.3817  0.2561 -1.0951
  170SAPE   HN119097   6.540   6.206   2.105  1.3539 -0.0181 -0.5943
  170SAPE   HN219098   6.403   6.106   2.142  0.8236 -0.3649  1.0387
  170SAPE   HN319099   6.548   6.064   2.202 -0.6905 -0.4308 -0.8795
  170SAPE   C1219100   6.544   6.013   2.011 -0.0295  0.5035  0.1241
  170SAPE  H12A19101   6.469   6.022   1.930 -1.6893 -1.1633  1.3952
  170SAPE  H12B19102   6.544   5.911   2.055 -1.3700 -0.4626 -1.9556
  170SAPE   C1119103   6.693   6.036   1.966 -0.4556 -0.0795 -0.2338
  170SAPE  H11A19104   6.749   6.052   2.060 -0.8771 -0.1275  0.0298
  170SAPE  H11B19105   6.695   6.131   1.907  0.8109  1.1455  1.6757
  170SAPE     P19106   6.892   5.940   1.818  0.2564  0.1040  0.0267
  170SAPE   O1319107   6.918   5.823   1.735 -0.1052 -0.0119 -0.3993
  170SAPE   O1419108   6.896   6.070   1.748 -1.0037  0.0450  0.1251
  170SAPE   O1219109   6.750   5.931   1.886 -0.9081  0.8486  0.0116
  170SAPE   O1119110   6.988   5.953   1.940  0.3502  0.7000 -0.4261
  170SAPE    C119111   7.011   5.836   2.017 -0.1150  0.3523 -0.3729
  170SAPE    HA19112   6.928   5.765   1.999 -0.4108  0.8147 -0.8539
  170SAPE    HB19113   7.103   5.783   1.983 -0.3544 -1.3422  1.4394
  170SAPE    C219114   7.016   5.843   2.176 -0.4649 -0.4168  0.9230
  170SAPE    HS19115   6.913   5.868   2.209 -0.9317 -1.4096  0.2654
  170SAPE   O2119116   7.110   5.955   2.215  0.9255 -0.4764  1.0147
  170SAPE   C2119117   7.070   6.030   2.317  0.4165 -0.1446 -0.7516
  170SAPE   O2219118   6.967   6.013   2.379  0.0870  0.2604 -0.0349
  170SAPE   C2219119   7.167   6.146   2.327  0.0279  0.8587  0.1279
  170SAPE   H2R19120   7.254   6.132   2.259 -0.0428  1.6565 -0.1390
  170SAPE   H2S19121   7.121   6.240   2.288 -2.3523 -0.9884 -1.8576
  170SAPE    C319122   7.068   5.714   2.245 -0.2497 -0.7333  0.5677
  170SAPE    HX19123   7.175   5.715   2.214 -0.4658  1.1652 -0.2360
  170SAPE    HY19124   7.022   5.620   2.209 -0.7342 -0.6492  0.9583
  170SAPE   O3119125   7.067   5.728   2.384 -0.3472 -0.2061 -0.0561
  170SAPE   C3119126   6.941   5.696   2.436 -0.3485  0.3019  0.3622
  170SAPE   O3219127   6.845   5.664   2.370  0.0339 -0.6873  0.1422
  170SAPE   C3219128   6.932   5.714   2.588 -0.0788 -0.3068 -1.0089
  170SAPE   H2X19129   6.957   5.819   2.616 -0.7408 -0.6585  1.0929
  170SAPE   H2Y19130   7.017   5.660   2.635  1.9629  3.9827  0.9015
  170SAPE   C2319131   7.207   6.171   2.476  0.3188  0.1904 -0.4156
  170SAPE   H3R19132   7.121   6.156   2.546  0.7030 -0.0989 -0.0006
  170SAPE   H3S19133   7.230   6.279   2.479 -0.9466  0.5024 -1.2850
  170SAPE   C2419134   7.328   6.091   2.532  0.5028  0.1793 -0.1753
  170SAPE   H4R19135   7.344   6.132   2.635 -2.2477  0.4100  0.2430
  170SAPE   H4S19136   7.420   6.112   2.473  1.9331 -0.2202  1.7921
  170SAPE   C2519137   7.309   5.942   2.533  0.1246 -0.5797  0.3152
  170SAPE   H5R19138   7.330   5.885   2.442  0.7748  0.0927  0.0357
  170SAPE   C2619139   7.245   5.871   2.624  0.0068 -0.4172  0.3306
  170SAPE   H6R19140   7.246   5.762   2.609 -0.8211 -0.3917  0.0837
  170SAPE   C2719141   7.201   5.925   2.757 -0.0899  0.4608  0.0841
  170SAPE   H7R19142   7.099   5.884   2.775 -0.2636  0.5827 -0.6125
  170SAPE   H7S19143   7.195   6.036   2.763 -1.2564  0.4835 -1.0359
  170SAPE   C2819144   7.289   5.876   2.868  0.2237 -0.0059 -0.3868
  170SAPE   H8R19145   7.368   5.805   2.837 -0.8807 -2.0452  1.2525
  170SAPE   C2919146   7.264   5.885   3.001  0.3993 -0.3206 -0.4407
  170SAPE   H9R19147   7.325   5.836   3.078 -0.8231 -0.6632  0.3454
  170SAPE  C21019148   7.140   5.949   3.065  0.7327 -0.3051 -0.1386
  170SAPE  H10R19149   7.085   5.861   3.105  0.4392 -0.7293 -1.4053
  170SAPE  H10S19150   7.070   6.002   2.997 -0.2127  0.4558  1.3678
  170SAPE  C21119151   7.182   6.044   3.182  0.3007  0.0379  0.1039
  170SAPE  H11R19152   7.265   6.112   3.154 -0.9452  1.4267 -0.3721
  170SAPE  C21219153   7.105   6.067   3.296 -0.5148 -0.8338  0.4431
  170SAPE  H12R19154   7.146   6.144   3.362 -0.2072  0.7329 -1.4700
  170SAPE  C21319155   6.982   5.991   3.344 -0.4646  0.2105 -0.0935
  170SAPE  H13R19156   7.003   5.897   3.399 -1.2182 -0.5089 -0.9941
  170SAPE  H13S19157   6.915   5.951   3.265 -3.3700  0.2661  2.1703
  170SAPE  C21419158   6.895   6.082   3.417  0.0494 -0.4508 -0.4093
  170SAPE  H14R19159   6.844   6.154   3.351 -0.8337 -2.5887 -2.1978
  170SAPE  C21519160   6.864   6.084   3.551  0.0518 -0.4324  0.2703
  170SAPE  H15R19161   6.788   6.158   3.581  1.8991  2.0746 -0.8922
  170SAPE  C21619162   6.914   5.985   3.657  0.7292  0.1072  0.2730
  170SAPE  H16R19163   7.024   5.997   3.671  0.5698  0.9999  0.8313
  170SAPE  H16S19164   6.887   5.883   3.621  1.9966  0.0747 -0.6819
  170SAPE  C21719165   6.854   5.994   3.799 -0.6002 -0.0832  0.0148
  170SAPE  H17R19166   6.890   5.907   3.858  2.1454  1.1291  0.2921
  170SAPE  H17S19167   6.744   5.991   3.788 -0.7473  1.4416  0.8757
  170SAPE  C21819168   6.886   6.123   3.863 -0.8109  0.0256  0.4728
  170SAPE  H18R19169   6.842   6.202   3.798  0.1479 -2.3482 -3.4125
  170SAPE  H18S19170   6.994   6.143   3.881 -1.2615  1.9435  1.2914
  170SAPE  C21919171   6.827   6.138   4.002  0.1925 -0.1164  0.7360
  170SAPE  H19R19172   6.821   6.038   4.050 -0.9828  0.3686  1.6387
  170SAPE  H19S19173   6.722   6.172   4.016  0.0640  0.0465 -0.4858
  170SAPE  C22019174   6.911   6.225   4.092  0.0615  0.5277 -0.5452
  170SAPE  H20R19175   6.903   6.333   4.068 -0.3894  0.6829  0.2594
  170SAPE  H20S19176   7.016   6.194   4.108  0.4364  1.7157 -0.6422
  170SAPE  H20T19177   6.861   6.224   4.191  2.1038 -0.1726  0.5172
  170SAPE   C3319178   6.792   5.693   2.655  0.7550  0.3680  0.0825
  170SAPE   H3X19179   6.727   5.649   2.576 -1.2879  3.4178 -0.1183
  170SAPE   H3Y19180   6.738   5.786   2.685 -1.6941 -0.8103 -0.4252
  170SAPE   C3419181   6.793   5.594   2.769 -0.6072 -0.1459  0.9279
  170SAPE   H4X19182   6.846   5.499   2.746 -1.3037 -0.3880  0.2689
  170SAPE   H4Y19183   6.689   5.563   2.794 -0.5513 -1.1330  0.0170
  170SAPE   C3519184   6.861   5.651   2.892 -0.9528 -0.2006  0.4088
  170SAPE   H5X19185   6.839   5.760   2.901  1.1431  0.4641 -1.4952
  170SAPE   H5Y19186   6.972   5.644   2.886 -1.0728 -2.4437  0.0200
  170SAPE   C3619187   6.807   5.576   3.013  0.3052 -0.5790 -0.3873
  170SAPE   H6X19188   6.812   5.467   2.995 -1.6900 -0.9919  1.0705
  170SAPE   H6Y19189   6.699   5.602   3.016 -0.1141 -2.1226 -1.3027
  170SAPE   C3719190   6.864   5.626   3.149 -0.1332 -0.1175  0.3477
  170SAPE   H7X19191   6.854   5.736   3.160 -0.2858 -0.0397 -0.4852
  170SAPE   H7Y19192   6.970   5.594   3.137  0.4708  2.4303 -2.2553
  170SAPE   C3819193   6.780   5.574   3.263 -0.0056 -0.1886  0.5277
  170SAPE   H8X19194   6.790   5.464   3.270  0.8330 -0.2053 -0.6576
  170SAPE   H8Y19195   6.672   5.598   3.251  0.4925  2.2181  0.2796
  170SAPE   C3919196   6.828   5.624   3.399 -0.3086 -0.7367 -0.2310
  170SAPE   H9X19197   6.793   5.730   3.405  2.0012  0.1571 -1.0940
  170SAPE   H9Y19198   6.939   5.625   3.399 -0.2835 -1.2586  1.3057
  170SAPE  C31019199   6.786   5.548   3.526  0.3395 -0.1804 -0.2998
  170SAPE  H10X19200   6.827   5.445   3.523  0.9999  0.0832 -1.5544
  170SAPE  H10Y19201   6.675   5.553   3.522  0.1273 -0.3892  2.9923
  170SAPE  C31119202   6.830   5.604   3.661 -0.1552 -0.7546  0.2566
  170SAPE  H11X19203   6.783   5.704   3.673  0.9821 -0.0912 -0.6508
  170SAPE  H11Y19204   6.941   5.612   3.664 -0.1599  0.7049 -1.5736
  170SAPE  C31219205   6.801   5.522   3.785  0.0744  0.3488 -0.2531
  170SAPE  H12X19206   6.694   5.492   3.780 -0.0025  0.6467 -0.4053
  170SAPE  H12Y19207   6.805   5.580   3.880 -2.4377  1.4583 -0.7467
  170SAPE  C31319208   6.894   5.395   3.797  0.2651 -0.0343  0.1792
  170SAPE  H13X19209   6.901   5.338   3.703  2.0147  1.8374 -0.9191
  170SAPE  H13Y19210   6.838   5.326   3.863  0.8456  0.8238  1.6274
  170SAPE  C31419211   7.036   5.427   3.855  0.6767 -0.2587  0.2963
  170SAPE  H14X19212   7.021   5.477   3.953  0.8868  1.2335 -0.4218
  170SAPE  H14Y19213   7.089   5.490   3.781  0.7057 -0.0015  0.5383
  170SAPE  C31519214   7.117   5.303   3.900 -0.2399 -0.5291  0.1269
  170SAPE  H15X19215   7.220   5.334   3.926  0.1935  0.8880 -2.8297
  170SAPE  H15Y19216   7.125   5.241   3.808 -1.9748  2.4143 -2.1860
  170SAPE  C31619217   7.054   5.222   4.003 -0.3019  0.7735  0.0983
  170SAPE  H16X19218   6.959   5.184   3.959  0.3483  1.5591 -2.1450
  170SAPE  H16Y19219   7.030   5.280   4.094  1.3967  1.2913  0.2443
  170SAPE  C31719220   7.140   5.101   4.038  0.0803  0.0077 -0.2381
  170SAPE  H17X19221   7.172   5.038   3.952 -1.4719 -2.5873  0.9369
  170SAPE  H17Y19222   7.083   5.037   4.109 -2.3297  2.9874  0.7553
  170SAPE  C31819223   7.268   5.146   4.107  0.1564  0.2401 -0.1475
  170SAPE  H18X19224   7.316   5.060   4.158 -2.3832 -1.3088 -0.1944
  170SAPE  H18Y19225   7.245   5.224   4.183  0.0123  1.9471 -1.8431
  170SAPE  H18Z19226   7.340   5.176   4.028 -0.5596 -0.8806 -1.2765
  171SAPE     N19227   0.792   4.957   2.097 -0.1720  0.6041  0.2109
  171SAPE   HN119228   0.773   4.904   2.009  0.7083 -0.7061  0.7768
  171SAPE   HN219229   0.832   5.045   2.059  2.5041 -1.9386 -3.6212
  171SAPE   HN319230   0.861   4.892   2.139  0.4877  1.2296  0.1095
  171SAPE   C1219231   0.675   4.979   2.189  0.8371 -0.3720 -0.0837
  171SAPE  H12A19232   0.661   4.882   2.240 -1.7852  0.3462  0.7348
  171SAPE  H12B19233   0.579   5.009   2.140  1.7203  2.9617 -0.0556
  171SAPE   C1119234   0.703   5.100   2.282  0.3840  0.7881  0.4062
  171SAPE  H11A19235   0.797   5.081   2.338 -0.0667 -1.7084  0.4109
  171SAPE  H11B19236   0.614   5.098   2.348 -0.9567 -1.5896 -1.3123
  171SAPE     P19237   0.608   5.331   2.182  0.4360  0.5422 -0.2619
  171SAPE   O1319238   0.654   5.465   2.233 -0.0652 -0.4226  0.1547
  171SAPE   O1419239   0.558   5.331   2.044  0.8873  0.3896  0.5263
  171SAPE   O1219240   0.716   5.220   2.206 -0.1292  0.5241 -0.3149
  171SAPE   O1119241   0.487   5.285   2.279  0.2688  0.2164  0.0452
  171SAPE    C119242   0.388   5.376   2.327 -0.4033  0.6849 -0.2223
  171SAPE    HA19243   0.416   5.482   2.314  0.1863  0.5082 -0.4288
  171SAPE    HB19244   0.295   5.351   2.271  0.3076 -3.2498  0.0520
  171SAPE    C219245   0.353   5.353   2.477 -0.3224 -0.8258 -0.3005
  171SAPE    HS19246   0.305   5.446   2.516 -0.6093 -0.8942 -0.4867
  171SAPE   O2119247   0.469   5.308   2.554  0.3539 -0.3703  0.1473
  171SAPE   C2119248   0.549   5.405   2.581 -0.0061 -0.1509  0.3676
  171SAPE   O2219249   0.525   5.524   2.553 -0.4097 -0.3262  0.2032
  171SAPE   C2219250   0.675   5.352   2.647 -0.6485  0.5550  0.0278
  171SAPE   H2R19251   0.728   5.279   2.582 -0.1869  0.8229  0.0987
  171SAPE   H2S19252   0.745   5.438   2.654  0.5816 -0.5317  2.0562
  171SAPE    C319253   0.238   5.247   2.496 -0.3456 -0.0072 -0.2210
  171SAPE    HX19254   0.271   5.156   2.443  0.0494  0.2345 -0.3917
  171SAPE    HY19255   0.154   5.295   2.440 -1.6087 -0.3899  1.2536
  171SAPE   O3119256   0.209   5.237   2.634 -0.4121  0.4934 -0.3714
  171SAPE   C3119257   0.275   5.143   2.702  0.9059 -0.0427 -0.2495
  171SAPE   O3219258   0.326   5.042   2.653 -0.7285  0.0766  0.1947
  171SAPE   C3219259   0.231   5.162   2.842  0.3874  0.5814  0.8543
  171SAPE   H2X19260   0.120   5.169   2.841  0.3698  0.9214  2.3921
  171SAPE   H2Y19261   0.258   5.261   2.884 -0.1924  0.2340  2.1132
  171SAPE   C2319262   0.649   5.274   2.782 -0.5712  0.3564 -0.1293
  171SAPE   H3R19263   0.737   5.207   2.790  0.1694  1.0588 -1.9921
  171SAPE   H3S19264   0.556   5.213   2.781 -0.6960  0.5480 -0.4200
  171SAPE   C2419265   0.659   5.385   2.898 -0.1014  0.2532  0.3759
  171SAPE   H4R19266   0.759   5.432   2.895  0.5117 -0.9780  0.8682
  171SAPE   H4S19267   0.669   5.333   2.996  0.3424  0.3622  0.3880
  171SAPE   C2519268   0.539   5.485   2.907  0.5015  0.4061 -0.1696
  171SAPE   H5R19269   0.502   5.529   2.813 -1.1697  0.9830  0.7207
  171SAPE   C2619270   0.479   5.520   3.021 -0.1844  0.2346 -0.0829
  171SAPE   H6R19271   0.399   5.595   3.021 -0.6668 -0.2590 -0.9990
  171SAPE   C2719272   0.501   5.462   3.159  0.0755  0.7982  0.0362
  171SAPE   H7R19273   0.545   5.361   3.167 -1.2116  0.2585  0.4802
  171SAPE   H7S19274   0.405   5.440   3.211  0.0802  0.2552 -0.1838
  171SAPE   C2819275   0.584   5.559   3.247 -0.8497 -0.2637 -0.1234
  171SAPE   H8R19276   0.690   5.562   3.218 -0.4473 -1.2066  1.1392
  171SAPE   C2919277   0.540   5.627   3.353 -0.1588  0.4440  0.6575
  171SAPE   H9R19278   0.620   5.685   3.402  0.6251 -0.5396  0.5591
  171SAPE  C21019279   0.409   5.606   3.414 -0.5170  0.2225 -0.0353
  171SAPE  H10R19280   0.403   5.501   3.451 -2.6094  0.3045 -0.0430
  171SAPE  H10S19281   0.336   5.627   3.334  0.0312  2.2725 -0.0506
  171SAPE  C21119282   0.394   5.700   3.535  0.7862 -0.4426  0.7135
  171SAPE  H11R19283   0.320   5.779   3.512  0.5501 -1.1242 -1.0603
  171SAPE  C21219284   0.470   5.690   3.643  0.1446 -0.2053  0.0619
  171SAPE  H12R19285   0.448   5.769   3.716 -0.0104 -0.3305  0.1515
  171SAPE  C21319286   0.561   5.583   3.682 -0.2740  0.0872 -0.0587
  171SAPE  H13R19287   0.621   5.539   3.600  0.8287 -1.4937  1.5270
  171SAPE  H13S19288   0.500   5.498   3.718 -0.1694 -0.1537 -0.4576
  171SAPE  C21419289   0.663   5.618   3.780  0.1126  0.1749  0.1511
  171SAPE  H14R19290   0.766   5.620   3.741  0.8337 -1.8864  1.7515
  171SAPE  C21519291   0.656   5.612   3.918 -0.3423  0.1326  0.4655
  171SAPE  H15R19292   0.750   5.628   3.973  0.9441 -2.2481 -0.8979
  171SAPE  C21619293   0.544   5.593   4.011  0.1863 -0.2169 -0.4967
  171SAPE  H16R19294   0.448   5.564   3.963 -0.5877  0.6534  0.4839
  171SAPE  H16S19295   0.527   5.689   4.064 -0.6783 -0.8270  0.3694
  171SAPE  C21719296   0.576   5.502   4.125 -0.5548 -0.4054 -0.5773
  171SAPE  H17R19297   0.617   5.408   4.083 -0.7179  0.1320 -1.9871
  171SAPE  H17S19298   0.480   5.468   4.170 -0.5174 -0.2412 -0.3668
  171SAPE  C21819299   0.670   5.568   4.235 -0.1951 -0.2439 -0.2344
  171SAPE  H18R19300   0.630   5.665   4.272 -0.2281 -0.2711 -0.1993
  171SAPE  H18S19301   0.763   5.598   4.182  0.1018 -1.4974 -0.4715
  171SAPE  C21919302   0.698   5.481   4.358 -0.4203  0.2264 -0.0127
  171SAPE  H19R19303   0.729   5.379   4.325 -0.7195 -0.3879  1.5131
  171SAPE  H19S19304   0.606   5.463   4.418  0.4395 -0.4655  1.1432
  171SAPE  C22019305   0.822   5.524   4.446  0.4886  0.6084 -0.1075
  171SAPE  H20R19306   0.805   5.483   4.548  0.0494  0.5882 -0.1862
  171SAPE  H20S19307   0.825   5.635   4.443  1.8124  0.5802 -0.7923
  171SAPE  H20T19308   0.918   5.470   4.426 -0.9496 -2.4486  0.5911
  171SAPE   C3319309   0.291   5.066   2.944 -0.2151  0.1357 -0.0428
  171SAPE   H3X19310   0.401   5.058   2.933 -0.1264  1.5372 -0.2952
  171SAPE   H3Y19311   0.246   4.968   2.918  1.4404 -0.0176 -2.5805
  171SAPE   C3419312   0.256   5.102   3.093 -0.6983 -0.3346  0.6313
  171SAPE   H4X19313   0.302   5.201   3.117 -0.8107  0.0340 -0.6169
  171SAPE   H4Y19314   0.310   5.023   3.149  2.2472  0.4430 -0.9155
  171SAPE   C3519315   0.106   5.139   3.118 -0.3285  0.2737  0.4154
  171SAPE   H5X19316   0.035   5.057   3.091 -0.8397  0.7516  0.2903
  171SAPE   H5Y19317   0.090   5.224   3.048  0.6541  1.6735  1.8413
  171SAPE   C3619318   0.081   5.178   3.260 -0.1991 -0.0439 -0.2427
  171SAPE   H6X19319  -0.012   5.239   3.256 -1.8263 -2.4723 -1.6121
  171SAPE   H6Y19320   0.167   5.230   3.308  0.2604 -0.4148 -0.6542
  171SAPE   C3719321   0.030   5.056   3.342  0.2481 -0.5875 -0.7395
  171SAPE   H7X19322   0.096   4.967   3.327 -1.1108 -2.1195  1.6792
  171SAPE   H7Y19323  -0.071   5.017   3.317  0.5243 -0.7747 -1.5813
  171SAPE   C3819324   0.019   5.097   3.489 -0.5695  0.3950 -0.0112
  171SAPE   H8X19325  -0.038   5.192   3.478 -1.0878 -0.0746 -1.7506
  171SAPE   H8Y19326   0.108   5.137   3.542 -0.8995 -0.4176  1.1924
  171SAPE   C3919327  -0.032   4.986   3.580  0.2412 -0.2928  0.0714
  171SAPE   H9X19328   0.045   4.908   3.562 -1.2761 -1.7377 -0.4002
  171SAPE   H9Y19329  -0.133   4.951   3.551 -0.0549  2.1835 -2.3225
  171SAPE  C31019330  -0.034   5.027   3.729  0.3074 -0.1257 -0.4281
  171SAPE  H10X19331  -0.089   5.123   3.741 -0.2849 -0.4321 -0.6360
  171SAPE  H10Y19332   0.069   5.040   3.768 -0.8797 -0.0805  2.9954
  171SAPE  C31119333  -0.097   4.928   3.823  0.4368  0.3326  0.6865
  171SAPE  H11X19334  -0.019   4.849   3.814  0.7843  0.8461 -1.3949
  171SAPE  H11Y19335  -0.188   4.884   3.779  0.9739 -0.3833  0.2685
  171SAPE  C31219336  -0.114   4.985   3.961  0.3042  0.8414 -0.2990
  171SAPE  H12X19337  -0.182   5.073   3.966 -1.5264 -0.5307  0.2886
  171SAPE  H12Y19338  -0.011   5.018   3.988 -0.8032  3.1315  1.5168
  171SAPE  C31319339  -0.151   4.872   4.063 -0.0661  0.2820 -0.4959
  171SAPE  H13X19340  -0.075   4.791   4.056 -0.6305 -0.4710  1.5422
  171SAPE  H13Y19341  -0.245   4.834   4.019  1.0403 -3.1618 -0.1527
  171SAPE  C31419342  -0.155   4.925   4.212 -0.0245 -0.1244 -0.2168
  171SAPE  H14X19343  -0.209   4.849   4.272 -1.1735  0.2952 -0.6930
  171SAPE  H14Y19344  -0.210   5.021   4.220  1.9333  0.8543  2.8385
  171SAPE  C31519345  -0.023   4.982   4.274  0.6022  0.0863 -0.1625
  171SAPE  H15X19346   0.016   5.080   4.238  0.3479  0.0698 -0.4856
  171SAPE  H15Y19347   0.064   4.921   4.239 -0.0816  0.6520 -3.1599
  171SAPE  C31619348  -0.036   4.983   4.425  0.1304 -0.6475 -0.7871
  171SAPE  H16X19349  -0.060   4.882   4.463 -0.0681 -0.1713  0.3993
  171SAPE  H16Y19350  -0.122   5.050   4.447  1.5808  0.9981  0.0942
  171SAPE  C31719351   0.080   5.052   4.497 -0.3070  0.7530 -0.7982
  171SAPE  H17X19352   0.033   5.081   4.593  1.6123  0.8657  0.1420
  171SAPE  H17Y19353   0.110   5.146   4.446  0.7978  0.8758  0.0496
  171SAPE  C31819354   0.192   4.958   4.523  0.3832 -0.2204  0.1596
  171SAPE  H18X19355   0.267   5.008   4.587  0.4969  1.0516 -0.9331
  171SAPE  H18Y19356   0.246   4.936   4.428 -0.8191  0.4134 -0.7022
  171SAPE  H18Z19357   0.155   4.860   4.562 -0.8678  0.5565  0.9945
  172SAPE     N19358   0.292   6.241   1.758  0.4061  0.5936  0.2068
  172SAPE   HN119359   0.206   6.183   1.763  0.5150  0.2859 -1.1035
  172SAPE   HN219360   0.333   6.231   1.663  0.1150 -1.0708  0.2350
  172SAPE   HN319361   0.348   6.206   1.838  0.1701 -0.1914  0.0335
  172SAPE   C1219362   0.265   6.384   1.794 -0.0344  0.4945 -0.1370
  172SAPE  H12A19363   0.200   6.434   1.719  1.6438 -0.9716 -2.7042
  172SAPE  H12B19364   0.361   6.440   1.791  0.3951 -0.2488 -2.2707
  172SAPE   C1119365   0.206   6.396   1.942  0.0387 -0.2328 -0.2161
  172SAPE  H11A19366   0.191   6.505   1.954 -1.9137 -0.1842 -2.3529
  172SAPE  H11B19367   0.273   6.364   2.025 -3.4672 -2.3964  2.0652
  172SAPE     P19368  -0.031   6.407   2.044 -0.0887 -0.5277  0.2689
  172SAPE   O1319369  -0.080   6.516   1.955  0.0186  0.3306  0.4821
  172SAPE   O1419370  -0.135   6.312   2.101  0.4406  0.1816  0.0426
  172SAPE   O1219371   0.083   6.325   1.962 -0.2927 -0.5118  0.2316
  172SAPE   O1119372   0.051   6.476   2.162  0.4385 -0.0421  0.2968
  172SAPE    C119373   0.067   6.404   2.287  0.2045  0.1687 -0.0066
  172SAPE    HA19374   0.070   6.294   2.271  2.5054  0.0484  0.9516
  172SAPE    HB19375   0.153   6.438   2.348  0.2826 -1.3057  0.7389
  172SAPE    C219376  -0.064   6.427   2.371 -0.4997 -0.6925 -0.5495
  172SAPE    HS19377  -0.145   6.385   2.308  0.1277 -1.2079 -1.0282
  172SAPE   O2119378  -0.085   6.569   2.395 -0.1283  0.2493  0.1172
  172SAPE   C2119379  -0.209   6.600   2.420 -0.1113  0.3786 -0.1458
  172SAPE   O2219380  -0.309   6.532   2.401  0.4428  0.4134  0.4051
  172SAPE   C2219381  -0.220   6.730   2.498  0.1904  0.1616  1.3286
  172SAPE   H2R19382  -0.210   6.810   2.422  1.1105  0.3833  1.6616
  172SAPE   H2S19383  -0.321   6.740   2.543  0.4108  0.3563  1.7851
  172SAPE    C319384  -0.056   6.349   2.508 -0.1194  0.7470  0.7200
  172SAPE    HX19385   0.030   6.393   2.563  1.8464  0.0012 -1.5801
  172SAPE    HY19386  -0.040   6.242   2.483  0.0055  0.6990  0.9983
  172SAPE   O3119387  -0.178   6.369   2.588 -0.2136 -0.0040 -0.5955
  172SAPE   C3119388  -0.286   6.290   2.564  0.0167 -0.1263 -1.2302
  172SAPE   O3219389  -0.280   6.192   2.487 -0.8264 -0.4451  0.2696
  172SAPE   C3219390  -0.399   6.339   2.654  0.0488  0.1546 -0.3771
  172SAPE   H2X19391  -0.461   6.252   2.687 -0.9624  0.6978 -0.8109
  172SAPE   H2Y19392  -0.456   6.419   2.603 -2.5296  0.6376  2.8680
  172SAPE   C2319393  -0.101   6.767   2.597  0.3498 -0.0655  0.1553
  172SAPE   H3R19394  -0.099   6.878   2.597 -1.7362  0.0058  0.5552
  172SAPE   H3S19395  -0.007   6.730   2.550  0.6444  0.6280  0.1861
  172SAPE   C2419396  -0.116   6.721   2.744 -0.1173 -0.4528 -0.3214
  172SAPE   H4R19397  -0.014   6.730   2.789  0.8519  0.8613 -2.6252
  172SAPE   H4S19398  -0.145   6.614   2.739  0.3736 -0.5605 -1.0005
  172SAPE   C2519399  -0.221   6.805   2.813 -0.5540 -0.7531  0.8235
  172SAPE   H5R19400  -0.324   6.774   2.792 -0.7784  1.6255 -2.2771
  172SAPE   C2619401  -0.195   6.881   2.923  0.3478 -0.1305  0.5994
  172SAPE   H6R19402  -0.280   6.923   2.979 -0.0171 -0.6827  0.4762
  172SAPE   C2719403  -0.063   6.911   2.992  0.6656  0.2216 -0.0432
  172SAPE   H7R19404  -0.052   7.020   3.010  2.8766  0.2290 -1.1093
  172SAPE   H7S19405   0.027   6.892   2.930  0.5340  0.6804 -0.3799
  172SAPE   C2819406  -0.062   6.826   3.125  0.3853  0.1945 -0.3128
  172SAPE   H8R19407  -0.112   6.731   3.101  2.7872 -1.0801 -0.5657
  172SAPE   C2919408  -0.009   6.858   3.245  0.1775  0.1351 -0.7001
  172SAPE   H9R19409  -0.036   6.801   3.335 -0.7445 -1.0898 -1.7173
  172SAPE  C21019410   0.074   6.984   3.265 -0.1819 -0.0655  0.4246
  172SAPE  H10R19411   0.015   7.076   3.248  2.3619  1.5508 -0.1264
  172SAPE  H10S19412   0.163   6.984   3.198 -0.8483 -2.4295 -0.5757
  172SAPE  C21119413   0.118   6.994   3.407 -0.1258  0.1896  0.3700
  172SAPE  H11R19414   0.090   6.910   3.473  1.3066 -2.0728 -1.7199
  172SAPE  C21219415   0.181   7.103   3.452 -0.1936 -0.0382  0.9711
  172SAPE  H12R19416   0.205   7.102   3.560  0.9652 -2.7148  0.7656
  172SAPE  C21319417   0.203   7.226   3.364 -0.7235  0.5467 -0.2333
  172SAPE  H13R19418   0.112   7.289   3.353  1.0508  3.1390 -0.9783
  172SAPE  H13S19419   0.236   7.191   3.264  1.6929  1.0906  0.2991
  172SAPE  C21419420   0.300   7.330   3.423 -0.0340  0.0077 -0.1006
  172SAPE  H14R19421   0.395   7.329   3.368  1.7901  0.4074  2.8255
  172SAPE  C21519422   0.303   7.403   3.539  0.2584  0.2653  0.3466
  172SAPE  H15R19423   0.384   7.471   3.568 -0.2154  0.4304  1.3134
  172SAPE  C21619424   0.190   7.400   3.639  0.1828  0.3827 -0.4068
  172SAPE  H16R19425   0.120   7.316   3.616  1.0389  0.2721 -2.8821
  172SAPE  H16S19426   0.129   7.491   3.623 -4.0523 -1.6210  2.3858
  172SAPE  C21719427   0.244   7.387   3.784 -0.1900 -0.0666  0.3537
  172SAPE  H17R19428   0.334   7.322   3.789  0.5719  1.0492  3.0767
  172SAPE  H17S19429   0.167   7.349   3.853 -1.7837 -0.0867 -1.3494
  172SAPE  C21819430   0.291   7.527   3.842 -0.4379  0.5935 -0.5707
  172SAPE  H18R19431   0.203   7.583   3.879  0.2537  0.8478  0.7420
  172SAPE  H18S19432   0.341   7.589   3.764 -0.3513  0.5363 -0.5622
  172SAPE  C21919433   0.380   7.511   3.964 -0.3018  0.3818 -0.2546
  172SAPE  H19R19434   0.475   7.462   3.933 -0.3004  0.3718 -0.2345
  172SAPE  H19S19435   0.339   7.438   4.037  1.9851  0.5861  1.3261
  172SAPE  C22019436   0.429   7.634   4.042  0.1363  0.1739  0.0246
  172SAPE  H20R19437   0.340   7.697   4.063 -0.1325 -0.3876  0.6108
  172SAPE  H20S19438   0.503   7.690   3.981  1.8518  0.3329  2.1487
  172SAPE  H20T19439   0.480   7.616   4.139  0.6972 -1.6988 -0.5837
  172SAPE   C3319440  -0.356   6.403   2.796 -0.2992  0.5095 -0.4359
  172SAPE   H3X19441  -0.343   6.513   2.787 -0.4184  0.5521 -0.1123
  172SAPE   H3Y19442  -0.255   6.367   2.825  0.7353  2.5745 -1.2568
  172SAPE   C3419443  -0.434   6.363   2.920  0.0157  0.2623 -0.3368
  172SAPE   H4X19444  -0.439   6.252   2.919  2.2130  0.1200 -0.4966
  172SAPE   H4Y19445  -0.535   6.407   2.917  0.8101  2.8234  3.4914
  172SAPE   C3519446  -0.378   6.412   3.063  0.6620 -0.2046  0.6221
  172SAPE   H5X19447  -0.447   6.361   3.134 -0.0579 -0.9401 -0.5531
  172SAPE   H5Y19448  -0.378   6.522   3.074  2.1696 -0.1086 -0.0693
  172SAPE   C3619449  -0.235   6.369   3.094 -0.6222 -0.6317 -0.1738
  172SAPE   H6X19450  -0.157   6.434   3.049 -0.0617 -0.2509  1.2825
  172SAPE   H6Y19451  -0.221   6.265   3.057  0.0564  0.4065 -3.0469
  172SAPE   C3719452  -0.204   6.371   3.249 -0.1271  0.4145  0.2815
  172SAPE   H7X19453  -0.096   6.342   3.250  0.0889  1.1914 -0.1128
  172SAPE   H7Y19454  -0.259   6.291   3.303  0.5451 -0.2753 -0.0351
  172SAPE   C3819455  -0.221   6.501   3.327  0.1577  0.0648  0.5465
  172SAPE   H8X19456  -0.323   6.543   3.329  0.2509  0.3220  0.1255
  172SAPE   H8Y19457  -0.151   6.572   3.277  0.4979  0.0444  0.9827
  172SAPE   C3919458  -0.168   6.492   3.470 -0.2372  0.4078 -0.5246
  172SAPE   H9X19459  -0.148   6.588   3.522  1.0018 -0.6939  1.1604
  172SAPE   H9Y19460  -0.083   6.421   3.471 -1.1882 -0.7673  0.0676
  172SAPE  C31019461  -0.261   6.406   3.570 -0.0506  0.6974 -0.0908
  172SAPE  H10X19462  -0.280   6.307   3.523  0.7570  0.4522  0.0778
  172SAPE  H10Y19463  -0.353   6.464   3.591 -1.6518 -0.6182 -2.8819
  172SAPE  C31119464  -0.193   6.364   3.702 -0.3479  0.1072 -0.4265
  172SAPE  H11X19465  -0.089   6.329   3.681 -0.4710  0.7886 -2.4016
  172SAPE  H11Y19466  -0.248   6.279   3.748 -2.2390 -0.3055 -3.1749
  172SAPE  C31219467  -0.199   6.482   3.799 -0.1203  0.3756  0.1439
  172SAPE  H12X19468  -0.301   6.522   3.811 -0.1244  0.9164 -1.3575
  172SAPE  H12Y19469  -0.154   6.566   3.740 -2.5143  1.9285  0.3746
  172SAPE  C31319470  -0.123   6.456   3.929  0.4405 -0.0408  0.2191
  172SAPE  H13X19471  -0.016   6.435   3.908  0.6665 -0.5421  1.7370
  172SAPE  H13Y19472  -0.172   6.367   3.974 -2.0660 -0.4944 -3.0282
  172SAPE  C31419473  -0.127   6.583   4.015  0.9740  0.3644  0.0744
  172SAPE  H14X19474  -0.235   6.605   4.024 -0.0575 -3.6450 -0.2438
  172SAPE  H14Y19475  -0.074   6.659   3.954 -0.9051  0.0158 -2.1074
  172SAPE  C31519476  -0.052   6.568   4.152  1.1629  1.0687 -0.0685
  172SAPE  H15X19477   0.050   6.525   4.142  0.6974 -0.7684  2.2598
  172SAPE  H15Y19478  -0.111   6.497   4.214  0.7461  2.8759  1.7068
  172SAPE  C31619479  -0.041   6.697   4.230 -0.1480 -0.9451  0.5924
  172SAPE  H16X19480  -0.141   6.729   4.269  0.2095  0.2178  0.5921
  172SAPE  H16Y19481  -0.004   6.773   4.158 -0.1089 -1.3092  0.2285
  172SAPE  C31719482   0.065   6.707   4.343  0.1485 -0.0381 -0.1562
  172SAPE  H17X19483   0.158   6.662   4.303  1.1978 -1.3899  3.3467
  172SAPE  H17Y19484   0.022   6.653   4.431  2.3352 -1.3246  0.1917
  172SAPE  C31819485   0.084   6.850   4.382 -0.6037  0.2334  0.7319
  172SAPE  H18X19486   0.140   6.859   4.477  1.3140 -3.0569  0.0726
  172SAPE  H18Y19487  -0.008   6.912   4.391  0.1918  1.9212 -1.6856
  172SAPE  H18Z19488   0.142   6.901   4.303 -1.8401 -0.8112 -0.9229
  173SLPC     N19489   5.955   1.207   6.586  0.0497  0.0008 -0.5893
  173SLPC   C1319490   5.975   1.068   6.592  0.1571  0.2803  0.0553
  173SLPC  H13A19491   6.011   1.026   6.500 -2.3147  0.3060 -1.0147
  173SLPC  H13B19492   6.029   1.046   6.683 -0.7064  2.0608  1.0569
  173SLPC  H13C19493   5.882   1.012   6.596  0.4529 -0.1618  0.9155
  173SLPC   C1419494   5.858   1.252   6.695  0.3813 -0.0939  0.2908
  173SLPC  H14A19495   5.765   1.197   6.687 -0.2141  1.0636 -1.2519
  173SLPC  H14B19496   5.885   1.226   6.797 -2.5175 -0.2552  1.1125
  173SLPC  H14C19497   5.843   1.358   6.699 -3.1666 -0.4423 -0.2944
  173SLPC   C1519498   5.889   1.244   6.456 -0.2154 -1.1728 -0.2599
  173SLPC  H15A19499   5.912   1.342   6.418  0.4995 -1.3488 -0.3012
  173SLPC  H15B19500   5.914   1.175   6.376 -0.7767 -0.2240 -1.2803
  173SLPC  H15C19501   5.782   1.234   6.466 -0.8054  3.4455  0.2192
  173SLPC   C1219502   6.078   1.284   6.597  0.4451 -1.1744 -0.1098
  173SLPC  H12A19503   6.123   1.265   6.693  1.7823 -0.0730 -0.4940
  173SLPC  H12B19504   6.061   1.390   6.597 -3.0224 -1.6101  0.6948
  173SLPC   C1119505   6.178   1.260   6.492 -0.5809 -0.5469  0.1087
  173SLPC  H11A19506   6.134   1.265   6.390  0.3970  0.5627 -0.2830
  173SLPC  H11B19507   6.218   1.156   6.485 -1.2367 -0.6956 -2.1399
  173SLPC     P19508   6.248   1.508   6.438 -0.2739 -0.3342 -0.0041
  173SLPC   O1319509   6.128   1.569   6.505  0.1301 -0.1914  0.3455
  173SLPC   O1419510   6.371   1.590   6.429  0.2399 -0.0295 -0.1637
  173SLPC   O1219511   6.282   1.363   6.506 -0.3858 -0.5923  0.6397
  173SLPC   O1119512   6.219   1.468   6.289  0.4390 -0.4010  0.0254
  173SLPC    C119513   6.308   1.413   6.189 -0.6942 -0.8779  0.2583
  173SLPC    HA19514   6.400   1.384   6.244 -1.2330 -0.0097  1.6626
  173SLPC    HB19515   6.267   1.319   6.147  1.8746 -2.0567  0.1513
  173SLPC    C219516   6.354   1.504   6.073  0.2858  0.4504  0.0804
  173SLPC    HS19517   6.362   1.608   6.113 -0.8988  0.8931 -0.7466
  173SLPC   O2119518   6.245   1.506   5.974  0.2579 -0.4167 -0.3496
  173SLPC   C2119519   6.265   1.599   5.879 -0.2942 -0.5487  0.3519
  173SLPC   O2219520   6.357   1.681   5.885  0.0935  0.2179  0.1444
  173SLPC   C2219521   6.167   1.565   5.768 -0.3262 -0.2092  0.1340
  173SLPC   H2R19522   6.221   1.499   5.697  3.7547  2.5024  0.3339
  173SLPC   H2S19523   6.071   1.518   5.798 -1.0516  1.8642  1.3134
  173SLPC    C319524   6.492   1.461   6.012  0.2467 -0.6378 -0.0561
  173SLPC    HX19525   6.565   1.453   6.095 -2.0303 -2.0305  1.9541
  173SLPC    HY19526   6.525   1.537   5.938  2.0012 -0.9970  0.3079
  173SLPC   O3119527   6.484   1.327   5.965  0.3202 -0.2280 -0.7417
  173SLPC   C3119528   6.462   1.310   5.833  0.3986 -0.2096  0.0819
  173SLPC   O3219529   6.437   1.393   5.749  0.3584  0.4679  0.1272
  173SLPC   C3219530   6.476   1.164   5.799 -0.3971  0.4153  0.7228
  173SLPC   H2X19531   6.396   1.098   5.840 -0.4716 -0.4650 -0.7635
  173SLPC   H2Y19532   6.577   1.140   5.837 -0.7337  1.5286  2.4531
  173SLPC   C2319533   6.151   1.692   5.683  0.3033  0.5078  0.4259
  173SLPC   H3R19534   6.244   1.721   5.629 -0.7271  1.8593 -0.6872
  173SLPC   H3S19535   6.122   1.767   5.760 -1.1035 -1.3058  1.7506
  173SLPC   C2419536   6.023   1.690   5.589 -0.6448  0.6880 -1.0961
  173SLPC   H4R19537   5.935   1.672   5.654  0.2338  2.0735  0.5614
  173SLPC   H4S19538   6.029   1.608   5.515 -0.7902 -1.1377  0.8205
  173SLPC   C2519539   5.996   1.811   5.506 -0.5969 -0.0428 -0.6129
  173SLPC   H5R19540   6.083   1.828   5.438  1.2106  1.1086  1.8375
  173SLPC   H5S19541   5.999   1.907   5.562 -1.6482  1.2558 -2.6499
  173SLPC   C2619542   5.872   1.803   5.421  0.4647 -0.2641 -0.4659
  173SLPC   H6R19543   5.786   1.812   5.491 -0.8460 -0.1042 -2.0507
  173SLPC   H6S19544   5.880   1.698   5.384 -0.6757  0.0081 -1.5353
  173SLPC   C2719545   5.863   1.898   5.303  0.3403 -0.5460 -0.0905
  173SLPC   H7R19546   5.769   1.874   5.248  0.4327  0.0339 -0.5154
  173SLPC   H7S19547   5.950   1.886   5.235 -1.2344 -1.5281 -2.0639
  173SLPC   C2819548   5.865   2.056   5.342 -0.5873  0.0208  0.1165
  173SLPC   H8R19549   5.854   2.109   5.245 -0.8996  0.9795  0.6645
  173SLPC   H8S19550   5.957   2.084   5.397 -0.9074  0.6697  0.3367
  173SLPC   C2919551   5.750   2.092   5.434 -0.1686  0.1729  0.6494
  173SLPC   H9R19552   5.733   2.031   5.523 -1.0580  1.3036  1.2796
  173SLPC  C21019553   5.682   2.214   5.423  0.1837 -0.1403 -0.2448
  173SLPC  H10R19554   5.604   2.236   5.497  2.0486  0.4687  1.6479
  173SLPC  C21119555   5.692   2.314   5.305  0.1411  0.7670  0.1881
  173SLPC  H11R19556   5.800   2.319   5.282 -0.1255 -0.9655 -1.7393
  173SLPC  H11S19557   5.670   2.413   5.350  2.2701  1.3133  0.1247
  173SLPC  C21219558   5.607   2.275   5.182  0.1956 -0.1333 -0.4645
  173SLPC  H12R19559   5.624   2.172   5.147  0.9715 -0.7505  1.5972
  173SLPC  C21319560   5.553   2.357   5.093 -0.0708  0.5985  0.5644
  173SLPC  H13R19561   5.502   2.329   4.999  1.7868 -1.2032  0.0222
  173SLPC  C21419562   5.536   2.504   5.111 -0.1451 -0.5836  0.1301
  173SLPC  H14R19563   5.601   2.555   5.036  1.4653 -1.1414  1.0839
  173SLPC  H14S19564   5.580   2.547   5.204 -0.1009  0.7718 -0.4914
  173SLPC  C21519565   5.393   2.546   5.104 -0.0031  0.4333  0.6873
  173SLPC  H15R19566   5.341   2.487   5.025  0.6295 -0.6775  1.0747
  173SLPC  H15S19567   5.381   2.649   5.065 -0.5875  0.5512  1.1577
  173SLPC  C21619568   5.319   2.538   5.234 -0.1472 -0.1060  0.0433
  173SLPC  H16R19569   5.342   2.627   5.296  0.0513 -0.6129  0.7191
  173SLPC  H16S19570   5.352   2.450   5.293 -2.6251  0.1730  2.0345
  173SLPC  C21719571   5.166   2.530   5.202  0.1942 -0.4339 -0.2347
  173SLPC  H17R19572   5.150   2.460   5.118  0.5285 -1.7183  0.7406
  173SLPC  H17S19573   5.129   2.633   5.181  0.7935  0.1636  1.4775
  173SLPC  C21819574   5.094   2.491   5.330  0.3361  0.0476  0.4090
  173SLPC  H18R19575   5.130   2.393   5.369 -2.3405 -0.6314  1.3920
  173SLPC  H18S19576   4.985   2.476   5.314  0.4646 -0.5199  0.0305
  173SLPC  H18T19577   5.115   2.565   5.411  0.7081  0.0945  0.2703
  173SLPC   C3319578   6.477   1.143   5.645 -0.3277  0.2205  0.3751
  173SLPC   H3X19579   6.552   1.208   5.595 -0.1865  0.7606  1.2604
  173SLPC   H3Y19580   6.385   1.186   5.598 -0.2767  1.4017  1.3055
  173SLPC   C3419581   6.494   1.000   5.604 -0.2014  0.2399 -0.0732
  173SLPC   H4X19582   6.398   0.955   5.636 -0.9682  2.7228  1.3550
  173SLPC   H4Y19583   6.580   0.949   5.654 -0.9082  0.3056  1.2367
  173SLPC   C3519584   6.491   0.993   5.451  0.6830 -0.4017  0.6723
  173SLPC   H5X19585   6.525   0.894   5.414 -1.4735 -1.5356  1.5703
  173SLPC   H5Y19586   6.562   1.069   5.411  1.2694 -0.1265  2.1705
  173SLPC   C3619587   6.351   1.010   5.392 -0.4072  0.3916 -0.0219
  173SLPC   H6X19588   6.303   1.099   5.437 -1.2878 -0.7930  1.5180
  173SLPC   H6Y19589   6.279   0.926   5.407 -0.6627  0.4157 -1.0741
  173SLPC   C3719590   6.352   1.041   5.235 -0.1372 -0.2171  0.1420
  173SLPC   H7X19591   6.374   1.150   5.230 -1.2855  0.0005 -0.2460
  173SLPC   H7Y19592   6.248   1.029   5.199  0.1388  0.7081 -1.0376
  173SLPC   C3819593   6.454   0.967   5.154 -0.7584  0.1848  0.0596
  173SLPC   H8X19594   6.556   0.987   5.194 -0.7416  1.2421 -0.4737
  173SLPC   H8Y19595   6.456   1.006   5.050 -2.5130 -1.1789 -0.5429
  173SLPC   C3919596   6.425   0.816   5.146  0.6304 -0.2258  0.6074
  173SLPC   H9X19597   6.336   0.788   5.085  1.7337  0.0559 -1.2328
  173SLPC   H9Y19598   6.423   0.776   5.249  0.5755 -0.1277  0.6439
  173SLPC  C31019599   6.536   0.735   5.064 -0.5882 -0.1827 -0.0608
  173SLPC  H10X19600   6.494   0.632   5.060 -3.0787  0.8079 -1.8949
  173SLPC  H10Y19601   6.626   0.741   5.129 -1.6972 -1.7840  1.7353
  173SLPC  C31119602   6.547   0.789   4.916 -0.1952 -0.6817 -0.8476
  173SLPC  H11X19603   6.577   0.895   4.924 -0.3729 -0.7131  0.3755
  173SLPC  H11Y19604   6.449   0.770   4.868 -0.8568 -0.2253  0.3060
  173SLPC  C31219605   6.648   0.710   4.831 -0.0640 -0.2750  0.7763
  173SLPC  H12X19606   6.644   0.604   4.864 -2.0184  0.0073  1.5771
  173SLPC  H12Y19607   6.753   0.744   4.843  0.1784 -1.2946  1.6853
  173SLPC  C31319608   6.607   0.694   4.687  0.2617 -0.5793 -0.1183
  173SLPC  H13X19609   6.508   0.646   4.676 -0.2094  0.0390  1.1792
  173SLPC  H13Y19610   6.686   0.625   4.651  0.2367 -0.8806  0.4042
  173SLPC  C31419611   6.617   0.826   4.606 -0.7947  0.5511 -1.0668
  173SLPC  H14X19612   6.524   0.881   4.632 -0.2784  1.4094 -0.9887
  173SLPC  H14Y19613   6.625   0.817   4.496  1.8069 -0.6568 -0.8556
  173SLPC  C31519614   6.740   0.919   4.645  0.2068 -0.1969 -0.1513
  173SLPC  H15X19615   6.836   0.863   4.646  1.0349  0.8927  4.6355
  173SLPC  H15Y19616   6.732   0.951   4.751 -0.2281 -3.2482  0.8288
  173SLPC  C31619617   6.746   1.039   4.544 -0.3181  0.1508  0.3701
  173SLPC  H16X19618   6.641   1.063   4.517 -0.6305 -1.3624  0.1277
  173SLPC  H16Y19619   6.796   0.995   4.455 -1.7294 -2.2862  0.6894
  173SLPC  C31719620   6.827   1.161   4.583  0.3488 -0.3594 -0.2372
  173SLPC  H17X19621   6.935   1.137   4.576 -0.0092 -2.8802  1.4234
  173SLPC  H17Y19622   6.802   1.193   4.687 -0.5172  2.0438 -1.1129
  173SLPC  C31819623   6.781   1.282   4.501  0.1805  0.0577  0.3767
  173SLPC  H18X19624   6.672   1.297   4.494 -0.0647 -1.5881  0.2643
  173SLPC  H18Y19625   6.824   1.272   4.399 -0.0333  0.0800  0.2842
  173SLPC  H18Z19626   6.818   1.374   4.551 -0.6381  1.8904 -2.2044
  174SLPC     N19627   2.136   1.421   6.429  0.1680 -0.1066  0.3562
  174SLPC   C1319628   2.059   1.402   6.293 -0.5381 -0.1300 -0.2141
  174SLPC  H13A19629   1.973   1.344   6.321  2.3198 -3.7048  2.0098
  174SLPC  H13B19630   2.034   1.494   6.241  0.8565  0.3833 -0.0247
  174SLPC  H13C19631   2.113   1.346   6.219 -1.7952 -1.7329  0.0420
  174SLPC   C1419632   2.252   1.519   6.396  0.1425 -0.3220 -0.5084
  174SLPC  H14A19633   2.327   1.471   6.334  0.0371 -3.1788  1.3720
  174SLPC  H14B19634   2.206   1.603   6.345 -1.2240 -0.1175  0.9808
  174SLPC  H14C19635   2.302   1.562   6.482 -0.3779 -0.0651 -0.3348
  174SLPC   C1519636   2.183   1.291   6.472  0.2490  1.1435 -0.9957
  174SLPC  H15A19637   2.263   1.267   6.404  1.5410 -0.4614  0.9791
  174SLPC  H15B19638   2.226   1.281   6.570 -0.4575 -3.0022 -0.9042
  174SLPC  H15C19639   2.102   1.220   6.482 -0.2970  2.0061  1.0815
  174SLPC   C1219640   2.038   1.485   6.530 -0.1125 -0.5268 -0.2139
  174SLPC  H12A19641   2.092   1.529   6.612 -1.3012 -1.1843  0.9495
  174SLPC  H12B19642   1.977   1.412   6.581 -1.1757  0.9808  0.7385
  174SLPC   C1119643   1.946   1.601   6.470 -0.0751  0.6283 -0.4088
  174SLPC  H11A19644   1.891   1.633   6.561 -1.2395  0.4679 -1.0384
  174SLPC  H11B19645   1.871   1.550   6.406 -1.1182  0.3603  0.9628
  174SLPC     P19646   1.990   1.853   6.411  0.7211  0.2921 -0.3552
  174SLPC   O1319647   1.891   1.893   6.305 -0.4494 -0.1883 -0.1416
  174SLPC   O1419648   1.946   1.881   6.553 -0.3279  0.5820 -0.4500
  174SLPC   O1219649   2.020   1.700   6.395  0.5022  0.0815 -0.1605
  174SLPC   O1119650   2.126   1.934   6.389  0.1684 -0.1995 -0.0972
  174SLPC    C119651   2.251   1.885   6.434 -0.7060  0.4132  0.2440
  174SLPC    HA19652   2.298   1.936   6.521 -1.5784 -0.8395  1.4930
  174SLPC    HB19653   2.239   1.781   6.472  1.3310 -0.4381 -1.2336
  174SLPC    C219654   2.360   1.869   6.319  0.7071  0.1946  1.1368
  174SLPC    HS19655   2.388   1.972   6.286 -1.0944  0.3275 -0.1196
  174SLPC   O2119656   2.303   1.782   6.217 -0.7324 -0.0832 -0.2587
  174SLPC   C2119657   2.252   1.838   6.116  1.4559  0.2282 -0.3953
  174SLPC   O2219658   2.229   1.956   6.105 -0.0995 -0.1721  0.0122
  174SLPC   C2219659   2.202   1.742   6.009  0.4613  0.4926 -0.1161
  174SLPC   H2R19660   2.273   1.657   6.003 -0.1162 -0.5089  3.9955
  174SLPC   H2S19661   2.106   1.693   6.036 -0.5857  1.1306 -2.3840
  174SLPC    C319662   2.503   1.816   6.360 -0.1323 -0.3517 -0.2749
  174SLPC    HX19663   2.489   1.722   6.417 -1.4698 -0.6767 -1.1093
  174SLPC    HY19664   2.541   1.886   6.438  4.0744 -0.9508 -1.4910
  174SLPC   O3119665   2.607   1.802   6.260 -0.2197  0.2001 -0.1578
  174SLPC   C3119666   2.626   1.679   6.205  0.6548 -0.4943 -0.2828
  174SLPC   O3219667   2.544   1.591   6.212  0.3636  0.5299 -0.1072
  174SLPC   C3219668   2.741   1.694   6.111  0.6439  0.1484 -0.2830
  174SLPC   H2X19669   2.775   1.588   6.101 -0.4833 -0.3182  0.4806
  174SLPC   H2Y19670   2.825   1.751   6.155  0.3725  0.3874 -0.0776
  174SLPC   C2319671   2.175   1.817   5.868 -0.4028 -0.7389 -0.2682
  174SLPC   H3R19672   2.119   1.911   5.891 -0.5771 -0.1546 -2.7891
  174SLPC   H3S19673   2.120   1.744   5.805  0.5409  0.0835 -2.1092
  174SLPC   C2419674   2.310   1.851   5.807  0.0183 -0.2816  0.1283
  174SLPC   H4R19675   2.365   1.755   5.795 -0.2005 -0.3992  0.0475
  174SLPC   H4S19676   2.365   1.923   5.870  1.4715  0.0984 -1.4897
  174SLPC   C2519677   2.294   1.910   5.665  0.6345  0.1748 -0.3976
  174SLPC   H5R19678   2.231   2.001   5.674  0.2921  0.0271 -1.1734
  174SLPC   H5S19679   2.236   1.835   5.607  2.1117 -1.2320 -0.1388
  174SLPC   C2619680   2.428   1.941   5.590  0.2800  0.0516  0.0291
  174SLPC   H6R19681   2.480   1.843   5.573 -0.1729 -0.0907 -0.5795
  174SLPC   H6S19682   2.494   2.004   5.653  0.9661  1.2012 -1.7675
  174SLPC   C2719683   2.390   2.003   5.446  0.1676  0.5231 -0.5338
  174SLPC   H7R19684   2.478   1.993   5.378  0.4592  1.5560 -0.3294
  174SLPC   H7S19685   2.365   2.110   5.462 -0.7208  0.5703 -2.0725
  174SLPC   C2819686   2.275   1.936   5.372  0.2963 -0.0419  0.1233
  174SLPC   H8R19687   2.249   1.997   5.283 -1.7093  2.2368  2.1227
  174SLPC   H8S19688   2.188   1.954   5.439 -0.5546  0.8043 -1.1520
  174SLPC   C2919689   2.291   1.791   5.339 -0.0447  0.1937 -0.7582
  174SLPC   H9R19690   2.337   1.733   5.420  0.4437  3.3606  1.4057
  174SLPC  C21019691   2.250   1.735   5.221 -0.4584  0.8552  0.1914
  174SLPC  H10R19692   2.270   1.628   5.201  2.0981  1.7593 -2.7028
  174SLPC  C21119693   2.187   1.817   5.108 -0.3972  0.5416  0.2991
  174SLPC  H11R19694   2.144   1.911   5.150 -1.1301  0.3606 -0.0233
  174SLPC  H11S19695   2.100   1.762   5.066  0.4494  0.4026 -1.3679
  174SLPC  C21219696   2.295   1.846   4.999 -0.1299  0.2411 -0.1088
  174SLPC  H12R19697   2.397   1.810   5.016  0.2878  1.7103  0.6965
  174SLPC  C21319698   2.296   1.962   4.931 -0.6049  0.1358 -0.6959
  174SLPC  H13R19699   2.384   1.981   4.867  1.8827 -1.8422  1.8962
  174SLPC  C21419700   2.183   2.062   4.917  0.5227  1.0416  0.2312
  174SLPC  H14R19701   2.183   2.152   4.982 -0.8834  0.3702  1.2102
  174SLPC  H14S19702   2.089   2.006   4.936 -0.5701  2.4793 -0.7468
  174SLPC  C21519703   2.144   2.117   4.782  0.1136 -0.3249  0.1833
  174SLPC  H15R19704   2.226   2.181   4.742  0.4612 -2.1403 -2.2170
  174SLPC  H15S19705   2.058   2.187   4.789  0.8631  0.5076  1.5047
  174SLPC  C21619706   2.102   2.000   4.691 -0.0648 -0.3825  0.0142
  174SLPC  H16R19707   2.024   1.947   4.749  2.0270 -0.7831  2.6685
  174SLPC  H16S19708   2.185   1.927   4.678 -0.1454 -0.4921  0.1145
  174SLPC  C21719709   2.045   2.062   4.556  0.3562 -0.0896  0.1299
  174SLPC  H17R19710   2.111   2.141   4.515  1.0294 -1.7221 -2.0836
  174SLPC  H17S19711   1.946   2.106   4.583 -0.1155 -0.5523 -0.7827
  174SLPC  C21819712   2.019   1.961   4.444  0.3413 -0.1908  0.3303
  174SLPC  H18R19713   1.971   1.869   4.485 -0.8416  0.8792  1.4359
  174SLPC  H18S19714   2.113   1.921   4.399  0.5517 -0.6396  1.1558
  174SLPC  H18T19715   1.957   2.004   4.363 -0.9376 -2.4382  0.0316
  174SLPC   C3319716   2.704   1.739   5.968 -0.4195 -0.1725  0.2888
  174SLPC   H3X19717   2.645   1.833   5.979  0.6319  0.3740  1.5863
  174SLPC   H3Y19718   2.622   1.675   5.928 -0.4036  0.3001 -0.5119
  174SLPC   C3419719   2.817   1.747   5.875  0.4954  0.3584 -0.2117
  174SLPC   H4X19720   2.866   1.649   5.854  0.3206  0.5914 -1.7784
  174SLPC   H4Y19721   2.902   1.811   5.908 -1.0794  2.0090  0.8547
  174SLPC   C3519722   2.772   1.805   5.739 -0.3683 -0.6552 -0.3557
  174SLPC   H5X19723   2.701   1.890   5.746  1.0068  0.4851  0.3957
  174SLPC   H5Y19724   2.705   1.731   5.691 -0.3425 -0.2041 -1.1000
  174SLPC   C3619725   2.890   1.836   5.647  0.6806 -0.1169 -0.7820
  174SLPC   H6X19726   2.983   1.791   5.688 -0.7662 -1.6633  0.9904
  174SLPC   H6Y19727   2.896   1.945   5.624  2.2192  0.0587  0.2468
  174SLPC   C3719728   2.868   1.769   5.510  0.9817 -0.1754  0.4842
  174SLPC   H7X19729   2.767   1.792   5.470  1.4012  1.7211  0.3974
  174SLPC   H7Y19730   2.878   1.659   5.523  2.2969 -0.2386 -0.7271
  174SLPC   C3819731   2.972   1.814   5.404 -0.0258 -0.1023  0.0209
  174SLPC   H8X19732   3.070   1.820   5.455 -0.9199 -0.8032  1.9128
  174SLPC   H8Y19733   2.954   1.915   5.360  2.1530 -0.2198 -1.2876
  174SLPC   C3919734   2.985   1.714   5.288 -0.2704  0.6846 -0.9967
  174SLPC   H9X19735   2.884   1.704   5.244 -0.7768  1.1388  0.0233
  174SLPC   H9Y19736   3.027   1.619   5.328 -0.3358  1.3772  0.8349
  174SLPC  C31019737   3.084   1.761   5.186 -0.2462 -0.0658 -0.4600
  174SLPC  H10X19738   3.087   1.693   5.098  0.4722  0.6738 -1.0289
  174SLPC  H10Y19739   3.184   1.761   5.236 -1.3036 -0.7186  1.7572
  174SLPC  C31119740   3.042   1.893   5.124  0.6970 -0.4659 -0.0450
  174SLPC  H11X19741   3.065   1.967   5.204 -1.1922  0.1936 -0.0475
  174SLPC  H11Y19742   2.936   1.902   5.093  0.3453 -1.7577  0.7207
  174SLPC  C31219743   3.124   1.937   5.002 -0.1655  0.0854 -0.1074
  174SLPC  H12X19744   3.113   1.852   4.932  0.9827  0.3773 -0.6587
  174SLPC  H12Y19745   3.229   1.938   5.038 -0.9195 -2.4488  2.5893
  174SLPC  C31319746   3.083   2.066   4.936 -0.3802  0.6571 -0.0059
  174SLPC  H13X19747   3.110   2.143   5.011  1.4003 -1.8508  2.1155
  174SLPC  H13Y19748   2.975   2.065   4.911 -0.4274  0.4271  0.1948
  174SLPC  C31419749   3.160   2.099   4.808 -0.4211  0.1687  0.1254
  174SLPC  H14X19750   3.266   2.073   4.828 -0.6038  0.4973  1.6130
  174SLPC  H14Y19751   3.149   2.210   4.803 -2.9605  0.0821  1.8771
  174SLPC  C31519752   3.106   2.019   4.687  0.3456  0.2175 -0.6718
  174SLPC  H15X19753   2.996   2.040   4.688  0.2007 -0.5289 -0.6976
  174SLPC  H15Y19754   3.116   1.913   4.719  1.7865  0.7585  0.8228
  174SLPC  C31619755   3.174   2.040   4.554  0.5811 -1.3828  0.4338
  174SLPC  H16X19756   3.281   2.016   4.571  0.7963  0.6597  2.4848
  174SLPC  H16Y19757   3.174   2.150   4.539 -2.1386 -1.4418 -0.6832
  174SLPC  C31719758   3.109   1.954   4.446  0.6919 -0.3217  0.0923
  174SLPC  H17X19759   3.153   1.983   4.349  0.4737 -0.0054  0.0881
  174SLPC  H17Y19760   3.000   1.962   4.431  0.4574 -1.1986  1.1799
  174SLPC  C31819761   3.135   1.806   4.473  0.0757  0.1992  0.3006
  174SLPC  H18X19762   3.068   1.762   4.550 -0.9460  2.9378  1.0908
  174SLPC  H18Y19763   3.240   1.799   4.506  0.2935  3.6883  0.6259
  174SLPC  H18Z19764   3.118   1.757   4.374 -0.0707  1.6915 -0.4332
  175SLPC     N19765   4.574   3.721   6.338  0.4182 -0.1377  0.1779
  175SLPC   C1319766   4.574   3.745   6.190 -0.1751  0.8550  0.0457
  175SLPC  H13A19767   4.673   3.767   6.153 -0.9597  0.5673 -2.3673
  175SLPC  H13B19768   4.544   3.655   6.139 -0.3410 -0.1454  1.8244
  175SLPC  H13C19769   4.515   3.829   6.157 -1.3619 -0.0412 -0.1433
  175SLPC   C1419770   4.656   3.602   6.370 -0.6203 -0.2366  0.0787
  175SLPC  H14A19771   4.653   3.573   6.475  0.5877 -0.3226  0.1043
  175SLPC  H14B19772   4.635   3.518   6.305 -1.8563 -0.7573  1.1096
  175SLPC  H14C19773   4.758   3.637   6.362 -1.2980  1.6260 -0.9066
  175SLPC   C1519774   4.433   3.696   6.372 -0.7400 -0.3285  0.4410
  175SLPC  H15A19775   4.412   3.688   6.478  0.0529  0.0133  0.6356
  175SLPC  H15B19776   4.365   3.775   6.345 -2.0699 -0.9910  1.7249
  175SLPC  H15C19777   4.390   3.611   6.322  0.0667  0.1065 -1.0392
  175SLPC   C1219778   4.624   3.844   6.411 -0.1255  0.2742  1.0885
  175SLPC  H12A19779   4.640   3.820   6.515  2.4925  0.1486  0.7286
  175SLPC  H12B19780   4.553   3.924   6.401  0.8556  0.8885 -2.0382
  175SLPC   C1119781   4.761   3.894   6.369 -0.3923 -0.2368  0.2952
  175SLPC  H11A19782   4.779   3.990   6.422  1.5689  0.2188 -1.1045
  175SLPC  H11B19783   4.767   3.902   6.259  0.0284 -0.2081  0.3173
  175SLPC     P19784   5.002   3.832   6.424  0.1634 -0.2116 -0.1072
  175SLPC   O1319785   5.005   3.960   6.493  0.2561 -0.2322  0.4003
  175SLPC   O1419786   5.071   3.713   6.480 -0.0087  0.0920  0.6757
  175SLPC   O1219787   4.854   3.796   6.401 -0.5939  0.1062 -0.0939
  175SLPC   O1119788   5.055   3.860   6.277 -0.2452 -0.0773  0.6539
  175SLPC    C119789   5.013   3.792   6.157 -0.0078  0.0900 -0.6647
  175SLPC    HA19790   5.103   3.734   6.126  0.8195  0.5870  0.7037
  175SLPC    HB19791   4.920   3.734   6.171  0.3704 -1.0866 -2.6189
  175SLPC    C219792   4.990   3.894   6.040  0.3395 -0.4571 -0.1102
  175SLPC    HS19793   4.893   3.946   6.054  0.2301 -0.4553 -0.8146
  175SLPC   O2119794   4.986   3.825   5.913 -0.4031 -0.3572 -0.0701
  175SLPC   C2119795   4.891   3.741   5.905  0.2010 -0.3582  0.4888
  175SLPC   O2219796   4.790   3.731   5.973  0.5321  0.6663  0.4389
  175SLPC   C2219797   4.915   3.647   5.780 -0.1034 -0.4863 -0.8785
  175SLPC   H2R19798   4.930   3.715   5.693  0.1757 -0.6589 -0.9673
  175SLPC   H2S19799   5.011   3.592   5.796  0.6066  0.7907 -0.5929
  175SLPC    C319800   5.118   3.989   6.042 -0.4710 -0.1001  1.1698
  175SLPC    HX19801   5.208   3.923   6.043 -0.6052 -0.2714  2.1936
  175SLPC    HY19802   5.123   4.052   6.133 -1.7564  1.0777  0.4631
  175SLPC   O3119803   5.115   4.074   5.926 -0.1749 -0.3073 -0.0214
  175SLPC   C3119804   5.215   4.150   5.910 -0.4538  0.1668 -0.1805
  175SLPC   O3219805   5.319   4.150   5.977 -0.2816 -0.2854  0.1034
  175SLPC   C3219806   5.194   4.238   5.790  0.2134  0.0142  0.0532
  175SLPC   H2X19807   5.085   4.253   5.801  0.6060  2.6702  1.0028
  175SLPC   H2Y19808   5.211   4.177   5.698  0.1510  0.0160  0.0404
  175SLPC   C2319809   4.796   3.562   5.750 -0.2307 -0.5113 -0.6460
  175SLPC   H3R19810   4.707   3.625   5.728 -2.6416 -3.1178  0.8906
  175SLPC   H3S19811   4.767   3.498   5.836 -1.0513 -0.8981 -1.1836
  175SLPC   C2419812   4.812   3.455   5.630  0.0531 -0.1285 -0.3726
  175SLPC   H4R19813   4.711   3.408   5.627 -1.2980  2.5639  0.2883
  175SLPC   H4S19814   4.876   3.375   5.673 -0.0302  0.0395  0.0669
  175SLPC   C2519815   4.859   3.507   5.493  0.0418  0.2985 -0.2879
  175SLPC   H5R19816   4.966   3.531   5.508  0.3155 -1.8201  1.7294
  175SLPC   H5S19817   4.797   3.598   5.477  0.8292  1.4406  2.4461
  175SLPC   C2619818   4.842   3.389   5.388  0.4545 -0.4220 -0.1063
  175SLPC   H6R19819   4.735   3.393   5.359  0.5071  0.0923 -0.2318
  175SLPC   H6S19820   4.869   3.296   5.443  2.6858  0.0935 -0.2613
  175SLPC   C2719821   4.940   3.409   5.268  0.3585 -0.2207 -0.8276
  175SLPC   H7R19822   5.042   3.389   5.308  0.7516  2.0169 -0.5925
  175SLPC   H7S19823   4.935   3.513   5.230  0.3879 -0.1314 -0.5904
  175SLPC   C2819824   4.908   3.304   5.156  0.9306  0.3079  0.4096
  175SLPC   H8R19825   4.891   3.206   5.207  1.8352  0.1637  0.4646
  175SLPC   H8S19826   5.005   3.293   5.103  0.2971 -0.8978 -0.5429
  175SLPC   C2919827   4.788   3.355   5.062 -0.7155 -0.4783  0.5271
  175SLPC   H9R19828   4.685   3.323   5.082 -0.7150 -1.8662 -1.3680
  175SLPC  C21019829   4.812   3.439   4.960 -0.3539  0.7030  0.4922
  175SLPC  H10R19830   4.724   3.488   4.917  0.9723  1.5465 -1.4344
  175SLPC  C21119831   4.941   3.515   4.930 -0.0262  0.2886 -0.1657
  175SLPC  H11R19832   5.029   3.462   4.971  0.0071  0.9877  0.7079
  175SLPC  H11S19833   4.934   3.619   4.970 -0.0194  0.5960 -0.9543
  175SLPC  C21219834   4.961   3.531   4.785 -0.4713  0.0914  0.3525
  175SLPC  H12R19835   5.018   3.444   4.749 -0.8708 -0.9686  2.1293
  175SLPC  C21319836   4.900   3.615   4.693 -0.2611  0.0530 -0.8113
  175SLPC  H13R19837   4.929   3.603   4.588  1.1238 -0.8196 -0.3631
  175SLPC  C21419838   4.814   3.734   4.728 -0.2165  0.3140  0.6884
  175SLPC  H14R19839   4.847   3.766   4.829 -3.2238  0.5116  1.7037
  175SLPC  H14S19840   4.709   3.698   4.725  0.4047 -1.5501 -0.1459
  175SLPC  C21519841   4.836   3.848   4.624 -0.5249  0.5115  0.3340
  175SLPC  H15R19842   4.758   3.923   4.648 -0.9435  0.5899 -1.1807
  175SLPC  H15S19843   4.824   3.817   4.518  0.6784  1.5810 -0.1486
  175SLPC  C21619844   4.974   3.913   4.643 -0.2652 -0.1226  0.7581
  175SLPC  H16R19845   5.059   3.849   4.611  0.5008  1.0178  0.4884
  175SLPC  H16S19846   4.983   3.923   4.754 -0.6453 -0.3217  0.8079
  175SLPC  C21719847   4.994   4.057   4.576 -0.0908  0.2682 -0.5963
  175SLPC  H17R19848   4.933   4.133   4.629 -0.5451  0.6968 -1.6950
  175SLPC  H17S19849   4.942   4.048   4.478 -1.1360 -1.3153  0.0684
  175SLPC  C21819850   5.143   4.091   4.548 -0.2273 -0.4794 -0.0544
  175SLPC  H18R19851   5.182   3.999   4.499 -1.5252 -1.2279  0.2548
  175SLPC  H18S19852   5.212   4.099   4.634 -1.3737  2.5449  0.7107
  175SLPC  H18T19853   5.159   4.179   4.483 -0.2660  2.0413  3.1105
  175SLPC   C3319854   5.294   4.360   5.804  0.2420 -0.2291 -0.0547
  175SLPC   H3X19855   5.397   4.320   5.791  0.4858 -0.1900  1.5342
  175SLPC   H3Y19856   5.279   4.391   5.910  2.1182  0.0042  0.1753
  175SLPC   C3419857   5.265   4.466   5.697 -0.1408 -0.0016 -0.8338
  175SLPC   H4X19858   5.159   4.442   5.673  0.4409 -1.2291 -2.4162
  175SLPC   H4Y19859   5.326   4.447   5.606 -0.0123  0.6498 -0.8901
  175SLPC   C3519860   5.283   4.612   5.748  0.5747 -0.9026 -0.3739
  175SLPC   H5X19861   5.386   4.632   5.785  0.0119 -0.6072  1.0816
  175SLPC   H5Y19862   5.213   4.618   5.834 -1.2068  4.0318 -1.8620
  175SLPC   C3619863   5.241   4.719   5.646 -0.8023  0.4536 -0.6221
  175SLPC   H6X19864   5.203   4.810   5.697 -0.0634 -0.1620  1.1064
  175SLPC   H6Y19865   5.161   4.684   5.579 -3.2085  4.5427 -0.2431
  175SLPC   C3719866   5.356   4.747   5.546 -0.6329 -0.2931  0.2744
  175SLPC   H7X19867   5.409   4.655   5.512  1.4430  0.9374  0.0198
  175SLPC   H7Y19868   5.435   4.800   5.603 -2.2613  1.2157  1.2283
  175SLPC   C3819869   5.311   4.813   5.422  1.0117 -0.2946 -1.0725
  175SLPC   H8X19870   5.259   4.903   5.461  0.0266 -1.3063  0.0187
  175SLPC   H8Y19871   5.244   4.743   5.367  0.7937 -1.4171  0.5668
  175SLPC   C3919872   5.426   4.849   5.331  0.3823 -0.1849 -0.6678
  175SLPC   H9X19873   5.483   4.754   5.320 -1.7649 -1.7593  0.9897
  175SLPC   H9Y19874   5.478   4.923   5.396 -2.2933  0.7848  0.4933
  175SLPC  C31019875   5.395   4.918   5.194  0.5307  0.0389 -0.2077
  175SLPC  H10X19876   5.487   4.964   5.153  0.2520  0.8157  0.0342
  175SLPC  H10Y19877   5.324   4.999   5.220 -0.5231 -0.9108 -0.0433
  175SLPC  C31119878   5.336   4.827   5.087 -0.2856  0.1920 -0.4690
  175SLPC  H11X19879   5.249   4.779   5.136  0.1615  1.5489  1.8057
  175SLPC  H11Y19880   5.414   4.751   5.067 -1.1572 -0.9470  0.3632
  175SLPC  C31219881   5.286   4.901   4.969  0.3454 -0.1153  0.0117
  175SLPC  H12X19882   5.230   4.990   5.006  2.0254  0.4855  1.2654
  175SLPC  H12Y19883   5.223   4.838   4.903  0.3751 -0.1697  0.0347
  175SLPC  C31319884   5.396   4.969   4.879  0.2033  0.7241 -0.0396
  175SLPC  H13X19885   5.440   4.878   4.832 -1.4213 -0.9498  1.5216
  175SLPC  H13Y19886   5.465   5.026   4.944  0.0285  0.8375  0.0460
  175SLPC  C31419887   5.333   5.060   4.772 -0.2465 -0.2042  0.1497
  175SLPC  H14X19888   5.299   5.146   4.833  0.0526 -0.8912  1.3080
  175SLPC  H14Y19889   5.248   5.008   4.721 -1.0719 -0.8103  2.0354
  175SLPC  C31519890   5.441   5.105   4.665 -0.4713  0.0533 -0.1314
  175SLPC  H15X19891   5.499   5.180   4.724  0.4104 -0.4363 -0.3513
  175SLPC  H15Y19892   5.404   5.169   4.582  1.6260  0.7430 -0.6063
  175SLPC  C31619893   5.531   4.988   4.620 -0.5173 -0.8271  0.9368
  175SLPC  H16X19894   5.483   4.889   4.636 -2.5103  0.1788  1.5391
  175SLPC  H16Y19895   5.626   4.994   4.676 -0.5746  2.7813  0.9072
  175SLPC  C31719896   5.554   5.011   4.468  0.7757  0.2162 -0.3557
  175SLPC  H17X19897   5.459   5.024   4.412  1.0941 -1.0970 -1.2521
  175SLPC  H17Y19898   5.593   4.917   4.424  1.0175 -0.1724  0.6671
  175SLPC  C31819899   5.647   5.122   4.420 -0.5463 -0.3369  0.0041
  175SLPC  H18X19900   5.754   5.106   4.443 -0.7898 -0.5081  1.0494
  175SLPC  H18Y19901   5.622   5.217   4.471  1.0036 -0.2002  0.5722
  175SLPC  H18Z19902   5.638   5.142   4.311  0.5298 -2.5814 -0.5515
  176SLPC     N19903   5.301   2.780   6.579 -0.7961 -0.7297  0.0172
  176SLPC   C1319904   5.434   2.752   6.646  0.7133 -0.0428  0.1608
  176SLPC  H13A19905   5.463   2.823   6.723  0.0682 -1.4772  1.7776
  176SLPC  H13B19906   5.435   2.660   6.703  1.8989  0.5359  1.1381
  176SLPC  H13C19907   5.509   2.750   6.569 -1.3858 -0.7838 -1.9850
  176SLPC   C1419908   5.307   2.925   6.544  0.6006  0.7490  0.2761
  176SLPC  H14A19909   5.234   2.942   6.466  0.3844 -0.4117  0.2134
  176SLPC  H14B19910   5.290   2.981   6.635 -0.2589  0.0764  0.5482
  176SLPC  H14C19911   5.405   2.949   6.507  0.0667 -0.2681 -1.9673
  176SLPC   C1519912   5.191   2.762   6.675 -0.2153  0.6672 -0.5363
  176SLPC  H15A19913   5.199   2.807   6.773 -1.7726 -0.1220 -0.0126
  176SLPC  H15B19914   5.104   2.808   6.629 -1.9405 -1.0685  0.8587
  176SLPC  H15C19915   5.165   2.659   6.692  0.6262  0.7546  1.4719
  176SLPC   C1219916   5.284   2.687   6.468 -0.4521  0.4897  0.8830
  176SLPC  H12A19917   5.184   2.710   6.433 -1.1303 -2.0595  0.9368
  176SLPC  H12B19918   5.278   2.582   6.493  2.3661  0.1254  0.3070
  176SLPC   C1119919   5.393   2.697   6.355  0.2021  0.2954 -0.0564
  176SLPC  H11A19920   5.404   2.799   6.312 -0.7800  1.0172  1.3165
  176SLPC  H11B19921   5.345   2.644   6.270  0.3350  1.5686 -0.9535
  176SLPC     P19922   5.529   2.474   6.369 -0.3445  0.0600  0.3128
  176SLPC   O1319923   5.668   2.428   6.382 -0.4962  0.2160  0.4284
  176SLPC   O1419924   5.434   2.410   6.458  0.1692 -0.1057 -0.2081
  176SLPC   O1219925   5.523   2.638   6.378 -0.4142  0.4550 -0.2085
  176SLPC   O1119926   5.475   2.432   6.231  0.7378 -0.7363 -0.1156
  176SLPC    C119927   5.548   2.464   6.113  0.3137 -0.3500 -0.2817
  176SLPC    HA19928   5.594   2.565   6.121 -0.6947 -0.0236  2.7694
  176SLPC    HB19929   5.632   2.392   6.101 -1.0965 -1.7941 -2.1435
  176SLPC    C219930   5.452   2.449   5.994  0.8954 -0.2595 -0.1307
  176SLPC    HS19931   5.508   2.472   5.900  1.5852 -0.0547  0.3215
  176SLPC   O2119932   5.332   2.536   6.016  0.7619  0.3768  0.7196
  176SLPC   C2119933   5.355   2.669   5.978  0.6241  0.5737 -0.2759
  176SLPC   O2219934   5.451   2.716   5.929  0.5955 -0.1862  0.1380
  176SLPC   C2219935   5.230   2.750   6.031 -1.1072 -0.2552  0.8601
  176SLPC   H2R19936   5.201   2.710   6.131 -0.5252 -2.0323  0.3530
  176SLPC   H2S19937   5.260   2.856   6.046  0.5949 -0.5673 -0.0945
  176SLPC    C319938   5.417   2.303   5.962 -0.2921 -0.2441  0.2078
  176SLPC    HX19939   5.372   2.257   6.053  0.9727 -0.0179  0.9622
  176SLPC    HY19940   5.510   2.246   5.942  1.1641  1.5606  1.4494
  176SLPC   O3119941   5.314   2.301   5.866 -0.1286 -1.3233  0.2221
  176SLPC   C3119942   5.355   2.317   5.737 -0.6505  0.8338  0.5060
  176SLPC   O3219943   5.474   2.315   5.707 -0.1009 -0.6560  0.1079
  176SLPC   C3219944   5.235   2.333   5.645 -0.0750  0.5261  0.3424
  176SLPC   H2X19945   5.260   2.401   5.561  3.1132 -0.0946  0.6889
  176SLPC   H2Y19946   5.149   2.376   5.701 -0.4013 -1.4130  1.4130
  176SLPC   C2319947   5.110   2.748   5.929 -0.0877 -0.1868 -0.5533
  176SLPC   H3R19948   5.016   2.785   5.973  0.1811 -0.6051  0.4009
  176SLPC   H3S19949   5.075   2.643   5.915  0.0172 -0.4475  1.0176
  176SLPC   C2419950   5.157   2.804   5.790 -0.0539  0.3519 -0.0315
  176SLPC   H4R19951   5.263   2.780   5.772 -0.1113  0.3638 -0.3868
  176SLPC   H4S19952   5.142   2.913   5.811 -2.3786  0.0001  0.4856
  176SLPC   C2519953   5.076   2.764   5.668 -0.8387 -0.3832  0.1778
  176SLPC   H5R19954   4.970   2.778   5.697 -0.6899  0.1044  0.5213
  176SLPC   H5S19955   5.098   2.660   5.639  1.3755  0.2068 -0.4516
  176SLPC   C2619956   5.108   2.854   5.548  0.4247 -0.2515 -0.2442
  176SLPC   H6R19957   5.043   2.838   5.459  1.0165 -1.2626 -0.5102
  176SLPC   H6S19958   5.209   2.835   5.507 -0.8417 -1.7388 -3.0299
  176SLPC   C2719959   5.086   3.001   5.579  0.0993  0.1953 -0.6116
  176SLPC   H7R19960   5.150   3.038   5.662 -0.3111 -0.2111 -0.1016
  176SLPC   H7S19961   4.977   3.005   5.602  0.0251 -1.1274 -0.6886
  176SLPC   C2819962   5.101   3.102   5.463  0.2503 -0.1211 -0.5628
  176SLPC   H8R19963   5.110   3.205   5.504  3.5355 -0.1182 -0.9773
  176SLPC   H8S19964   5.013   3.100   5.395  1.1409  0.6840 -1.7833
  176SLPC   C2919965   5.238   3.081   5.408 -0.0034  0.1853  0.1140
  176SLPC   H9R19966   5.316   3.089   5.485 -0.8963 -0.9383  1.1828
  176SLPC  C21019967   5.276   3.062   5.283 -0.3136  0.0037  0.6286
  176SLPC  H10R19968   5.384   3.060   5.259 -0.5182 -2.0908 -0.3356
  176SLPC  C21119969   5.178   3.026   5.164 -0.1985 -0.3239 -0.1475
  176SLPC  H11R19970   5.179   3.120   5.107 -1.3931 -0.2756 -0.1235
  176SLPC  H11S19971   5.070   3.019   5.189 -0.8326  1.1081 -2.2848
  176SLPC  C21219972   5.219   2.905   5.088  0.1534  0.5098  0.3578
  176SLPC  H12R19973   5.276   2.835   5.152  1.6279  2.6075  1.4445
  176SLPC  C21319974   5.190   2.871   4.958  0.4147  0.9012  0.9067
  176SLPC  H13R19975   5.232   2.778   4.919 -0.7041  0.8857 -0.3199
  176SLPC  C21419976   5.110   2.956   4.861 -0.3714 -0.3065 -0.0610
  176SLPC  H14R19977   5.102   3.062   4.891 -0.7967 -0.9621  2.3630
  176SLPC  H14S19978   5.003   2.928   4.864 -0.6741  0.8408  2.4870
  176SLPC  C21519979   5.168   2.954   4.716 -0.1600 -0.5003  0.1981
  176SLPC  H15R19980   5.195   2.849   4.690 -1.3010 -0.9763  0.8242
  176SLPC  H15S19981   5.254   3.022   4.705 -0.9211  0.1907 -1.9023
  176SLPC  C21619982   5.065   2.987   4.607  0.5055 -0.8260 -0.1506
  176SLPC  H16R19983   4.978   2.918   4.614  0.4054 -0.6370  0.5429
  176SLPC  H16S19984   5.106   2.976   4.505  1.8024 -0.9444  0.3680
  176SLPC  C21719985   4.999   3.129   4.636  0.4908  0.7483 -0.2108
  176SLPC  H17R19986   5.074   3.208   4.613  0.7267 -0.0319 -2.3588
  176SLPC  H17S19987   4.961   3.133   4.740 -0.3688  2.5058 -0.5616
  176SLPC  C21819988   4.880   3.136   4.534 -0.4487 -0.4649 -0.4097
  176SLPC  H18R19989   4.915   3.128   4.429  1.2010  0.8410 -0.0151
  176SLPC  H18S19990   4.820   3.229   4.544  0.6211  0.2553 -0.4844
  176SLPC  H18T19991   4.816   3.047   4.553  0.1021 -0.5373  1.3737
  176SLPC   C3319992   5.189   2.192   5.598  0.1580  0.2625 -0.4663
  176SLPC   H3X19993   5.088   2.185   5.552 -0.4997  1.6771  0.6339
  176SLPC   H3Y19994   5.189   2.111   5.674  0.6524 -0.0201 -0.7693
  176SLPC   C3419995   5.290   2.134   5.490  0.1560 -0.6627 -0.4703
  176SLPC   H4X19996   5.383   2.108   5.545  1.7499  2.8432 -1.2257
  176SLPC   H4Y19997   5.317   2.217   5.421 -0.3804  1.3278  1.6031
  176SLPC   C3519998   5.234   2.010   5.422 -1.0599 -0.5873 -0.2424
  176SLPC   H5X19999   5.131   2.040   5.392 -0.9530  0.4112  0.3543
  176SLPC   H5Y20000   5.237   1.918   5.483 -1.2884 -1.3326 -1.3161
  176SLPC   C3620001   5.301   1.986   5.285 -0.1438 -0.3475 -0.1147
  176SLPC   H6X20002   5.271   1.885   5.251 -2.5837  0.7767 -1.5428
  176SLPC   H6Y20003   5.411   1.972   5.293 -0.3843 -3.5739 -0.8696
  176SLPC   C3720004   5.247   2.076   5.169 -0.6999  0.4894  0.0043
  176SLPC   H7X20005   5.254   2.182   5.201  0.9871 -0.3377  2.7048
  176SLPC   H7Y20006   5.141   2.051   5.146 -0.3329 -0.3795 -0.8144
  176SLPC   C3820007   5.325   2.052   5.038 -0.1345 -0.0303  0.3161
  176SLPC   H8X20008   5.310   1.948   5.002 -2.2353 -0.2408  1.6613
  176SLPC   H8Y20009   5.433   2.061   5.066  0.1821 -0.5924 -0.6871
  176SLPC   C3920010   5.290   2.144   4.928  0.6152 -0.2399 -0.5947
  176SLPC   H9X20011   5.346   2.239   4.915  0.3373  0.0394  0.1938
  176SLPC   H9Y20012   5.188   2.187   4.936 -0.4178 -2.7790  1.2567
  176SLPC  C31020013   5.281   2.068   4.788 -0.4139 -0.1654 -0.8828
  176SLPC  H10X20014   5.222   2.136   4.722  1.3884  0.7736 -1.6094
  176SLPC  H10Y20015   5.228   1.971   4.802 -1.1913  0.5173  1.1848
  176SLPC  C31120016   5.423   2.039   4.739  0.1138  0.0721 -0.0750
  176SLPC  H11X20017   5.472   1.977   4.817 -0.5432  0.9896  1.1198
  176SLPC  H11Y20018   5.480   2.134   4.739  0.9657 -0.4284  0.3848
  176SLPC  C31220019   5.429   1.955   4.612  0.2553 -0.0454 -0.0007
  176SLPC  H12X20020   5.384   2.014   4.529 -0.1116 -1.4262 -0.8277
  176SLPC  H12Y20021   5.366   1.863   4.610 -0.2010  0.2294  1.0929
  176SLPC  C31320022   5.571   1.917   4.581 -0.2383 -0.8489 -0.2343
  176SLPC  H13X20023   5.619   1.874   4.672 -0.2100  0.0951  0.2047
  176SLPC  H13Y20024   5.628   2.007   4.551 -0.3569 -0.6072  0.2552
  176SLPC  C31420025   5.585   1.815   4.474  0.0604  0.3659  0.3135
  176SLPC  H14X20026   5.517   1.829   4.388  0.7637 -1.7192 -0.6603
  176SLPC  H14Y20027   5.557   1.718   4.520 -0.4532 -0.1794 -1.0873
  176SLPC  C31520028   5.725   1.799   4.421 -0.2763  0.0360 -0.6449
  176SLPC  H15X20029   5.779   1.772   4.514  1.0159  1.9377 -0.7945
  176SLPC  H15Y20030   5.782   1.887   4.384  0.1937 -0.0965 -0.2538
  176SLPC  C31620031   5.740   1.678   4.319 -0.0405 -0.1969 -0.3616
  176SLPC  H16X20032   5.696   1.712   4.223 -0.0686 -1.3056 -0.7638
  176SLPC  H16Y20033   5.682   1.596   4.367 -0.2352 -0.8811 -1.7179
  176SLPC  C31720034   5.896   1.649   4.302 -0.2367 -0.3736  0.1359
  176SLPC  H17X20035   5.938   1.633   4.404  2.1101  0.2741 -0.6621
  176SLPC  H17Y20036   5.945   1.735   4.252  2.2924 -1.0904  1.1832
  176SLPC  C31820037   5.924   1.529   4.208  1.1343  0.1524 -0.0602
  176SLPC  H18X20038   6.014   1.547   4.145 -0.4221  3.9184 -1.5032
  176SLPC  H18Y20039   5.842   1.518   4.133  0.1763 -2.5149  1.2805
  176SLPC  H18Z20040   5.930   1.435   4.266  1.4072 -0.4043 -0.9761
  177SLPC     N20041   6.425   3.516   6.920 -0.6691 -0.8213 -0.2633
  177SLPC   C1320042   6.360   3.648   6.942 -0.2881 -0.7899  0.2528
  177SLPC  H13A20043   6.387   3.689   7.038 -1.8390  0.6653  0.1040
  177SLPC  H13B20044   6.391   3.715   6.864 -0.4512 -0.1641  0.7208
  177SLPC  H13C20045   6.253   3.637   6.936 -0.2252 -1.0853 -0.3875
  177SLPC   C1420046   6.350   3.407   6.984 -0.2765  0.4833 -0.1171
  177SLPC  H14A20047   6.331   3.421   7.089  0.4547 -0.0647  0.0969
  177SLPC  H14B20048   6.255   3.398   6.935 -0.0653  1.9029 -0.8444
  177SLPC  H14C20049   6.410   3.319   6.969 -2.6818 -1.4209  0.8764
  177SLPC   C1520050   6.568   3.525   6.976 -0.4977 -0.2484  0.3013
  177SLPC  H15A20051   6.559   3.540   7.083  2.0911  1.9500  0.3275
  177SLPC  H15B20052   6.627   3.435   6.969  0.8516  0.3500  2.7814
  177SLPC  H15C20053   6.615   3.614   6.936  1.3545 -1.0527  0.5801
  177SLPC   C1220054   6.436   3.483   6.767  0.5641 -0.3516  0.1619
  177SLPC  H12A20055   6.494   3.393   6.758  0.5793 -0.4991  1.4670
  177SLPC  H12B20056   6.496   3.561   6.723  0.4477 -0.0021  0.6132
  177SLPC   C1120057   6.305   3.462   6.680 -0.1538 -0.6973  0.2723
  177SLPC  H11A20058   6.278   3.362   6.718 -1.2530 -0.3022  0.5612
  177SLPC  H11B20059   6.343   3.466   6.575 -1.4308  0.8776 -0.1824
  177SLPC     P20060   6.064   3.526   6.662 -0.2827 -0.1706  0.0251
  177SLPC   O1320061   6.034   3.389   6.707  0.8884  0.0338  0.3889
  177SLPC   O1420062   5.976   3.633   6.713 -0.2214  0.3470 -0.0937
  177SLPC   O1220063   6.211   3.564   6.688 -0.2246  0.1432 -0.4908
  177SLPC   O1120064   6.064   3.524   6.500 -0.9552  0.1592  0.4491
  177SLPC    C120065   6.139   3.636   6.437 -0.5482 -0.6582  0.1382
  177SLPC    HA20066   6.163   3.717   6.509  3.1025 -2.5133  1.2623
  177SLPC    HB20067   6.239   3.601   6.401  0.1870  2.5052 -1.2286
  177SLPC    C220068   6.063   3.691   6.316 -0.3867  0.6843 -0.0332
  177SLPC    HS20069   5.964   3.730   6.349 -2.1514 -2.3785 -1.3486
  177SLPC   O2120070   6.059   3.582   6.226  0.1028  0.1654  0.0708
  177SLPC   C2120071   5.937   3.562   6.164 -0.2010 -0.1715  0.0527
  177SLPC   O2220072   5.846   3.636   6.193 -0.6268  0.3275  0.0820
  177SLPC   C2220073   5.936   3.442   6.061  0.3838 -0.1367  0.5162
  177SLPC   H2R20074   6.040   3.435   6.022  1.0329  1.3352  1.8695
  177SLPC   H2S20075   5.928   3.346   6.117 -1.4324  0.1303  0.7631
  177SLPC    C320076   6.140   3.820   6.249  0.3039  0.4059 -0.2685
  177SLPC    HX20077   6.245   3.788   6.238 -0.3221 -2.1202  0.2760
  177SLPC    HY20078   6.131   3.901   6.325 -0.7432  0.6947 -0.6806
  177SLPC   O3120079   6.088   3.865   6.122  0.4784  0.1842 -0.3733
  177SLPC   C3120080   6.000   3.962   6.131 -0.7144 -0.8628  0.8017
  177SLPC   O3220081   5.957   4.016   6.230  0.0932  0.0993  0.2825
  177SLPC   C3220082   5.987   4.015   5.988  0.3356  0.1997 -0.1126
  177SLPC   H2X20083   5.947   4.119   5.988  0.1073  0.1761 -2.6849
  177SLPC   H2Y20084   5.903   3.953   5.951 -0.5057  1.8149 -1.0397
  177SLPC   C2320085   5.827   3.456   5.953  0.2836  0.1264  0.2811
  177SLPC   H3R20086   5.730   3.495   5.990  1.2460  2.9535  0.0381
  177SLPC   H3S20087   5.809   3.351   5.920 -0.4491  0.2937  0.1373
  177SLPC   C2420088   5.866   3.538   5.827 -0.0453  1.3649 -1.1317
  177SLPC   H4R20089   5.966   3.501   5.794 -0.8028  0.6808 -2.7704
  177SLPC   H4S20090   5.873   3.645   5.854  2.3392  0.7463  1.0391
  177SLPC   C2520091   5.781   3.508   5.708  0.4049  0.0964  0.3513
  177SLPC   H5R20092   5.693   3.575   5.720 -0.4230 -1.3066  2.5177
  177SLPC   H5S20093   5.738   3.406   5.706  0.9742 -0.1666  1.1037
  177SLPC   C2620094   5.858   3.537   5.577 -0.1474 -0.4227  0.4865
  177SLPC   H6R20095   5.950   3.475   5.578 -0.8214 -1.4468  0.9077
  177SLPC   H6S20096   5.887   3.644   5.585 -1.0006 -0.2963  2.4535
  177SLPC   C2720097   5.776   3.493   5.456 -0.0653  0.3230 -0.1799
  177SLPC   H7R20098   5.677   3.543   5.445 -0.3635  0.8490  3.4282
  177SLPC   H7S20099   5.765   3.383   5.468  1.1157  0.2741  0.6674
  177SLPC   C2820100   5.847   3.517   5.326 -0.0434 -0.1953 -0.3742
  177SLPC   H8R20101   5.781   3.477   5.246 -0.7690  0.9959 -0.3919
  177SLPC   H8S20102   5.943   3.462   5.335 -0.6682 -1.0786  1.1765
  177SLPC   C2920103   5.868   3.663   5.306  0.7546  0.2092  0.2900
  177SLPC   H9R20104   5.842   3.727   5.392 -2.0862  0.9664 -0.9920
  177SLPC  C21020105   5.903   3.720   5.188 -0.0771 -0.0103 -0.3604
  177SLPC  H10R20106   5.921   3.828   5.196  2.2898 -0.4135  0.5555
  177SLPC  C21120107   5.926   3.653   5.051 -0.0683  0.2996  0.0579
  177SLPC  H11R20108   5.986   3.560   5.054 -1.3413 -0.6321 -1.4461
  177SLPC  H11S20109   5.991   3.707   4.978  1.1579 -2.6126 -1.1379
  177SLPC  C21220110   5.798   3.603   4.990  0.3238 -0.1736 -1.1175
  177SLPC  H12R20111   5.723   3.568   5.062 -0.4474  2.2521 -0.6173
  177SLPC  C21320112   5.770   3.614   4.857  0.1288  0.7981 -0.1210
  177SLPC  H13R20113   5.667   3.587   4.829 -0.1048  0.8613  0.6437
  177SLPC  C21420114   5.856   3.656   4.742  0.4549 -0.2862  0.2177
  177SLPC  H14R20115   5.919   3.742   4.774 -0.1258  0.7784 -1.3777
  177SLPC  H14S20116   5.784   3.700   4.669  0.2205 -0.9229  0.0614
  177SLPC  C21520117   5.935   3.544   4.667  0.5340  0.2518 -0.4140
  177SLPC  H15R20118   5.867   3.477   4.610  0.1171  0.6910 -0.4372
  177SLPC  H15S20119   5.983   3.483   4.747  3.5774  1.5454 -1.1202
  177SLPC  C21620120   6.029   3.596   4.562 -0.1351 -0.3745  0.8217
  177SLPC  H16R20121   6.103   3.523   4.526  1.1441  0.4653  1.6728
  177SLPC  H16S20122   6.087   3.682   4.602 -0.6592  0.8632 -0.9299
  177SLPC  C21720123   5.941   3.655   4.446 -0.5783 -0.5229  0.5752
  177SLPC  H17R20124   5.907   3.755   4.483  2.9286  0.9043  0.3390
  177SLPC  H17S20125   5.854   3.592   4.419 -0.4412 -0.8303  0.8476
  177SLPC  C21820126   6.027   3.695   4.329 -0.1180 -0.1141 -0.0666
  177SLPC  H18R20127   6.131   3.709   4.363  0.1284 -4.4106  1.5751
  177SLPC  H18S20128   5.992   3.786   4.276  0.4201 -0.2856 -0.7190
  177SLPC  H18T20129   6.036   3.611   4.258 -0.6122 -2.1462  2.1311
  177SLPC   C3320130   6.106   3.988   5.888 -0.3041  0.3159  0.4256
  177SLPC   H3X20131   6.078   4.012   5.784 -0.1642  0.2922  0.3819
  177SLPC   H3Y20132   6.140   3.882   5.894  0.1531  0.1402 -3.1668
  177SLPC   C3420133   6.227   4.078   5.917  0.2040 -0.4031  0.1632
  177SLPC   H4X20134   6.268   4.061   6.019  0.1176  2.5170  0.7743
  177SLPC   H4Y20135   6.194   4.184   5.920 -0.4434 -0.6135  0.7027
  177SLPC   C3520136   6.338   4.059   5.812 -0.1366 -0.0979  0.1272
  177SLPC   H5X20137   6.372   3.955   5.798 -0.0939  0.1414 -1.8402
  177SLPC   H5Y20138   6.430   4.117   5.835 -0.9398  0.6273  1.7856
  177SLPC   C3620139   6.295   4.112   5.671 -0.1675 -0.0912  0.5429
  177SLPC   H6X20140   6.382   4.164   5.627 -1.3328 -0.1114 -1.9241
  177SLPC   H6Y20141   6.208   4.181   5.678 -0.0256  0.1438  0.0256
  177SLPC   C3720142   6.271   3.993   5.574  0.0829 -0.3880 -0.1059
  177SLPC   H7X20143   6.194   3.925   5.617 -1.1190  1.3795  0.6245
  177SLPC   H7Y20144   6.364   3.933   5.565  1.6545  1.8550  0.4187
  177SLPC   C3820145   6.217   4.040   5.436  0.5459 -0.3578 -1.0520
  177SLPC   H8X20146   6.253   3.971   5.357  0.2963 -1.1959 -0.4534
  177SLPC   H8Y20147   6.271   4.134   5.412  2.8636 -1.5753 -0.9339
  177SLPC   C3920148   6.059   4.062   5.422 -0.2848  0.0277 -0.1644
  177SLPC   H9X20149   6.025   4.130   5.504  0.0233  0.1606 -0.1422
  177SLPC   H9Y20150   6.014   3.962   5.439  0.8314 -0.2417  1.4886
  177SLPC  C31020151   6.026   4.112   5.283  0.5153 -0.3554  0.4474
  177SLPC  H10X20152   6.058   4.038   5.206 -0.8619 -0.6203  0.0930
  177SLPC  H10Y20153   6.072   4.210   5.256  0.8449  0.0730  2.4295
  177SLPC  C31120154   5.880   4.151   5.268  0.2706 -0.4521  0.0349
  177SLPC  H11X20155   5.843   4.220   5.347 -1.4709 -1.5652  0.2355
  177SLPC  H11Y20156   5.813   4.065   5.286  0.0468 -0.0908  0.9839
  177SLPC  C31220157   5.838   4.220   5.139 -0.1379 -0.3873  0.1896
  177SLPC  H12X20158   5.887   4.317   5.115 -1.2483 -0.2570 -1.7311
  177SLPC  H12Y20159   5.736   4.259   5.161  0.3237  1.7571 -1.1630
  177SLPC  C31320160   5.845   4.130   5.015  0.6282 -0.5611 -0.2887
  177SLPC  H13X20161   5.793   4.035   5.041 -2.3415  1.3060  1.2414
  177SLPC  H13Y20162   5.955   4.129   5.000  0.8369  1.7834  0.6597
  177SLPC  C31420163   5.776   4.200   4.893 -0.0417 -0.1908  0.1912
  177SLPC  H14X20164   5.812   4.304   4.884  2.0136 -0.7272  1.6086
  177SLPC  H14Y20165   5.669   4.211   4.922 -0.2098 -0.6305 -0.2450
  177SLPC  C31520166   5.790   4.133   4.754  0.2703  0.2706  0.4376
  177SLPC  H15X20167   5.750   4.197   4.673  0.5440  0.8499  0.7540
  177SLPC  H15Y20168   5.737   4.036   4.767 -0.3752  0.4366 -0.7838
  177SLPC  C31620169   5.934   4.109   4.722  0.1193 -0.3677  0.4543
  177SLPC  H16X20170   5.973   4.018   4.774 -2.0934 -1.4452  0.3566
  177SLPC  H16Y20171   5.998   4.196   4.750 -0.9359 -0.0713  2.1244
  177SLPC  C31720172   5.951   4.102   4.567  0.0319  0.4350  0.0307
  177SLPC  H17X20173   5.945   4.194   4.505 -0.6207  0.7416  0.5474
  177SLPC  H17Y20174   5.865   4.046   4.525 -0.7513 -0.9678  3.2344
  177SLPC  C31820175   6.091   4.040   4.524  0.0810 -0.5456  0.2772
  177SLPC  H18X20176   6.085   3.981   4.430  0.2507  1.8965 -1.3552
  177SLPC  H18Y20177   6.132   3.968   4.598 -0.3891 -1.0362  0.0666
  177SLPC  H18Z20178   6.162   4.122   4.503  0.2279 -1.0133 -1.1842
  178SLPC     N20179   3.530   0.362   6.973 -0.2110 -0.1519 -0.9565
  178SLPC   C1320180   3.482   0.493   7.030 -0.1516  0.9097 -0.2722
  178SLPC  H13A20181   3.424   0.545   6.956  2.7679  0.1360 -3.4002
  178SLPC  H13B20182   3.431   0.495   7.125 -0.1612  0.3728 -0.2607
  178SLPC  H13C20183   3.565   0.562   7.032 -0.4208  1.2209  0.3500
  178SLPC   C1420184   3.616   0.304   7.086  0.4391  0.5724  0.0282
  178SLPC  H14A20185   3.704   0.361   7.108 -0.1424  1.3785  0.3043
  178SLPC  H14B20186   3.564   0.302   7.181  2.6500  2.0781  1.3590
  178SLPC  H14C20187   3.659   0.210   7.055 -1.9340  0.1207 -2.3047
  178SLPC   C1520188   3.623   0.384   6.860 -0.9675  0.2051  0.9625
  178SLPC  H15A20189   3.584   0.432   6.771  0.6853 -1.7753 -0.9255
  178SLPC  H15B20190   3.714   0.439   6.882  0.4964 -3.2104  4.5395
  178SLPC  H15C20191   3.660   0.289   6.823 -3.6463  0.1329 -1.9803
  178SLPC   C1220192   3.417   0.255   6.948 -0.0435 -0.2866 -0.1824
  178SLPC  H12A20193   3.372   0.240   7.045  1.8212  2.2719  1.2156
  178SLPC  H12B20194   3.478   0.172   6.916  1.0469  0.6872 -0.6767
  178SLPC   C1120195   3.311   0.292   6.842  0.2404 -0.3621  0.3282
  178SLPC  H11A20196   3.252   0.201   6.817  0.1832 -0.3152  0.2936
  178SLPC  H11B20197   3.357   0.313   6.743  1.2444  2.1769  1.2591
  178SLPC     P20198   3.126   0.475   6.803  0.2428 -0.1160 -0.1248
  178SLPC   O1320199   3.017   0.383   6.774  0.1418 -0.1601  0.6036
  178SLPC   O1420200   3.092   0.606   6.868 -0.3922 -0.0250  0.2178
  178SLPC   O1220201   3.233   0.402   6.892 -0.6202  0.1541 -0.1174
  178SLPC   O1120202   3.201   0.504   6.671  0.1321  0.0031 -0.0237
  178SLPC    C120203   3.129   0.545   6.553  0.4373  0.0985  0.5006
  178SLPC    HA20204   3.074   0.457   6.512  1.0828  0.5582 -1.4196
  178SLPC    HB20205   3.059   0.631   6.555 -0.0967 -0.2806 -0.7148
  178SLPC    C220206   3.234   0.588   6.441 -0.1767 -0.6854 -0.5192
  178SLPC    HS20207   3.297   0.666   6.488 -0.6797 -0.0842 -0.8244
  178SLPC   O2120208   3.152   0.645   6.336 -0.1323  0.0650 -0.2398
  178SLPC   C2120209   3.221   0.737   6.268  1.0339 -0.0964  0.0620
  178SLPC   O2220210   3.335   0.768   6.292  0.2981  0.2049  0.1295
  178SLPC   C2220211   3.140   0.793   6.152  0.2574 -0.0174  0.7015
  178SLPC   H2R20212   3.076   0.714   6.108  1.1082 -0.1580 -0.3095
  178SLPC   H2S20213   3.064   0.858   6.202  1.0132 -0.5712  2.6697
  178SLPC    C320214   3.332   0.470   6.390  0.9775 -0.3766  0.8849
  178SLPC    HX20215   3.388   0.431   6.478  0.5295  1.3293  1.9820
  178SLPC    HY20216   3.417   0.519   6.337  0.6646  0.0032  0.7303
  178SLPC   O3120217   3.261   0.360   6.328 -0.2514  0.2035 -0.6990
  178SLPC   C3120218   3.243   0.379   6.197 -0.0720 -0.0134 -0.1739
  178SLPC   O3220219   3.264   0.474   6.130 -0.0146  0.2385 -0.2487
  178SLPC   C3220220   3.169   0.255   6.147  0.5618  0.5642  0.1250
  178SLPC   H2X20221   3.099   0.229   6.229  1.2623 -0.6125  0.3880
  178SLPC   H2Y20222   3.240   0.169   6.136  0.2722  0.2248  0.8194
  178SLPC   C2320223   3.218   0.868   6.050  0.9716 -1.2303 -0.0713
  178SLPC   H3R20224   3.300   0.921   6.103 -2.2588  1.3236  2.8546
  178SLPC   H3S20225   3.158   0.952   6.008  1.8846  0.0445  1.0857
  178SLPC   C2420226   3.246   0.777   5.929  0.3040 -0.3353  0.1904
  178SLPC   H4R20227   3.154   0.721   5.903 -0.3717  0.2868  1.1691
  178SLPC   H4S20228   3.329   0.711   5.960 -0.6105 -1.4991  0.2166
  178SLPC   C2520229   3.283   0.844   5.793  0.0281  0.0434 -0.0596
  178SLPC   H5R20230   3.370   0.907   5.820 -1.7171  3.0194 -0.9216
  178SLPC   H5S20231   3.208   0.924   5.774 -0.5045 -0.2225  0.8517
  178SLPC   C2620232   3.305   0.748   5.682 -0.8239 -0.0766  0.2049
  178SLPC   H6R20233   3.218   0.682   5.664 -0.1180 -0.7319 -0.8553
  178SLPC   H6S20234   3.396   0.690   5.712  0.6836  1.2641 -1.5520
  178SLPC   C2720235   3.354   0.827   5.557  0.0542 -0.2752 -0.1452
  178SLPC   H7R20236   3.465   0.826   5.553  0.0710  0.9001 -0.3908
  178SLPC   H7S20237   3.320   0.933   5.558  0.0561 -0.2344 -1.5938
  178SLPC   C2820238   3.308   0.760   5.426  0.2922 -0.1703  0.4252
  178SLPC   H8R20239   3.199   0.743   5.428  0.6080 -2.4298  1.7987
  178SLPC   H8S20240   3.343   0.655   5.435  0.8168 -0.0041  0.3623
  178SLPC   C2920241   3.355   0.838   5.304 -0.1976  0.3576  0.5537
  178SLPC   H9R20242   3.297   0.923   5.265 -1.7334 -1.2138 -0.7530
  178SLPC  C21020243   3.447   0.804   5.213 -0.3640  0.4832 -0.5758
  178SLPC  H10R20244   3.469   0.882   5.139  0.7301 -0.4023 -1.2060
  178SLPC  C21120245   3.548   0.695   5.231  0.0523 -0.0646 -0.1565
  178SLPC  H11R20246   3.527   0.604   5.171 -2.4599  0.1905  0.2313
  178SLPC  H11S20247   3.546   0.658   5.336 -2.9309  1.0307  0.2691
  178SLPC  C21220248   3.679   0.756   5.210 -0.6253  0.4892 -0.0297
  178SLPC  H12R20249   3.736   0.807   5.289  1.4333  0.5093 -1.4370
  178SLPC  C21320250   3.740   0.764   5.092 -0.2499 -0.2971 -0.3644
  178SLPC  H13R20251   3.833   0.822   5.085  0.1851 -1.0120 -0.6485
  178SLPC  C21420252   3.683   0.714   4.961  0.2206 -0.6786 -0.1564
  178SLPC  H14R20253   3.616   0.788   4.912 -2.5304 -2.1429  1.1473
  178SLPC  H14S20254   3.631   0.617   4.977  0.8911 -0.8280  1.2162
  178SLPC  C21520255   3.785   0.669   4.851  0.5468 -0.1761 -0.0611
  178SLPC  H15R20256   3.839   0.577   4.880  1.3794  0.2806 -0.1400
  178SLPC  H15S20257   3.856   0.754   4.857  0.0095  0.4294 -1.7312
  178SLPC  C21620258   3.725   0.664   4.715  0.0989 -0.5645 -0.1569
  178SLPC  H16R20259   3.669   0.759   4.699  1.2410  0.1281 -0.1508
  178SLPC  H16S20260   3.649   0.584   4.709  1.0312 -1.4988  0.1431
  178SLPC  C21720261   3.830   0.645   4.604  0.0438 -0.2253  0.1642
  178SLPC  H17R20262   3.893   0.562   4.643  1.0378  0.1418 -0.6137
  178SLPC  H17S20263   3.900   0.732   4.595  2.0151 -1.7680 -0.0862
  178SLPC  C21820264   3.770   0.605   4.471 -0.0438 -0.1290 -0.1214
  178SLPC  H18R20265   3.847   0.558   4.406  0.0831  0.6984 -0.5796
  178SLPC  H18S20266   3.733   0.694   4.416  0.4358  0.3937  0.3851
  178SLPC  H18T20267   3.688   0.532   4.487  0.9400 -1.2608 -0.0739
  178SLPC   C3320268   3.075   0.280   6.023 -0.3383  0.5721 -0.1206
  178SLPC   H3X20269   3.017   0.373   6.045  1.5750  1.6868  0.4633
  178SLPC   H3Y20270   2.998   0.201   6.012 -1.0149  0.7832  2.4023
  178SLPC   C3420271   3.154   0.281   5.888 -0.2236  0.0853 -0.1556
  178SLPC   H4X20272   3.203   0.182   5.874 -2.7404 -1.0660 -1.4132
  178SLPC   H4Y20273   3.233   0.358   5.894 -1.3250  1.3737 -1.4621
  178SLPC   C3520274   3.058   0.306   5.767  0.1847  0.6157 -0.0701
  178SLPC   H5X20275   3.026   0.409   5.796  0.4295  0.3180  1.3405
  178SLPC   H5Y20276   2.978   0.230   5.754  0.2045  0.1824  1.9798
  178SLPC   C3620277   3.130   0.330   5.635 -0.0982 -0.2888  0.1476
  178SLPC   H6X20278   3.166   0.237   5.585  0.7357  0.6052 -0.9874
  178SLPC   H6Y20279   3.225   0.383   5.660  1.2398 -1.8700 -1.3240
  178SLPC   C3720280   3.052   0.402   5.523 -0.2349 -0.2962  0.1399
  178SLPC   H7X20281   3.033   0.507   5.552  0.4917 -0.4098  1.0569
  178SLPC   H7Y20282   2.952   0.352   5.517 -0.4342  0.2529 -1.8448
  178SLPC   C3820283   3.116   0.380   5.382  0.7747 -0.6618 -0.4752
  178SLPC   H8X20284   3.113   0.270   5.369 -0.6710 -0.6898 -0.1283
  178SLPC   H8Y20285   3.214   0.431   5.368  0.6713 -0.4289 -0.3531
  178SLPC   C3920286   3.020   0.434   5.280  0.7093 -0.7977  0.0525
  178SLPC   H9X20287   3.032   0.543   5.261 -1.4415 -0.7208 -1.2437
  178SLPC   H9Y20288   2.913   0.404   5.288  0.4164 -0.5456 -2.2094
  178SLPC  C31020289   3.056   0.365   5.147 -0.4605 -1.2702  0.0043
  178SLPC  H10X20290   3.015   0.263   5.160 -2.5797 -0.5896 -0.8979
  178SLPC  H10Y20291   3.166   0.367   5.132 -0.5759 -1.2518 -0.9141
  178SLPC  C31120292   2.983   0.436   5.038 -0.2955  0.3044 -0.2643
  178SLPC  H11X20293   3.012   0.542   5.021  1.3980 -0.1428 -0.3849
  178SLPC  H11Y20294   2.877   0.427   5.070 -0.3707 -0.7214 -0.7675
  178SLPC  C31220295   3.016   0.360   4.909  0.6809 -0.3759  0.1425
  178SLPC  H12X20296   3.001   0.251   4.923  0.5263 -0.3119  0.4632
  178SLPC  H12Y20297   3.119   0.382   4.871  1.0489 -0.9884  0.7675
  178SLPC  C31320298   2.912   0.397   4.795  0.3534 -0.5773 -0.0384
  178SLPC  H13X20299   2.947   0.496   4.759  2.5310 -1.1829  0.3038
  178SLPC  H13Y20300   2.815   0.406   4.849  0.0547 -0.5654 -0.5640
  178SLPC  C31420301   2.895   0.294   4.684  0.0471  0.5443  0.2193
  178SLPC  H14X20302   2.819   0.323   4.609  2.1691  0.7412 -1.9878
  178SLPC  H14Y20303   2.842   0.210   4.734 -0.2674  0.9263  0.5355
  178SLPC  C31520304   3.018   0.237   4.615  0.5698 -0.0915 -0.2642
  178SLPC  H15X20305   3.073   0.172   4.686 -0.2613  0.5812  1.0340
  178SLPC  H15Y20306   3.087   0.320   4.588  3.2072 -1.9122  0.5175
  178SLPC  C31620307   2.990   0.145   4.497  0.0661 -0.2418  0.6534
  178SLPC  H16X20308   2.885   0.157   4.463  0.5257 -1.8337 -1.5358
  178SLPC  H16Y20309   2.996   0.035   4.515 -1.6165 -0.5499 -0.4710
  178SLPC  C31720310   3.076   0.170   4.366  0.7030 -0.3107 -0.1155
  178SLPC  H17X20311   3.183   0.181   4.393  1.0875  2.0105 -2.1642
  178SLPC  H17Y20312   3.063   0.274   4.329 -1.1583  0.2624  1.9351
  178SLPC  C31820313   3.048   0.092   4.241  1.0196  0.1339  0.4909
  178SLPC  H18X20314   2.951   0.126   4.198  0.9919 -0.2596  0.2337
  178SLPC  H18Y20315   3.050  -0.018   4.262 -0.0950  0.3724  2.0881
  178SLPC  H18Z20316   3.120   0.111   4.159  0.6829 -2.0493 -0.4024
  179SLPC     N20317   2.029   2.635   1.808  0.3496  0.6419 -0.1711
  179SLPC   C1320318   2.122   2.560   1.721  0.1349  0.3619 -0.3761
  179SLPC  H13A20319   2.188   2.498   1.779 -1.2597 -1.8998 -1.0849
  179SLPC  H13B20320   2.058   2.498   1.660  1.0026 -2.2586  1.2310
  179SLPC  H13C20321   2.172   2.635   1.661 -1.5259  1.2141 -0.7534
  179SLPC   C1420322   1.915   2.690   1.726 -0.2338  0.4798 -0.1355
  179SLPC  H14A20323   1.859   2.763   1.784 -0.6405  2.2034 -2.5183
  179SLPC  H14B20324   1.947   2.721   1.628  0.8782  1.4271  0.4961
  179SLPC  H14C20325   1.853   2.607   1.696 -0.7011  0.7848 -0.0450
  179SLPC   C1520326   2.104   2.758   1.854 -0.2106 -0.3262 -0.2314
  179SLPC  H15A20327   2.177   2.727   1.927  0.8615  3.6734  0.6256
  179SLPC  H15B20328   2.152   2.803   1.768 -0.0936 -2.4648 -1.3513
  179SLPC  H15C20329   2.051   2.835   1.909  1.1269  0.5647 -0.1302
  179SLPC   C1220330   1.974   2.554   1.916 -0.4293 -0.0897 -0.0076
  179SLPC  H12A20331   1.923   2.467   1.879  0.4706 -0.5515 -0.1957
  179SLPC  H12B20332   1.890   2.606   1.960 -0.0180 -0.3808  1.1781
  179SLPC   C1120333   2.061   2.521   2.038 -0.3656 -0.1781 -0.1555
  179SLPC  H11A20334   1.995   2.473   2.114 -2.3766  1.2262 -0.9178
  179SLPC  H11B20335   2.106   2.618   2.066  0.4702 -0.3286 -0.9518
  179SLPC     P20336   2.306   2.449   2.050  0.0750 -0.1854 -0.4465
  179SLPC   O1320337   2.403   2.369   1.969 -0.6224  0.1420 -1.0923
  179SLPC   O1420338   2.338   2.587   2.069  0.1188  0.1971 -0.5234
  179SLPC   O1220339   2.165   2.434   1.989  0.1026 -0.2098  0.1401
  179SLPC   O1120340   2.295   2.372   2.184 -0.0145 -0.1139 -0.2820
  179SLPC    C120341   2.236   2.431   2.300  0.2902  0.0659  0.1903
  179SLPC    HA20342   2.238   2.542   2.304 -0.1689  0.1981 -2.0014
  179SLPC    HB20343   2.141   2.378   2.321 -0.0607  0.8502  0.6401
  179SLPC    C220344   2.326   2.384   2.419  0.0762 -0.0292 -0.0400
  179SLPC    HS20345   2.327   2.274   2.431  0.6944  0.2374  3.3749
  179SLPC   O2120346   2.264   2.438   2.534 -0.2197 -0.0952 -0.0951
  179SLPC   C2120347   2.210   2.352   2.618  0.6854  0.4022  0.3345
  179SLPC   O2220348   2.191   2.234   2.593 -0.4514  0.2150  0.4094
  179SLPC   C2220349   2.177   2.429   2.742  0.5483  0.5787 -0.3828
  179SLPC   H2R20350   2.265   2.416   2.808 -0.0281 -0.7827  0.1531
  179SLPC   H2S20351   2.165   2.536   2.714 -2.8382  0.4312  0.0443
  179SLPC    C320352   2.470   2.440   2.400 -0.1623  0.1029  0.8578
  179SLPC    HX20353   2.473   2.549   2.378  2.5588 -0.0973 -0.1084
  179SLPC    HY20354   2.520   2.392   2.314 -2.0537 -1.2726  0.4748
  179SLPC   O3120355   2.548   2.424   2.521  0.1755 -0.0593 -0.3238
  179SLPC   C3120356   2.617   2.315   2.537  0.0568  0.0003 -0.3523
  179SLPC   O3220357   2.608   2.208   2.474  0.0102 -0.3275  0.4699
  179SLPC   C3220358   2.717   2.346   2.646  0.1027 -0.1129 -0.4611
  179SLPC   H2X20359   2.775   2.432   2.605 -2.0091  2.0453  0.8265
  179SLPC   H2Y20360   2.770   2.250   2.666 -1.6443 -0.5632  2.7365
  179SLPC   C2320361   2.047   2.379   2.800  0.1511 -0.1113 -0.6261
  179SLPC   H3R20362   2.043   2.268   2.809  3.1793 -0.3304 -1.1493
  179SLPC   H3S20363   1.968   2.392   2.722  1.9819  1.4106 -2.3222
  179SLPC   C2420364   2.004   2.458   2.925 -0.3109 -0.2095  0.0975
  179SLPC   H4R20365   1.895   2.442   2.938 -0.5487  1.0554 -0.1989
  179SLPC   H4S20366   2.020   2.566   2.906  2.4136 -0.4264  0.6974
  179SLPC   C2520367   2.082   2.420   3.051  0.9729  0.9326 -0.1405
  179SLPC   H5R20368   2.189   2.432   3.023  0.7096 -0.4510 -1.9535
  179SLPC   H5S20369   2.069   2.314   3.083 -1.0608  1.4939  1.0364
  179SLPC   C2620370   2.055   2.521   3.164  0.6199 -0.0818  0.5841
  179SLPC   H6R20371   1.946   2.530   3.184  0.4912  1.5924 -0.6615
  179SLPC   H6S20372   2.075   2.622   3.123  0.0658  0.4135  1.5330
  179SLPC   C2720373   2.149   2.496   3.283  0.3908  0.8169  0.1149
  179SLPC   H7R20374   2.247   2.530   3.243  0.5285  2.9417  2.0266
  179SLPC   H7S20375   2.159   2.387   3.303 -3.9260  0.1313 -0.3823
  179SLPC   C2820376   2.135   2.568   3.414 -0.2193 -0.9169 -0.7190
  179SLPC   H8R20377   2.199   2.533   3.497 -0.5397  0.0047 -0.0698
  179SLPC   H8S20378   2.035   2.540   3.452 -0.0813 -0.4882 -0.0239
  179SLPC   C2920379   2.140   2.716   3.397 -0.1900 -0.5828 -0.1535
  179SLPC   H9R20380   2.178   2.755   3.301 -0.0743 -1.5904 -0.5231
  179SLPC  C21020381   2.119   2.803   3.502  0.1707  0.4764 -0.0108
  179SLPC  H10R20382   2.133   2.911   3.486 -1.2179  0.5811 -0.7098
  179SLPC  C21120383   2.092   2.759   3.645 -0.2788 -0.3937  0.0636
  179SLPC  H11R20384   1.993   2.709   3.655  1.0169 -2.6920  2.7070
  179SLPC  H11S20385   2.086   2.855   3.700  1.2472 -0.3737  0.2412
  179SLPC  C21220386   2.204   2.689   3.712 -0.4899 -0.0988 -0.0309
  179SLPC  H12R20387   2.289   2.662   3.647  0.3560  1.5765  0.3030
  179SLPC  C21320388   2.193   2.652   3.841 -0.2166 -0.0786 -0.1173
  179SLPC  H13R20389   2.282   2.619   3.895  0.7079  0.4213 -1.2889
  179SLPC  C21420390   2.078   2.669   3.941  0.1975 -0.6258 -0.0382
  179SLPC  H14R20391   2.045   2.570   3.979  0.8930 -1.1594 -0.7923
  179SLPC  H14S20392   1.989   2.700   3.882 -0.0786 -2.4184 -0.6234
  179SLPC  C21520393   2.102   2.770   4.060 -0.3999 -0.3852 -0.2097
  179SLPC  H15R20394   2.190   2.741   4.122 -0.7187 -0.1285  0.3619
  179SLPC  H15S20395   2.018   2.748   4.129 -1.9090 -1.6548 -2.3412
  179SLPC  C21620396   2.110   2.909   4.004 -0.0396  0.8462  0.4103
  179SLPC  H16R20397   2.015   2.921   3.947  0.3692 -1.7177 -0.9967
  179SLPC  H16S20398   2.191   2.908   3.928  1.3908 -0.7510  1.8424
  179SLPC  C21720399   2.145   3.019   4.108 -0.8049 -0.2640 -0.5909
  179SLPC  H17R20400   2.231   2.993   4.172 -0.3132  1.8750 -0.3211
  179SLPC  H17S20401   2.063   3.046   4.178 -2.3701  0.5402 -2.6074
  179SLPC  C21820402   2.182   3.150   4.036  0.2511  0.4028  0.6233
  179SLPC  H18R20403   2.248   3.132   3.949  1.0302  0.1400  1.2546
  179SLPC  H18S20404   2.223   3.218   4.114 -0.5392 -2.3597  3.6710
  179SLPC  H18T20405   2.092   3.203   3.998  1.5209  0.6990 -2.2451
  179SLPC   C3320406   2.657   2.381   2.783 -0.7061 -0.2926 -0.8797
  179SLPC   H3X20407   2.568   2.315   2.795 -1.1126  0.4585  0.4232
  179SLPC   H3Y20408   2.625   2.487   2.793 -1.5283 -0.4835 -1.4113
  179SLPC   C3420409   2.754   2.350   2.899  0.2051 -0.2507  0.2503
  179SLPC   H4X20410   2.845   2.410   2.880  0.0589  0.7330  2.3008
  179SLPC   H4Y20411   2.787   2.244   2.902  0.0922 -0.2995 -0.2414
  179SLPC   C3520412   2.707   2.409   3.039 -0.3707  0.2004  0.0616
  179SLPC   H5X20413   2.709   2.520   3.042 -0.8551  0.1990  0.8961
  179SLPC   H5Y20414   2.600   2.387   3.059  0.1178 -0.3954  2.3074
  179SLPC   C3620415   2.789   2.350   3.163  0.7070  0.0240 -0.6729
  179SLPC   H6X20416   2.890   2.377   3.126  0.2857  0.6926 -1.3702
  179SLPC   H6Y20417   2.781   2.239   3.165  1.0477  0.0108  0.2607
  179SLPC   C3720418   2.773   2.418   3.301 -0.5011  0.0233  0.0730
  179SLPC   H7X20419   2.783   2.527   3.288  6.2646 -0.0329  1.4628
  179SLPC   H7Y20420   2.856   2.378   3.362 -3.3879 -1.7264  3.2431
  179SLPC   C3820421   2.646   2.371   3.371 -0.4487  0.3969 -0.0235
  179SLPC   H8X20422   2.651   2.261   3.356  0.6004  0.4909 -0.4807
  179SLPC   H8Y20423   2.560   2.419   3.319  0.4123 -1.0574 -3.0713
  179SLPC   C3920424   2.649   2.412   3.520 -0.0146 -0.4805  0.3974
  179SLPC   H9X20425   2.676   2.520   3.518  0.2467 -0.5488 -1.3098
  179SLPC   H9Y20426   2.737   2.356   3.558 -0.6441 -0.2873  2.2305
  179SLPC  C31020427   2.515   2.390   3.599  0.1904 -0.7445  0.0391
  179SLPC  H10X20428   2.491   2.282   3.599  2.5752 -1.3455 -0.6253
  179SLPC  H10Y20429   2.433   2.448   3.552 -0.2188 -0.7994  0.6811
  179SLPC  C31120430   2.516   2.426   3.753 -0.9544  0.2085 -0.2728
  179SLPC  H11X20431   2.568   2.342   3.805 -1.8941  0.2785  0.8171
  179SLPC  H11Y20432   2.411   2.425   3.788 -0.8684 -0.6970 -0.0061
  179SLPC  C31220433   2.589   2.555   3.790  0.1072 -0.7572  0.1274
  179SLPC  H12X20434   2.541   2.640   3.735  1.4610  0.0059  0.0965
  179SLPC  H12Y20435   2.692   2.545   3.750 -0.8176 -0.2396 -2.6375
  179SLPC  C31320436   2.584   2.583   3.940  0.6265 -0.2003 -0.1211
  179SLPC  H13X20437   2.630   2.498   3.994 -1.5423 -0.8718  0.8076
  179SLPC  H13Y20438   2.482   2.590   3.983 -0.3224  0.7785 -2.3575
  179SLPC  C31420439   2.637   2.725   3.975 -0.3457  0.3438  0.2195
  179SLPC  H14X20440   2.575   2.803   3.924 -0.4910  0.9513  1.3040
  179SLPC  H14Y20441   2.738   2.725   3.929 -0.5563  0.1777 -0.2466
  179SLPC  C31520442   2.652   2.749   4.128  0.6219 -0.0715 -0.0278
  179SLPC  H15X20443   2.723   2.831   4.153 -1.1128  1.2551  0.7982
  179SLPC  H15Y20444   2.695   2.661   4.181 -1.1304 -0.9026  0.0600
  179SLPC  C31620445   2.516   2.783   4.201 -0.6517  0.0246 -0.2360
  179SLPC  H16X20446   2.457   2.690   4.210  0.4215 -0.5746  0.8345
  179SLPC  H16Y20447   2.456   2.858   4.144  0.4929  2.4201  1.5620
  179SLPC  C31720448   2.547   2.845   4.336  0.0288 -0.5621  0.1471
  179SLPC  H17X20449   2.602   2.940   4.317 -0.5230 -0.0207  1.1455
  179SLPC  H17Y20450   2.611   2.783   4.402  0.1073  1.2391  1.8563
  179SLPC  C31820451   2.418   2.896   4.404 -0.3336  0.6205  0.4515
  179SLPC  H18X20452   2.354   2.806   4.423 -0.9272  0.6950 -1.0421
  179SLPC  H18Y20453   2.366   2.966   4.335  2.1055  1.2405 -0.8648
  179SLPC  H18Z20454   2.444   2.957   4.493 -1.2349  2.1657 -0.3025
  180SLPC     N20455   0.677   1.316   2.072  0.7670  0.4739  0.5111
  180SLPC   C1320456   0.771   1.199   2.050  0.1408  0.2935  0.3995
  180SLPC  H13A20457   0.873   1.235   2.054 -0.3093  1.8363 -0.7482
  180SLPC  H13B20458   0.758   1.115   2.115  0.3128  1.1802  1.6104
  180SLPC  H13C20459   0.770   1.166   1.947 -2.9197  0.7100  0.2096
  180SLPC   C1420460   0.671   1.351   2.217  0.3923 -0.3501 -0.2191
  180SLPC  H14A20461   0.737   1.435   2.234 -0.6346  1.2049 -3.1294
  180SLPC  H14B20462   0.570   1.379   2.242 -0.2497 -3.9875  1.8696
  180SLPC  H14C20463   0.704   1.269   2.279  1.1859  1.5233  1.9595
  180SLPC   C1520464   0.536   1.275   2.025 -0.5493  0.1496 -0.0745
  180SLPC  H15A20465   0.492   1.207   2.097  0.9066 -1.7213 -0.8690
  180SLPC  H15B20466   0.473   1.362   2.031 -0.0479  0.7520 -2.6365
  180SLPC  H15C20467   0.519   1.248   1.922 -1.4118  2.7119 -0.6610
  180SLPC   C1220468   0.728   1.439   1.996  0.0351  0.1308 -0.1546
  180SLPC  H12A20469   0.736   1.410   1.892  0.0853  0.1508 -0.1567
  180SLPC  H12B20470   0.827   1.462   2.033 -0.3801 -1.4725  2.1762
  180SLPC   C1120471   0.647   1.566   1.998 -0.6690  0.2672  0.3142
  180SLPC  H11A20472   0.542   1.537   1.976  0.3491 -3.7309  0.0736
  180SLPC  H11B20473   0.691   1.624   1.914 -1.6426 -2.2429 -2.0627
  180SLPC     P20474   0.642   1.796   2.121 -0.1243  0.0505 -0.6063
  180SLPC   O1320475   0.592   1.846   1.994 -0.4733  0.1682 -0.4084
  180SLPC   O1420476   0.558   1.837   2.238  0.4992 -0.1695 -0.1623
  180SLPC   O1220477   0.656   1.642   2.122  0.2048 -0.0697  0.8920
  180SLPC   O1120478   0.787   1.855   2.131 -0.0876  0.2500 -0.4562
  180SLPC    C120479   0.899   1.778   2.168  0.9760 -0.2533 -0.3915
  180SLPC    HA20480   0.885   1.668   2.161  0.3649 -0.2255  0.2435
  180SLPC    HB20481   0.990   1.814   2.116  1.5538  1.4862  1.6925
  180SLPC    C220482   0.935   1.801   2.328  0.3425 -0.3101 -0.7721
  180SLPC    HS20483   0.997   1.717   2.366  0.0766  0.1429  0.7129
  180SLPC   O2120484   0.815   1.806   2.395 -0.1468 -0.0371 -0.5627
  180SLPC   C2120485   0.776   1.684   2.431  0.6016  0.3267 -0.3344
  180SLPC   O2220486   0.829   1.580   2.400 -0.0997  0.1925  0.5687
  180SLPC   C2220487   0.655   1.689   2.526  0.0037 -0.1976  1.1356
  180SLPC   H2R20488   0.565   1.716   2.467  0.5662 -1.7485 -0.5123
  180SLPC   H2S20489   0.640   1.585   2.561  1.4778 -0.2471  1.7132
  180SLPC    C320490   1.008   1.940   2.346 -0.6645  0.0855 -0.1596
  180SLPC    HX20491   0.933   2.013   2.310  0.4181  1.0205 -0.5612
  180SLPC    HY20492   1.106   1.940   2.295 -0.4831 -1.4816  0.1397
  180SLPC   O3120493   1.039   1.955   2.490 -0.0183  0.0732  0.6342
  180SLPC   C3120494   0.975   2.058   2.546 -0.4127 -0.3597 -0.1608
  180SLPC   O3220495   0.903   2.139   2.490 -0.2412  0.3083 -0.1899
  180SLPC   C3220496   0.990   2.039   2.694 -0.0358 -0.1659 -0.5845
  180SLPC   H2X20497   1.082   1.977   2.699  0.1583  0.0123 -1.6442
  180SLPC   H2Y20498   0.900   1.995   2.742  1.5280 -1.4488  1.3097
  180SLPC   C2320499   0.675   1.768   2.657  0.5610 -0.3953 -0.2796
  180SLPC   H3R20500   0.574   1.789   2.700  2.0878 -0.1026  3.5617
  180SLPC   H3S20501   0.717   1.866   2.625 -1.1844  0.6859  0.5797
  180SLPC   C2420502   0.761   1.700   2.760 -0.1748 -0.3790  0.5475
  180SLPC   H4R20503   0.864   1.704   2.719 -0.1990 -1.4471  0.3390
  180SLPC   H4S20504   0.736   1.593   2.778  0.9646 -1.2553 -2.4802
  180SLPC   C2520505   0.758   1.779   2.893  0.5058 -0.3822 -0.4489
  180SLPC   H5R20506   0.663   1.741   2.936  1.0296 -1.5661 -0.2961
  180SLPC   H5S20507   0.736   1.884   2.863  1.2165 -0.8334 -2.7470
  180SLPC   C2620508   0.874   1.751   2.985 -0.2073 -0.3231 -0.3319
  180SLPC   H6R20509   0.963   1.779   2.925  0.0603  2.5769  1.2609
  180SLPC   H6S20510   0.874   1.640   2.993 -1.3514 -0.2422  1.4593
  180SLPC   C2720511   0.874   1.818   3.119  0.4959  0.0303 -1.1302
  180SLPC   H7R20512   0.837   1.921   3.100 -1.7036 -0.4092  0.3297
  180SLPC   H7S20513   0.971   1.826   3.171 -1.5778  1.3287  3.0137
  180SLPC   C2820514   0.768   1.750   3.210 -0.0409  0.1747  0.6534
  180SLPC   H8R20515   0.679   1.726   3.148  2.5930 -0.0969 -3.3841
  180SLPC   H8S20516   0.724   1.819   3.286 -0.6466  1.5563 -0.8900
  180SLPC   C2920517   0.813   1.629   3.286 -0.1375  0.3028 -0.0058
  180SLPC   H9R20518   0.781   1.532   3.245 -1.2347  1.7531 -2.8924
  180SLPC  C21020519   0.886   1.633   3.399  0.9478  0.1124 -0.4368
  180SLPC  H10R20520   0.932   1.543   3.443 -1.4433 -0.5791  0.7793
  180SLPC  C21120521   0.929   1.757   3.473  0.2387  0.3148 -0.2673
  180SLPC  H11R20522   0.866   1.777   3.563  1.3997  0.0365  0.6395
  180SLPC  H11S20523   0.916   1.855   3.423  0.7000  0.9141  0.7459
  180SLPC  C21220524   1.072   1.746   3.522  0.7535 -0.2974  0.2643
  180SLPC  H12R20525   1.149   1.752   3.444  1.1005 -1.7561  0.4648
  180SLPC  C21320526   1.120   1.746   3.651 -0.1187 -0.2393  0.4655
  180SLPC  H13R20527   1.228   1.760   3.658 -0.2576  0.7739  0.7414
  180SLPC  C21420528   1.047   1.767   3.783  0.2633 -0.1017 -0.5984
  180SLPC  H14R20529   1.067   1.684   3.854 -0.5041  0.1342 -0.0932
  180SLPC  H14S20530   0.938   1.763   3.762  0.3326  2.3144 -1.7453
  180SLPC  C21520531   1.070   1.898   3.870  0.3850 -0.1557 -0.3272
  180SLPC  H15R20532   1.175   1.896   3.904  0.3732  1.1962 -0.1778
  180SLPC  H15S20533   1.008   1.898   3.962  0.9193  0.6371  0.0331
  180SLPC  C21620534   1.036   2.028   3.793 -0.5252  0.6724 -0.0003
  180SLPC  H16R20535   1.101   2.038   3.704  1.0703  0.6424  1.1093
  180SLPC  H16S20536   1.060   2.109   3.866  0.2005 -0.3194  0.8970
  180SLPC  C21720537   0.888   2.048   3.756  0.6954  0.3812 -0.1108
  180SLPC  H17R20538   0.824   2.049   3.846 -0.7280  1.7321 -1.0686
  180SLPC  H17S20539   0.857   1.965   3.689 -0.1400 -0.1716  0.9276
  180SLPC  C21820540   0.860   2.178   3.680  0.0517  0.0898  0.4889
  180SLPC  H18R20541   0.750   2.184   3.665  0.0378 -1.2056 -0.0312
  180SLPC  H18S20542   0.917   2.196   3.587 -1.5043  2.2862 -0.1219
  180SLPC  H18T20543   0.885   2.257   3.753  2.3575  0.4741 -0.6429
  180SLPC   C3320544   1.020   2.165   2.775 -0.4847 -0.1160  0.0522
  180SLPC   H3X20545   0.948   2.246   2.750 -1.0328 -0.9618 -1.1989
  180SLPC   H3Y20546   1.116   2.208   2.738 -0.4610  2.1288  2.4167
  180SLPC   C3420547   1.031   2.148   2.926  0.3968  0.0522  0.2562
  180SLPC   H4X20548   0.940   2.098   2.965 -1.6088  2.6972 -0.7348
  180SLPC   H4Y20549   1.036   2.251   2.969  1.3091 -0.7273  2.1763
  180SLPC   C3520550   1.154   2.073   2.968 -0.9995  0.0756  0.4228
  180SLPC   H5X20551   1.243   2.099   2.906 -0.8483  1.5614  1.2332
  180SLPC   H5Y20552   1.140   1.964   2.949  1.4269 -0.2299 -0.0275
  180SLPC   C3620553   1.192   2.066   3.119  0.8494 -0.2395 -0.3415
  180SLPC   H6X20554   1.282   2.002   3.105  2.1346  2.0852 -4.5809
  180SLPC   H6Y20555   1.110   2.008   3.166  1.5762 -0.7409  0.3400
  180SLPC   C3720556   1.224   2.196   3.181  0.3598 -0.2894  0.4562
  180SLPC   H7X20557   1.131   2.257   3.181  0.8121  0.4058  0.4276
  180SLPC   H7Y20558   1.295   2.256   3.121  0.3869  0.6701  1.4152
  180SLPC   C3820559   1.279   2.171   3.325  0.0382 -0.0911 -0.2108
  180SLPC   H8X20560   1.389   2.170   3.308 -0.0360  2.8199 -1.4095
  180SLPC   H8Y20561   1.238   2.071   3.350 -3.0232  1.0861 -0.2003
  180SLPC   C3920562   1.244   2.289   3.429  0.0940  0.7585  0.3197
  180SLPC   H9X20563   1.139   2.320   3.415 -0.2219 -0.7040 -0.7960
  180SLPC   H9Y20564   1.310   2.371   3.393  0.2151 -0.0654 -1.4981
  180SLPC  C31020565   1.288   2.256   3.573  0.2497  0.1253  0.2002
  180SLPC  H10X20566   1.397   2.232   3.562  0.0926 -1.8267  2.1419
  180SLPC  H10Y20567   1.235   2.164   3.605 -0.6641  0.9321  1.0321
  180SLPC  C31120568   1.275   2.371   3.678 -0.4139 -0.5775  0.0980
  180SLPC  H11X20569   1.166   2.392   3.675 -0.4409 -0.7349 -2.6642
  180SLPC  H11Y20570   1.338   2.448   3.630  0.0094 -1.3365 -0.6066
  180SLPC  C31220571   1.318   2.332   3.814  0.2229  0.0446  0.3842
  180SLPC  H12X20572   1.423   2.295   3.814 -0.0482 -0.7611  0.7342
  180SLPC  H12Y20573   1.258   2.243   3.844 -1.8196  2.0459  2.6157
  180SLPC  C31320574   1.292   2.441   3.912 -0.6876  0.6044  0.5284
  180SLPC  H13X20575   1.204   2.504   3.886 -0.0009  0.8914 -1.2584
  180SLPC  H13Y20576   1.381   2.507   3.896  0.1093 -0.2577  1.2533
  180SLPC  C31420577   1.310   2.405   4.057  0.1820  0.7889 -0.2765
  180SLPC  H14X20578   1.301   2.294   4.059 -0.3170  0.8259 -0.2909
  180SLPC  H14Y20579   1.222   2.438   4.116 -0.8848 -2.1756 -0.0126
  180SLPC  C31520580   1.430   2.445   4.141  0.0443  0.1028  0.3623
  180SLPC  H15X20581   1.398   2.402   4.238  0.4119  3.4364  2.0884
  180SLPC  H15Y20582   1.429   2.555   4.153 -1.2135  0.2106 -0.5696
  180SLPC  C31620583   1.567   2.394   4.097 -0.0550  0.0653  0.3774
  180SLPC  H16X20584   1.595   2.434   3.998 -0.6000  0.7884  0.5071
  180SLPC  H16Y20585   1.567   2.283   4.093  1.6824  0.0473  0.1430
  180SLPC  C31720586   1.673   2.427   4.204  0.6540 -0.0712 -0.4292
  180SLPC  H17X20587   1.661   2.358   4.291 -1.9014  2.6244  1.5561
  180SLPC  H17Y20588   1.667   2.530   4.245  0.0658 -0.2307 -0.0961
  180SLPC  C31820589   1.815   2.408   4.143 -0.1641 -0.1103  0.2077
  180SLPC  H18X20590   1.820   2.307   4.097 -2.7261 -0.2343  0.0425
  180SLPC  H18Y20591   1.900   2.414   4.213  1.0183 -3.9873 -0.6736
  180SLPC  H18Z20592   1.835   2.486   4.067  1.2822  0.7278  1.4001
  181SLPC     N20593   6.350   1.264   2.161  0.3024 -0.2193 -0.0089
  181SLPC   C1320594   6.337   1.225   2.017  0.1595 -0.4715 -0.1769
  181SLPC  H13A20595   6.428   1.169   1.998  0.8211  1.3216 -2.7738
  181SLPC  H13B20596   6.247   1.168   1.999  0.7445 -2.2327  1.9747
  181SLPC  H13C20597   6.337   1.307   1.947 -1.1388 -1.4747 -1.4277
  181SLPC   C1420598   6.369   1.154   2.255  0.2996  0.4985 -1.0578
  181SLPC  H14A20599   6.319   1.063   2.225  1.4488 -1.2879  1.9635
  181SLPC  H14B20600   6.473   1.130   2.267  0.2557  0.3271 -1.0086
  181SLPC  H14C20601   6.331   1.178   2.353 -2.3137 -1.1821 -1.5548
  181SLPC   C1520602   6.216   1.326   2.198  0.7878  0.4588  0.8338
  181SLPC  H15A20603   6.204   1.419   2.145 -0.3867 -0.0827  0.1214
  181SLPC  H15B20604   6.142   1.261   2.154  0.0526  1.4614  0.5598
  181SLPC  H15C20605   6.213   1.354   2.302  2.7454  2.0197  0.5324
  181SLPC   C1220606   6.443   1.373   2.182  0.0404 -0.1928  1.0169
  181SLPC  H12A20607   6.440   1.418   2.280  1.1180 -1.0233  1.4502
  181SLPC  H12B20608   6.436   1.463   2.122  0.0892 -0.3724  0.7446
  181SLPC   C1120609   6.586   1.329   2.164  0.0214 -0.0760  0.2608
  181SLPC  H11A20610   6.644   1.421   2.146  1.4588 -1.3804 -2.4034
  181SLPC  H11B20611   6.596   1.266   2.073 -1.2581 -2.1601  1.4833
  181SLPC     P20612   6.791   1.201   2.270 -0.5310 -0.1969 -0.1556
  181SLPC   O1320613   6.785   1.053   2.274  0.3480 -0.2436  0.3121
  181SLPC   O1420614   6.867   1.264   2.158  0.5871 -0.2236  0.3767
  181SLPC   O1220615   6.643   1.254   2.275  0.6098 -0.6085  0.9777
  181SLPC   O1120616   6.859   1.258   2.401  0.1058 -0.6596  0.2774
  181SLPC    C120617   6.829   1.391   2.438 -0.1252 -0.5278 -0.2835
  181SLPC    HA20618   6.915   1.462   2.434 -1.6237  1.5926  2.0310
  181SLPC    HB20619   6.745   1.438   2.383 -1.5972 -0.6915  1.7072
  181SLPC    C220620   6.780   1.402   2.589 -0.1474  0.2198 -0.0295
  181SLPC    HS20621   6.750   1.509   2.595  0.4922  0.7290 -3.5326
  181SLPC   O2120622   6.892   1.355   2.671 -0.0800  0.1092  0.0753
  181SLPC   C2120623   6.978   1.444   2.709 -0.2213 -0.0892  0.4420
  181SLPC   O2220624   6.959   1.565   2.684  0.2431  0.3480  0.5912
  181SLPC   C2220625   7.106   1.377   2.769  0.9661 -0.3717  0.4916
  181SLPC   H2R20626   7.065   1.301   2.839 -2.1796  1.0945  0.3878
  181SLPC   H2S20627   7.159   1.330   2.683  0.9069  0.9813 -0.3015
  181SLPC    C320628   6.655   1.321   2.621  0.0177 -0.1639  0.5782
  181SLPC    HX20629   6.681   1.214   2.614 -1.0457 -0.6314  2.7860
  181SLPC    HY20630   6.579   1.347   2.543  0.5692  0.6469  0.2971
  181SLPC   O3120631   6.610   1.347   2.748  0.4431  0.3315  0.0891
  181SLPC   C3120632   6.534   1.457   2.762  0.2874 -0.1722 -0.3533
  181SLPC   O3220633   6.474   1.512   2.672  0.0598  0.1707  0.1544
  181SLPC   C3220634   6.520   1.497   2.913  0.7875  0.2734  0.3127
  181SLPC   H2X20635   6.548   1.413   2.980  0.5492  1.3563  1.8302
  181SLPC   H2Y20636   6.411   1.508   2.926  0.6101 -1.0246  0.0394
  181SLPC   C2320637   7.208   1.474   2.836 -0.3667 -1.3178 -0.1552
  181SLPC   H3R20638   7.151   1.533   2.911 -0.5380 -1.6492 -0.0252
  181SLPC   H3S20639   7.257   1.541   2.761 -2.1515  1.0326  0.6658
  181SLPC   C2420640   7.322   1.398   2.899 -0.3152  0.2350  0.1592
  181SLPC   H4R20641   7.413   1.461   2.913 -0.0903  0.1077 -0.6834
  181SLPC   H4S20642   7.347   1.309   2.838 -3.4720  0.7307 -2.1475
  181SLPC   C2520643   7.273   1.354   3.037 -0.2604  0.7126  0.4581
  181SLPC   H5R20644   7.295   1.247   3.059 -1.5388  0.2103 -0.5584
  181SLPC   H5S20645   7.162   1.353   3.037 -0.2699  1.1263 -0.1928
  181SLPC   C2620646   7.322   1.429   3.158 -0.1139  0.1448  0.1985
  181SLPC   H6R20647   7.302   1.536   3.136 -1.8490 -0.5043 -1.6348
  181SLPC   H6S20648   7.431   1.411   3.175 -0.1357  1.1953  1.6690
  181SLPC   C2720649   7.240   1.401   3.289  0.4019  0.1066  0.1911
  181SLPC   H7R20650   7.269   1.301   3.327  0.9265  0.1950  0.0333
  181SLPC   H7S20651   7.133   1.406   3.262  0.4469  2.8257  0.2993
  181SLPC   C2820652   7.277   1.506   3.400 -0.3939  0.0872 -0.4067
  181SLPC   H8R20653   7.250   1.606   3.361 -1.0237 -0.0822 -0.4138
  181SLPC   H8S20654   7.387   1.502   3.418 -0.1780 -0.7910 -1.7620
  181SLPC   C2920655   7.217   1.479   3.532 -0.3773  0.3432 -0.8857
  181SLPC   H9R20656   7.114   1.442   3.525 -0.4096  0.5258 -1.4539
  181SLPC  C21020657   7.263   1.508   3.663 -0.5117 -0.5452 -0.1258
  181SLPC  H10R20658   7.194   1.491   3.748  1.0627  2.2814  1.8743
  181SLPC  C21120659   7.384   1.575   3.713 -0.1821  0.2467 -0.7768
  181SLPC  H11R20660   7.451   1.611   3.633  1.3569  1.6250  1.0350
  181SLPC  H11S20661   7.444   1.496   3.763 -1.1241 -0.1558 -0.2602
  181SLPC  C21220662   7.344   1.687   3.812  0.1063 -0.1434  0.6691
  181SLPC  H12R20663   7.307   1.773   3.754 -3.0211 -3.1996 -2.4656
  181SLPC  C21320664   7.337   1.688   3.947  0.0558  0.2014  0.0912
  181SLPC  H13R20665   7.335   1.780   4.007 -1.3134  1.1807 -1.3865
  181SLPC  C21420666   7.361   1.573   4.038 -0.0808  0.5273  0.7106
  181SLPC  H14R20667   7.390   1.480   3.983  0.3319 -0.1490  2.0325
  181SLPC  H14S20668   7.265   1.555   4.090 -0.0780  2.2732  1.3545
  181SLPC  C21520669   7.459   1.595   4.152 -0.4004 -0.1632 -0.5227
  181SLPC  H15R20670   7.460   1.505   4.217  1.8366 -0.5481 -0.9867
  181SLPC  H15S20671   7.421   1.680   4.212  1.5430 -0.0073  0.5714
  181SLPC  C21620672   7.602   1.630   4.102  0.4847  0.0759 -0.3434
  181SLPC  H16R20673   7.596   1.729   4.052 -0.6263 -0.3422 -1.0958
  181SLPC  H16S20674   7.630   1.554   4.026 -0.6178  0.7187 -1.4524
  181SLPC  C21720675   7.707   1.616   4.211 -0.1714 -0.3816  0.2317
  181SLPC  H17R20676   7.689   1.523   4.270 -1.8556 -0.3688 -0.2113
  181SLPC  H17S20677   7.686   1.695   4.286 -3.1804 -1.5378  0.7820
  181SLPC  C21820678   7.847   1.627   4.153  0.2807 -0.2450 -0.6847
  181SLPC  H18R20679   7.854   1.717   4.088 -1.6317 -0.8482 -1.7998
  181SLPC  H18S20680   7.879   1.543   4.088  1.3110 -0.8188  0.5214
  181SLPC  H18T20681   7.926   1.650   4.227 -0.7340 -0.1155  0.3793
  181SLPC   C3320682   6.595   1.623   2.945 -0.7371  0.1909 -0.4126
  181SLPC   H3X20683   6.554   1.668   3.038 -0.1711  1.2769 -0.6724
  181SLPC   H3Y20684   6.563   1.694   2.866 -1.7167 -0.7498 -0.8775
  181SLPC   C3420685   6.747   1.600   2.956 -0.5921  0.2309 -0.1776
  181SLPC   H4X20686   6.799   1.692   2.992  1.0149 -1.0638  0.9923
  181SLPC   H4Y20687   6.782   1.578   2.853 -2.1139  0.0232 -0.6779
  181SLPC   C3520688   6.780   1.489   3.061  0.1254  0.2805 -0.1347
  181SLPC   H5X20689   6.891   1.492   3.056  0.0786  3.3233 -2.4545
  181SLPC   H5Y20690   6.743   1.388   3.033  0.1321  0.5272 -1.0735
  181SLPC   C3620691   6.740   1.511   3.203 -0.1538  0.1623 -0.1691
  181SLPC   H6X20692   6.773   1.428   3.269 -0.0170  0.7570  0.5209
  181SLPC   H6Y20693   6.629   1.502   3.191 -0.1152 -0.2099 -0.2548
  181SLPC   C3720694   6.789   1.649   3.250  0.1389 -0.1324 -0.3632
  181SLPC   H7X20695   6.734   1.728   3.194  0.9235  0.0033 -0.9793
  181SLPC   H7Y20696   6.897   1.665   3.225  0.4573 -1.0514  0.3729
  181SLPC   C3820697   6.770   1.681   3.398 -0.2698  0.3186  0.7227
  181SLPC   H8X20698   6.659   1.672   3.409 -0.2430 -0.6411  0.3527
  181SLPC   H8Y20699   6.808   1.784   3.411 -0.2534  0.1269  2.3808
  181SLPC   C3920700   6.849   1.589   3.495 -0.5246  0.1075 -0.4392
  181SLPC   H9X20701   6.957   1.595   3.470 -0.0936 -0.9823  1.0163
  181SLPC   H9Y20702   6.817   1.483   3.496  0.7331 -0.4169  3.8087
  181SLPC  C31020703   6.830   1.627   3.641  0.4068 -0.5133  0.3420
  181SLPC  H10X20704   6.867   1.548   3.710 -0.2533 -0.7520  0.4250
  181SLPC  H10Y20705   6.720   1.634   3.655  0.3964  1.9364 -0.5091
  181SLPC  C31120706   6.903   1.762   3.678 -0.3902  0.5330 -0.3373
  181SLPC  H11X20707   6.852   1.851   3.635 -0.0196  2.5240  2.9990
  181SLPC  H11Y20708   7.001   1.771   3.625 -0.3392  0.5633 -0.2390
  181SLPC  C31220709   6.942   1.774   3.823  0.9907 -0.0114  0.1861
  181SLPC  H12X20710   7.010   1.861   3.826  0.5584  0.3365  0.0059
  181SLPC  H12Y20711   6.990   1.679   3.856 -0.8778 -1.5115 -1.1625
  181SLPC  C31320712   6.822   1.790   3.922  0.5928  0.2384  0.1213
  181SLPC  H13X20713   6.863   1.805   4.024 -0.0989  1.0866  0.2943
  181SLPC  H13Y20714   6.763   1.696   3.915 -0.6632  0.9196  1.0787
  181SLPC  C31420715   6.729   1.905   3.880 -0.1459 -0.1072  0.3692
  181SLPC  H14X20716   6.647   1.854   3.825  1.8810 -2.1359 -0.9068
  181SLPC  H14Y20717   6.789   1.967   3.810 -2.5889  0.6351 -1.1954
  181SLPC  C31520718   6.684   1.988   4.003 -0.0826 -0.0926  0.9854
  181SLPC  H15X20719   6.777   2.032   4.045  2.3818 -0.1531 -3.7532
  181SLPC  H15Y20720   6.638   1.927   4.083 -0.8396 -0.9654 -0.0839
  181SLPC  C31620721   6.589   2.101   3.961 -0.7646 -0.0171  0.3840
  181SLPC  H16X20722   6.547   2.149   4.052  0.2335  2.0383 -0.1732
  181SLPC  H16Y20723   6.506   2.045   3.913 -1.6483  1.1071  0.5536
  181SLPC  C31720724   6.658   2.217   3.880 -0.5113  0.6619 -0.3460
  181SLPC  H17X20725   6.695   2.189   3.779 -0.8003  1.4062 -0.6663
  181SLPC  H17Y20726   6.754   2.240   3.931  0.1634 -1.1382 -0.7105
  181SLPC  C31820727   6.571   2.349   3.858  0.1512  0.4318 -0.1267
  181SLPC  H18X20728   6.498   2.341   3.774 -1.0817 -0.0282  0.9629
  181SLPC  H18Y20729   6.653   2.408   3.812  2.0994 -1.5454  0.6398
  181SLPC  H18Z20730   6.535   2.393   3.953  0.3513 -3.1923  1.7716
  182SLPC     N20731   4.163   0.745   2.220 -0.2990 -0.7283  0.5647
  182SLPC   C1320732   4.068   0.628   2.218  0.3316  0.4527  0.3614
  182SLPC  H13A20733   4.033   0.604   2.119  1.3588  0.8299 -0.1157
  182SLPC  H13B20734   4.118   0.537   2.246 -0.0310 -0.9013 -2.9277
  182SLPC  H13C20735   3.985   0.641   2.285  2.2515  0.3633  2.9203
  182SLPC   C1420736   4.096   0.868   2.161 -1.2919  0.1455 -0.6571
  182SLPC  H14A20737   4.162   0.954   2.164  0.4499 -1.1534 -0.3572
  182SLPC  H14B20738   4.063   0.842   2.061 -0.7330  0.9538 -1.0670
  182SLPC  H14C20739   4.007   0.878   2.221 -1.5832 -1.1458 -0.8397
  182SLPC   C1520740   4.283   0.712   2.129  0.5382 -0.0204  0.0449
  182SLPC  H15A20741   4.312   0.609   2.136  0.5712 -0.0742 -0.7986
  182SLPC  H15B20742   4.254   0.725   2.026 -1.7051  0.4931  0.6900
  182SLPC  H15C20743   4.364   0.781   2.148  1.0329 -0.5851  0.0153
  182SLPC   C1220744   4.201   0.771   2.367  0.4080  0.7755  0.5648
  182SLPC  H12A20745   4.253   0.680   2.392  1.1358  0.1910 -2.6179
  182SLPC  H12B20746   4.105   0.774   2.417 -0.0071  0.7733 -0.2173
  182SLPC   C1120747   4.294   0.891   2.398 -0.2197 -0.5528  0.1036
  182SLPC  H11A20748   4.369   0.886   2.316 -0.3726  0.4494 -0.1077
  182SLPC  H11B20749   4.345   0.873   2.495 -1.8737 -0.7143  0.9853
  182SLPC     P20750   4.304   1.149   2.368  0.1192 -0.2927 -0.2955
  182SLPC   O1320751   4.443   1.134   2.414 -0.1994  0.0551 -0.0817
  182SLPC   O1420752   4.276   1.189   2.224 -0.1659  0.4936 -0.3171
  182SLPC   O1220753   4.219   1.015   2.394 -0.0772 -0.1021 -0.4428
  182SLPC   O1120754   4.235   1.263   2.456 -0.0156 -0.0955 -0.0017
  182SLPC    C120755   4.183   1.218   2.588 -0.5391 -0.3757  0.0273
  182SLPC    HA20756   4.126   1.306   2.625 -0.7688 -1.3632  2.1817
  182SLPC    HB20757   4.109   1.136   2.578  1.2162 -1.9788 -0.3976
  182SLPC    C220758   4.295   1.198   2.694  0.1843 -0.2418  0.0851
  182SLPC    HS20759   4.359   1.114   2.660  1.4147 -0.0987  1.8451
  182SLPC   O2120760   4.238   1.176   2.824 -0.1756 -0.3971 -0.5260
  182SLPC   C2120761   4.161   1.064   2.839 -0.8419  0.4946  0.2056
  182SLPC   O2220762   4.133   0.976   2.758 -0.3210 -0.6405  0.2539
  182SLPC   C2220763   4.130   1.056   2.992  0.2883  0.3318 -0.0693
  182SLPC   H2R20764   4.212   1.103   3.050 -0.0596 -0.1510  0.8401
  182SLPC   H2S20765   4.044   1.126   3.004 -0.1161 -0.4156  1.6465
  182SLPC    C320766   4.387   1.327   2.691  0.8681  0.8779 -0.0997
  182SLPC    HX20767   4.312   1.405   2.714 -2.8462 -2.7800  1.4605
  182SLPC    HY20768   4.417   1.335   2.585  0.7784 -0.1797 -0.2150
  182SLPC   O3120769   4.495   1.334   2.787 -0.5897 -0.2213  0.0791
  182SLPC   C3120770   4.599   1.263   2.755  0.8965 -0.2766  0.1881
  182SLPC   O3220771   4.620   1.202   2.648 -0.3499  0.1496 -0.4107
  182SLPC   C3220772   4.683   1.252   2.877 -0.5745  0.7673  0.3283
  182SLPC   H2X20773   4.756   1.170   2.857 -0.7065  1.1139 -1.8973
  182SLPC   H2Y20774   4.615   1.221   2.959 -0.4770  0.8517  0.4421
  182SLPC   C2320775   4.117   0.911   3.044  0.2967  0.2273 -0.2952
  182SLPC   H3R20776   4.201   0.854   2.999  0.4669  0.5395 -0.3765
  182SLPC   H3S20777   4.025   0.876   2.992 -2.1463  2.3450  2.2899
  182SLPC   C2420778   4.114   0.898   3.192  0.5205  0.2494 -0.4742
  182SLPC   H4R20779   4.014   0.932   3.227  0.5285  1.2872 -1.4276
  182SLPC   H4S20780   4.171   0.974   3.250 -0.7824 -0.8355  2.4378
  182SLPC   C2520781   4.139   0.755   3.246 -0.1546 -0.7528  0.6580
  182SLPC   H5R20782   4.248   0.735   3.243 -0.4017 -2.0708 -0.9777
  182SLPC   H5S20783   4.091   0.685   3.174 -3.4286  1.9374 -0.0179
  182SLPC   C2620784   4.091   0.735   3.395  0.0691  0.4126 -0.3192
  182SLPC   H6R20785   3.980   0.738   3.403 -0.2348 -2.9637 -1.4169
  182SLPC   H6S20786   4.136   0.811   3.461 -1.7471  1.7396 -0.5304
  182SLPC   C2720787   4.133   0.595   3.447 -0.2408 -0.6103  0.3372
  182SLPC   H7R20788   4.094   0.518   3.377 -0.6462 -0.9278  0.9006
  182SLPC   H7S20789   4.091   0.574   3.547 -0.3169  1.1577  0.7102
  182SLPC   C2820790   4.290   0.579   3.474  0.8575  0.4191  0.3495
  182SLPC   H8R20791   4.331   0.668   3.526  1.4403  0.2395  0.2098
  182SLPC   H8S20792   4.335   0.595   3.374  1.0448 -0.6704  0.2483
  182SLPC   C2920793   4.326   0.445   3.537  0.3827  0.0317 -0.1087
  182SLPC   H9R20794   4.298   0.429   3.642  2.3403 -0.3655  0.3964
  182SLPC  C21020795   4.369   0.333   3.467 -0.0191  0.3974 -0.8079
  182SLPC  H10R20796   4.399   0.245   3.527 -2.1876  0.2055  0.0944
  182SLPC  C21120797   4.391   0.321   3.315  0.0288 -0.2943 -0.7419
  182SLPC  H11R20798   4.501   0.326   3.305  0.3945 -2.8909  0.9701
  182SLPC  H11S20799   4.345   0.405   3.258  2.5605  0.0472 -2.4339
  182SLPC  C21220800   4.331   0.198   3.263  0.1860  0.9227 -0.5220
  182SLPC  H12R20801   4.235   0.166   3.306  0.2843  0.5889 -0.5481
  182SLPC  C21320802   4.383   0.131   3.158  0.4310  0.6580 -0.1416
  182SLPC  H13R20803   4.323   0.046   3.120 -0.7995  0.2836  2.4178
  182SLPC  C21420804   4.507   0.148   3.078  0.0120 -0.0398  1.2310
  182SLPC  H14R20805   4.583   0.067   3.082  2.1091  1.8293  0.8508
  182SLPC  H14S20806   4.581   0.222   3.114  1.7007 -0.1062 -1.7605
  182SLPC  C21520807   4.479   0.186   2.928 -0.3289  0.4313 -0.3794
  182SLPC  H15R20808   4.431   0.286   2.930 -0.6154  0.2933 -0.2095
  182SLPC  H15S20809   4.417   0.100   2.895 -2.2772  1.8691 -0.7120
  182SLPC  C21620810   4.604   0.193   2.841  0.3872  0.2679  0.3722
  182SLPC  H16R20811   4.675   0.274   2.866 -0.3464  0.8382  0.6245
  182SLPC  H16S20812   4.568   0.210   2.737  0.8300 -2.2272 -0.2659
  182SLPC  C21720813   4.684   0.056   2.848  0.0575 -0.6229  0.5311
  182SLPC  H17R20814   4.624  -0.027   2.890 -0.7817 -0.1153  0.3673
  182SLPC  H17S20815   4.758   0.074   2.929  0.3325 -2.7885  0.8098
  182SLPC  C21820816   4.752   0.021   2.725 -0.1262  0.2554  0.1188
  182SLPC  H18R20817   4.834  -0.052   2.736  0.4106  0.8343  0.0139
  182SLPC  H18S20818   4.786   0.112   2.671  0.3106  1.9645  3.0561
  182SLPC  H18T20819   4.679  -0.030   2.659  1.1118 -3.9285  1.6729
  182SLPC   C3320820   4.742   1.383   2.910 -0.3775  0.2922 -0.6353
  182SLPC   H3X20821   4.673   1.469   2.921 -0.6558  0.1456 -1.2164
  182SLPC   H3Y20822   4.799   1.405   2.817 -0.5886 -0.8714 -1.0571
  182SLPC   C3420823   4.847   1.365   3.018 -0.4906  0.3203  0.5343
  182SLPC   H4X20824   4.941   1.423   3.006 -0.0665  0.0771  2.4479
  182SLPC   H4Y20825   4.884   1.260   3.021  1.4177  0.9524  0.0030
  182SLPC   C3520826   4.796   1.386   3.158 -0.0226  0.4050  0.2110
  182SLPC   H5X20827   4.704   1.326   3.174  0.6793 -0.4775  1.0360
  182SLPC   H5Y20828   4.766   1.490   3.180 -0.4035  0.3896 -0.2224
  182SLPC   C3620829   4.907   1.333   3.262  0.3889 -1.1914  0.1584
  182SLPC   H6X20830   5.004   1.382   3.236 -0.8607  0.5997 -1.4263
  182SLPC   H6Y20831   4.902   1.223   3.252  0.9073 -1.2685  0.7018
  182SLPC   C3720832   4.871   1.386   3.406  0.9432  0.3650 -0.0563
  182SLPC   H7X20833   4.762   1.377   3.425  0.5283  2.0948 -1.3545
  182SLPC   H7Y20834   4.897   1.492   3.427  2.8596 -0.2951  1.0906
  182SLPC   C3820835   4.939   1.295   3.506 -0.2026  0.2939 -0.3920
  182SLPC   H8X20836   5.016   1.362   3.551 -1.7539  2.1596 -0.3577
  182SLPC   H8Y20837   4.982   1.205   3.459 -0.7503 -0.1066 -0.1423
  182SLPC   C3920838   4.850   1.235   3.617 -0.3154  0.0566  0.1064
  182SLPC   H9X20839   4.757   1.203   3.564 -0.1198  2.5824 -2.0333
  182SLPC   H9Y20840   4.829   1.315   3.691  1.9224 -0.2068  1.0841
  182SLPC  C31020841   4.922   1.119   3.695  0.2157 -0.3188  0.3732
  182SLPC  H10X20842   4.934   1.033   3.626 -2.0474  0.2730 -0.8495
  182SLPC  H10Y20843   4.843   1.091   3.767 -0.8852 -0.2499 -0.7790
  182SLPC  C31120844   5.051   1.156   3.772 -0.1541 -0.0712  0.5553
  182SLPC  H11X20845   5.046   1.262   3.803 -2.8296  0.2795 -0.8048
  182SLPC  H11Y20846   5.130   1.132   3.697 -1.1849 -0.9012 -0.2910
  182SLPC  C31220847   5.075   1.073   3.903  0.5215 -0.2555 -0.1433
  182SLPC  H12X20848   5.079   0.966   3.873 -0.7955  0.1510 -1.9479
  182SLPC  H12Y20849   4.981   1.088   3.960 -0.1590 -1.9993 -0.7285
  182SLPC  C31320850   5.202   1.104   3.981  0.1182  0.2857  0.2496
  182SLPC  H13X20851   5.196   1.028   4.062 -1.3774 -2.1460 -1.9518
  182SLPC  H13Y20852   5.202   1.201   4.033  1.8033  0.2054  0.4545
  182SLPC  C31420853   5.339   1.081   3.900 -0.1938  0.1246  0.0533
  182SLPC  H14X20854   5.345   1.163   3.825  0.8284 -0.1816 -0.2145
  182SLPC  H14Y20855   5.334   0.981   3.850  1.4734  0.3948 -0.6909
  182SLPC  C31520856   5.470   1.089   3.975 -0.6937 -0.6840  0.0113
  182SLPC  H15X20857   5.472   1.015   4.058  2.5566  0.9541  1.5678
  182SLPC  H15Y20858   5.468   1.189   4.023 -1.0620 -0.8835  0.4226
  182SLPC  C31620859   5.596   1.063   3.895  0.2195 -0.2627  0.0822
  182SLPC  H16X20860   5.576   0.962   3.855 -2.0494  0.0232  0.3925
  182SLPC  H16Y20861   5.688   1.078   3.957 -0.0551 -0.5310  0.5589
  182SLPC  C31720862   5.605   1.157   3.775  0.0132 -0.2235 -0.2329
  182SLPC  H17X20863   5.527   1.138   3.699 -0.1227  1.7249 -0.6264
  182SLPC  H17Y20864   5.707   1.139   3.733  1.8437 -0.5235  3.8263
  182SLPC  C31820865   5.605   1.303   3.810 -0.5544  0.0200  0.0302
  182SLPC  H18X20866   5.658   1.376   3.746 -0.4966  0.2953  0.3871
  182SLPC  H18Y20867   5.648   1.319   3.912 -1.0847  0.6706  0.1556
  182SLPC  H18Z20868   5.499   1.336   3.809 -0.5704  0.3501 -4.3073
  183SLPC     N20869   5.248   2.341   2.278 -0.1934 -0.5279  0.0938
  183SLPC   C1320870   5.331   2.292   2.159  0.1143  0.4694 -0.8500
  183SLPC  H13A20871   5.338   2.184   2.165  1.2412  0.5946  1.8184
  183SLPC  H13B20872   5.272   2.307   2.070  0.4115 -0.0683 -1.1422
  183SLPC  H13C20873   5.432   2.330   2.145 -0.2744  1.0313 -2.3026
  183SLPC   C1420874   5.121   2.260   2.288  0.3328  0.4557 -0.2116
  183SLPC  H14A20875   5.073   2.266   2.384  1.4757  0.0410  0.4009
  183SLPC  H14B20876   5.052   2.297   2.213  1.2715  2.2544 -0.2202
  183SLPC  H14C20877   5.132   2.155   2.263  0.8327  0.7364 -1.2046
  183SLPC   C1520878   5.211   2.483   2.269  0.8298  0.8179 -0.5381
  183SLPC  H15A20879   5.289   2.557   2.263 -0.0159  1.9091  1.2273
  183SLPC  H15B20880   5.150   2.494   2.180 -0.4127  3.0060  0.5061
  183SLPC  H15C20881   5.156   2.515   2.356  1.1363  4.3339 -1.5174
  183SLPC   C1220882   5.326   2.323   2.405 -0.2846 -0.1021  0.4296
  183SLPC  H12A20883   5.269   2.351   2.492  0.1675  1.3348  0.2809
  183SLPC  H12B20884   5.407   2.394   2.406 -0.4534  0.1751 -1.3661
  183SLPC   C1120885   5.393   2.189   2.434 -0.8847  0.0110  0.7402
  183SLPC  H11A20886   5.327   2.108   2.396 -0.6988  0.4254 -0.4922
  183SLPC  H11B20887   5.401   2.175   2.544 -0.5799  1.4604  0.9193
  183SLPC     P20888   5.647   2.248   2.412 -0.0371  0.2078  0.2642
  183SLPC   O1320889   5.699   2.175   2.533 -0.0231 -0.3228 -0.3434
  183SLPC   O1420890   5.743   2.257   2.295 -0.4427  1.0345 -0.2472
  183SLPC   O1220891   5.521   2.170   2.368  0.3398  0.0248  0.3917
  183SLPC   O1120892   5.595   2.385   2.461  0.0837 -0.6691 -0.2430
  183SLPC    C120893   5.639   2.515   2.427 -0.4148  0.8038  0.4724
  183SLPC    HA20894   5.696   2.521   2.332 -0.5247  0.5447  0.3882
  183SLPC    HB20895   5.552   2.574   2.391 -0.0799 -0.0350 -1.8918
  183SLPC    C220896   5.714   2.567   2.552  0.1760  0.0543  0.4315
  183SLPC    HS20897   5.754   2.668   2.530 -0.6458  0.2981  0.0024
  183SLPC   O2120898   5.823   2.481   2.584 -0.3670  0.0642  0.4320
  183SLPC   C2120899   5.927   2.486   2.500 -0.7786 -0.1912 -0.6333
  183SLPC   O2220900   5.936   2.555   2.401 -0.1052  0.1576  0.2130
  183SLPC   C2220901   6.025   2.388   2.569 -0.3791  0.0003 -0.0786
  183SLPC   H2R20902   6.018   2.403   2.678  1.2950 -1.4721  0.2738
  183SLPC   H2S20903   5.997   2.283   2.543 -0.4476 -0.0109  0.0444
  183SLPC    C320904   5.614   2.586   2.670  0.5557 -0.2598 -0.3385
  183SLPC    HX20905   5.553   2.497   2.696  0.6560  0.6703  3.5991
  183SLPC    HY20906   5.541   2.652   2.617  1.6174  0.9497 -0.3475
  183SLPC   O3120907   5.666   2.662   2.784 -0.2456  0.1165 -0.2074
  183SLPC   C3120908   5.720   2.578   2.877 -0.4665  0.1326  0.0500
  183SLPC   O3220909   5.723   2.455   2.870  0.0811 -0.4213  0.7610
  183SLPC   C3220910   5.794   2.650   2.986  0.2391 -0.3643  0.2459
  183SLPC   H2X20911   5.899   2.615   2.980  0.5516  0.4320  0.9120
  183SLPC   H2Y20912   5.760   2.618   3.086  3.6986 -0.4492  1.5129
  183SLPC   C2320913   6.177   2.417   2.536 -0.0989 -0.1886  0.3705
  183SLPC   H3R20914   6.184   2.466   2.437 -2.0270 -1.0733 -0.2444
  183SLPC   H3S20915   6.227   2.319   2.525 -0.3372 -0.3072  0.3598
  183SLPC   C2420916   6.243   2.502   2.645 -0.5053  0.0827  0.1842
  183SLPC   H4R20917   6.348   2.517   2.615 -0.4400 -0.7902 -0.0709
  183SLPC   H4S20918   6.236   2.433   2.732  0.8880  0.2572  0.4471
  183SLPC   C2520919   6.182   2.645   2.671  0.3217  0.1859 -0.5920
  183SLPC   H5R20920   6.078   2.627   2.706  0.9296 -0.7887  0.7962
  183SLPC   H5S20921   6.184   2.699   2.574  1.4683  0.0519 -0.6593
  183SLPC   C2620922   6.262   2.711   2.792 -0.2881  0.0607 -0.6709
  183SLPC   H6R20923   6.368   2.696   2.764 -0.6951  0.2587 -2.4122
  183SLPC   H6S20924   6.255   2.665   2.893 -2.2509 -0.4399 -0.9995
  183SLPC   C2720925   6.238   2.868   2.808 -0.1678 -0.0997 -0.3808
  183SLPC   H7R20926   6.254   2.912   2.708 -1.6416  2.3192  0.3718
  183SLPC   H7S20927   6.325   2.908   2.864  0.6195  0.2439 -1.7957
  183SLPC   C2820928   6.103   2.907   2.868 -0.2287  0.8016 -0.0246
  183SLPC   H8R20929   6.083   2.859   2.966 -0.6251 -0.8688 -0.8898
  183SLPC   H8S20930   6.026   2.865   2.801 -0.2840 -1.0643  1.1431
  183SLPC   C2920931   6.099   3.059   2.881 -0.5783 -0.6752 -0.0784
  183SLPC   H9R20932   6.084   3.118   2.790 -1.3140  1.9751  1.6273
  183SLPC  C21020933   6.135   3.129   2.991 -0.2862  0.0713 -0.0784
  183SLPC  H10R20934   6.146   3.239   2.987 -2.1823  0.4495  2.4085
  183SLPC  C21120935   6.168   3.073   3.126  0.0230  0.2268 -0.3364
  183SLPC  H11R20936   6.154   2.963   3.120 -1.0956  0.4041 -1.2313
  183SLPC  H11S20937   6.084   3.113   3.186 -0.8787 -0.6400 -0.9931
  183SLPC  C21220938   6.297   3.104   3.175 -1.0394  0.0872 -0.9390
  183SLPC  H12R20939   6.351   3.191   3.135  3.3475 -1.3921  1.2398
  183SLPC  C21320940   6.357   3.053   3.286 -0.0950  0.7419  0.0072
  183SLPC  H13R20941   6.463   3.079   3.299  0.4797 -0.3015 -2.1120
  183SLPC  C21420942   6.321   2.937   3.381 -0.7297 -1.0486  0.2909
  183SLPC  H14R20943   6.381   2.848   3.350 -0.1435 -0.3090 -0.7391
  183SLPC  H14S20944   6.214   2.909   3.375 -1.0180  0.2949 -1.7335
  183SLPC  C21520945   6.380   2.957   3.522  0.7006 -0.8063  0.0471
  183SLPC  H15R20946   6.490   2.943   3.536  0.5610 -0.8325  1.1528
  183SLPC  H15S20947   6.335   2.873   3.579  0.9598 -0.2784  1.0552
  183SLPC  C21620948   6.323   3.069   3.607  0.2407 -0.5926  0.4351
  183SLPC  H16R20949   6.215   3.068   3.580 -0.2708 -1.6611  2.3632
  183SLPC  H16S20950   6.345   3.172   3.573 -0.6126 -0.4099  0.4166
  183SLPC  C21720951   6.358   3.048   3.755  0.8083  0.5749  0.0323
  183SLPC  H17R20952   6.467   3.040   3.778  0.3069 -2.0087  2.0663
  183SLPC  H17S20953   6.316   2.951   3.790  0.7110  0.5450 -0.1673
  183SLPC  C21820954   6.297   3.160   3.838 -0.0213  0.5205 -0.6080
  183SLPC  H18R20955   6.335   3.150   3.941 -1.5318  1.5386  0.0817
  183SLPC  H18S20956   6.191   3.130   3.849  0.3005 -0.7137 -0.7450
  183SLPC  H18T20957   6.320   3.266   3.813  0.7949  1.1976  2.6306
  183SLPC   C3320958   5.786   2.803   2.992 -0.0238  0.4611  0.5025
  183SLPC   H3X20959   5.678   2.830   2.991 -0.2404 -0.0859 -2.7661
  183SLPC   H3Y20960   5.826   2.839   2.895 -1.9668 -0.9292 -0.9070
  183SLPC   C3420961   5.851   2.863   3.121  0.0558  0.2835  0.3154
  183SLPC   H4X20962   5.850   2.974   3.116 -1.6224  0.2744 -0.0237
  183SLPC   H4Y20963   5.956   2.834   3.143 -0.3260  0.1015  1.9921
  183SLPC   C3520964   5.780   2.823   3.255 -0.0322 -0.1553  0.0970
  183SLPC   H5X20965   5.784   2.718   3.291  0.6902  0.8125  3.1080
  183SLPC   H5Y20966   5.671   2.847   3.256  0.4117  2.3606  3.8325
  183SLPC   C3620967   5.846   2.903   3.369  0.4732  0.2129  0.1654
  183SLPC   H6X20968   5.854   3.008   3.332  0.3247  0.3286  0.4515
  183SLPC   H6Y20969   5.947   2.865   3.393  0.3529  0.8974  1.9540
  183SLPC   C3720970   5.782   2.881   3.513 -0.4110 -0.1124 -0.5056
  183SLPC   H7X20971   5.793   2.780   3.556  1.5610  0.3319  0.1031
  183SLPC   H7Y20972   5.674   2.908   3.507 -0.3298  0.8187  1.5868
  183SLPC   C3820973   5.857   2.970   3.611  0.1112 -0.4431 -0.0297
  183SLPC   H8X20974   5.833   3.078   3.598 -1.4269 -0.7114  0.3875
  183SLPC   H8Y20975   5.966   2.964   3.588  0.3022  2.0086 -0.0298
  183SLPC   C3920976   5.831   2.942   3.762  0.3840 -0.5213  0.1242
  183SLPC   H9X20977   5.889   3.024   3.809 -2.7317  1.4731  0.7925
  183SLPC   H9Y20978   5.871   2.844   3.796  2.1615  0.6627  1.5883
  183SLPC  C31020979   5.684   2.948   3.809 -0.0776 -0.4718  0.2030
  183SLPC  H10X20980   5.626   2.866   3.759 -1.0078 -1.0042  2.0762
  183SLPC  H10Y20981   5.636   3.042   3.773 -1.5550 -1.6709 -1.1449
  183SLPC  C31120982   5.675   2.937   3.959  0.0673 -0.4266 -0.2201
  183SLPC  H11X20983   5.708   3.036   3.996  1.8394  0.0706 -2.8079
  183SLPC  H11Y20984   5.744   2.856   3.992  0.7637 -0.2168 -1.1002
  183SLPC  C31220985   5.538   2.895   4.002 -0.1028 -0.3389  0.4910
  183SLPC  H12X20986   5.493   2.807   3.953 -1.2014  0.2418  0.4185
  183SLPC  H12Y20987   5.476   2.985   3.980  0.6592 -0.5072 -2.8522
  183SLPC  C31320988   5.515   2.882   4.153 -0.1105  0.2894 -0.2288
  183SLPC  H13X20989   5.570   2.789   4.177 -1.7432 -0.5854  0.2603
  183SLPC  H13Y20990   5.405   2.872   4.169  0.0887 -1.4667  0.1801
  183SLPC  C31420991   5.575   2.997   4.244  0.1000  0.8017 -0.2186
  183SLPC  H14X20992   5.555   3.097   4.200 -1.3730  0.9599  0.7403
  183SLPC  H14Y20993   5.684   2.977   4.244  0.1800  1.2220 -0.9749
  183SLPC  C31520994   5.529   2.992   4.398  0.0145  0.0068  0.2414
  183SLPC  H15X20995   5.423   3.023   4.408 -0.3658 -0.4973 -1.7532
  183SLPC  H15Y20996   5.593   3.066   4.451 -0.1967  0.3737 -0.0114
  183SLPC  C31620997   5.569   2.861   4.463  0.5682  0.0495 -0.2229
  183SLPC  H16X20998   5.680   2.856   4.468  0.6305 -2.1130 -2.0462
  183SLPC  H16Y20999   5.547   2.771   4.401  0.9785  0.6423 -1.2581
  183SLPC  C31721000   5.518   2.854   4.611  0.1296 -0.6483  0.5188
  183SLPC  H17X21001   5.408   2.854   4.598  0.2881  1.4053 -1.5471
  183SLPC  H17Y21002   5.544   2.942   4.673  0.7951 -0.3300 -0.1896
  183SLPC  C31821003   5.559   2.725   4.682  0.4806  0.1630 -0.3104
  183SLPC  H18X21004   5.662   2.702   4.715  1.2422  1.3380 -1.7456
  183SLPC  H18Y21005   5.511   2.637   4.634 -1.4555 -0.2083  2.1325
  183SLPC  H18Z21006   5.500   2.723   4.776 -0.6121 -0.1138 -0.9699
  184SLPC     N21007   5.963   2.741   2.018 -0.0991  0.6910  0.0025
  184SLPC   C1321008   6.056   2.635   1.953  0.3067 -0.3826 -0.0364
  184SLPC  H13A21009   6.026   2.535   1.980  1.5960 -0.9082 -0.4790
  184SLPC  H13B21010   6.053   2.640   1.845 -0.7377 -0.6160 -0.0306
  184SLPC  H13C21011   6.155   2.645   1.994  0.0153 -0.7316  0.7602
  184SLPC   C1421012   5.944   2.701   2.164  0.3174  0.4713  0.5749
  184SLPC  H14A21013   5.899   2.780   2.223 -0.6580  0.9298 -0.7276
  184SLPC  H14B21014   5.876   2.619   2.179 -1.4247  2.3309  4.1932
  184SLPC  H14C21015   6.032   2.674   2.220 -0.9656 -0.4545  2.2182
  184SLPC   C1521016   5.826   2.740   1.949  0.2999  0.3020 -0.1638
  184SLPC  H15A21017   5.850   2.721   1.845 -0.5003 -1.4919 -0.0696
  184SLPC  H15B21018   5.751   2.673   1.989 -1.2680  2.2254  0.2726
  184SLPC  H15C21019   5.782   2.838   1.963  0.0325  0.0959  0.4919
  184SLPC   C1221020   6.017   2.872   1.984  0.1177  0.1491 -0.4771
  184SLPC  H12A21021   6.012   2.891   1.878 -2.6084  0.9848 -0.2849
  184SLPC  H12B21022   6.122   2.866   2.008 -0.2010 -1.6676  0.6685
  184SLPC   C1121023   5.952   2.997   2.050 -0.2981  0.2561 -0.6003
  184SLPC  H11A21024   6.023   3.079   2.026  1.7853 -0.9682  1.1353
  184SLPC  H11B21025   5.939   2.980   2.159  0.2698  0.8594 -0.4333
  184SLPC     P21026   5.776   3.156   1.936  0.0137  0.2621  0.3789
  184SLPC   O1321027   5.859   3.171   1.814 -0.0216 -0.1973  0.1875
  184SLPC   O1421028   5.631   3.147   1.910  0.1526 -0.6431  0.3048
  184SLPC   O1221029   5.823   3.022   2.007  0.0723  0.2345  0.8424
  184SLPC   O1121030   5.811   3.274   2.033 -0.6085  0.5505 -0.1502
  184SLPC    C121031   5.764   3.282   2.163 -0.4429  0.3914 -0.5116
  184SLPC    HA21032   5.702   3.195   2.194  0.4091  1.1304  3.9524
  184SLPC    HB21033   5.852   3.272   2.229  0.0598 -0.9549 -1.3298
  184SLPC    C221034   5.698   3.413   2.201  0.1505  0.2702  0.1448
  184SLPC    HS21035   5.626   3.429   2.118  0.3823  1.9215  0.2189
  184SLPC   O2121036   5.793   3.517   2.201 -0.6372 -0.2606  0.1998
  184SLPC   C2121037   5.740   3.642   2.225 -0.6247  0.6094 -0.4991
  184SLPC   O2221038   5.628   3.670   2.193 -0.4296 -0.1478 -0.1752
  184SLPC   C2221039   5.833   3.730   2.314 -0.2495 -0.1451  0.4662
  184SLPC   H2R21040   5.884   3.670   2.392  0.2177  1.7376  1.6757
  184SLPC   H2S21041   5.905   3.767   2.238 -1.0275 -0.7099 -0.5673
  184SLPC    C321042   5.630   3.401   2.340  0.6842 -0.0067  0.2911
  184SLPC    HX21043   5.561   3.314   2.330  0.5018  0.1539  0.1419
  184SLPC    HY21044   5.566   3.490   2.356  0.5082  0.0566 -0.6733
  184SLPC   O3121045   5.734   3.393   2.445  0.5461 -0.5002  0.0061
  184SLPC   C3121046   5.704   3.422   2.572  0.3978 -0.1191 -0.6569
  184SLPC   O3221047   5.593   3.442   2.619  0.1432 -0.0168  0.4705
  184SLPC   C3221048   5.827   3.396   2.652 -0.1818  0.7366  0.2411
  184SLPC   H2X21049   5.888   3.325   2.591  0.3763 -0.4108  2.0520
  184SLPC   H2Y21050   5.800   3.327   2.735  0.0467 -0.3104 -0.5296
  184SLPC   C2321051   5.757   3.844   2.383 -0.3269  0.0563 -0.0950
  184SLPC   H3R21052   5.726   3.923   2.311 -2.6302 -2.8682 -2.5762
  184SLPC   H3S21053   5.829   3.878   2.461  0.6729 -0.0399 -0.9571
  184SLPC   C2421054   5.633   3.801   2.474 -0.3305  0.3884  0.6970
  184SLPC   H4R21055   5.663   3.714   2.536 -1.9430 -0.3610  0.5032
  184SLPC   H4S21056   5.556   3.766   2.402  0.5524  1.5828 -0.8940
  184SLPC   C2521057   5.577   3.918   2.556  0.7014  0.5033 -0.1022
  184SLPC   H5R21058   5.555   3.997   2.481 -1.7325  0.3354  0.3495
  184SLPC   H5S21059   5.659   3.958   2.619  0.7409  1.8181 -0.9450
  184SLPC   C2621060   5.468   3.872   2.653 -0.0370 -0.0056 -0.0429
  184SLPC   H6R21061   5.477   3.947   2.735 -2.2502  1.4758 -1.0708
  184SLPC   H6S21062   5.493   3.770   2.689  1.6414 -0.2166 -1.6615
  184SLPC   C2721063   5.331   3.880   2.590  0.8869 -0.2387 -0.1446
  184SLPC   H7R21064   5.327   3.802   2.511  1.4033 -0.9609  0.5241
  184SLPC   H7S21065   5.323   3.980   2.543 -1.9516 -0.4305 -0.2266
  184SLPC   C2821066   5.222   3.861   2.693  0.4648 -0.0906 -0.4301
  184SLPC   H8R21067   5.245   3.767   2.748  0.4256 -1.0910 -2.0549
  184SLPC   H8S21068   5.125   3.864   2.639 -0.4569 -0.7122  1.1113
  184SLPC   C2921069   5.206   3.985   2.788  0.1421  0.1659 -0.7326
  184SLPC   H9R21070   5.184   4.076   2.730 -0.9172  2.2431  2.6602
  184SLPC  C21021071   5.203   3.991   2.923  0.8362  0.0664 -0.1478
  184SLPC  H10R21072   5.178   4.087   2.970  3.2205  0.6976 -0.0454
  184SLPC  C21121073   5.241   3.879   3.017  0.1003  0.7183  0.0393
  184SLPC  H11R21074   5.349   3.902   3.029  0.2445  1.1648 -1.9010
  184SLPC  H11S21075   5.244   3.777   2.974  2.2597  1.6233 -2.2153
  184SLPC  C21221076   5.174   3.889   3.157  0.1960 -0.6697  0.3622
  184SLPC  H12R21077   5.080   3.946   3.159  1.9982  2.5795  0.2800
  184SLPC  C21321078   5.204   3.831   3.274  0.2838  0.0073  0.8806
  184SLPC  H13R21079   5.136   3.849   3.359  1.0988  0.8315  1.3832
  184SLPC  C21421080   5.318   3.738   3.296 -0.6965 -0.1813  0.5924
  184SLPC  H14R21081   5.378   3.765   3.386 -1.1407  1.1333  0.5053
  184SLPC  H14S21082   5.394   3.752   3.216 -0.7204 -0.8786  0.4388
  184SLPC  C21521083   5.263   3.589   3.308 -0.1633  0.5026  0.1397
  184SLPC  H15R21084   5.196   3.565   3.223  1.7015  1.8636 -1.8140
  184SLPC  H15S21085   5.198   3.590   3.398 -0.5984  2.3224 -0.1572
  184SLPC  C21621086   5.365   3.481   3.319 -0.2645 -0.2413 -0.2499
  184SLPC  H16R21087   5.316   3.384   3.296  0.1777 -0.5568  0.1290
  184SLPC  H16S21088   5.417   3.475   3.417 -1.7291 -0.7892  0.5198
  184SLPC  C21721089   5.477   3.498   3.214 -0.2759  0.0071 -0.3345
  184SLPC  H17R21090   5.543   3.409   3.225 -1.3225 -0.6459  0.7745
  184SLPC  H17S21091   5.541   3.586   3.238  1.6801 -1.4385  0.0212
  184SLPC  C21821092   5.433   3.487   3.068  0.0566  0.1235  0.4353
  184SLPC  H18R21093   5.405   3.380   3.064 -2.2228  0.5848  1.7724
  184SLPC  H18S21094   5.514   3.501   2.993 -2.2639  0.3627 -2.2142
  184SLPC  H18T21095   5.340   3.543   3.041 -0.5820 -0.4696  1.3587
  184SLPC   C3321096   5.892   3.519   2.708  0.2840 -0.0446 -0.3372
  184SLPC   H3X21097   5.920   3.587   2.624  1.0024  1.9312  1.4045
  184SLPC   H3Y21098   5.982   3.493   2.768  1.8107  1.5447 -1.7984
  184SLPC   C3421099   5.804   3.591   2.805 -0.5461  0.1514  0.2694
  184SLPC   H4X21100   5.767   3.509   2.868  0.8475 -0.5103  0.2654
  184SLPC   H4Y21101   5.720   3.643   2.754  0.2061  0.3713 -0.7915
  184SLPC   C3521102   5.880   3.706   2.877  0.5384  0.2666 -0.1937
  184SLPC   H5X21103   5.921   3.771   2.798 -0.6276  1.7850  0.4029
  184SLPC   H5Y21104   5.961   3.666   2.941  0.9198  0.8200 -0.3304
  184SLPC   C3621105   5.776   3.784   2.959 -0.1744 -0.1116  0.7816
  184SLPC   H6X21106   5.687   3.797   2.894  1.8589  0.4593 -2.0910
  184SLPC   H6Y21107   5.812   3.888   2.975  0.9058 -0.1830 -0.9446
  184SLPC   C3721108   5.743   3.729   3.098 -0.1724  0.6715  0.4261
  184SLPC   H7X21109   5.721   3.621   3.095  1.8417 -0.1098  5.0514
  184SLPC   H7Y21110   5.646   3.778   3.121 -0.0847  1.1898 -0.2699
  184SLPC   C3821111   5.851   3.749   3.204 -0.3649 -0.7484 -0.5797
  184SLPC   H8X21112   5.872   3.858   3.203 -1.3567 -0.5201  0.6932
  184SLPC   H8Y21113   5.940   3.700   3.158  0.1920 -0.2510 -0.0376
  184SLPC   C3921114   5.806   3.707   3.342  0.5271 -0.0758  0.4287
  184SLPC   H9X21115   5.899   3.708   3.403  1.3103  0.1757 -0.7231
  184SLPC   H9Y21116   5.772   3.602   3.339 -0.4308  0.2440 -1.5308
  184SLPC  C31021117   5.696   3.800   3.393  0.7041  0.3520  0.0920
  184SLPC  H10X21118   5.606   3.788   3.329 -0.5561 -1.4291  2.0856
  184SLPC  H10Y21119   5.746   3.900   3.387  3.0118 -0.6891  0.7581
  184SLPC  C31121120   5.656   3.777   3.541 -0.5549  0.1787 -0.5619
  184SLPC  H11X21121   5.564   3.833   3.567  0.2113  0.5309  1.6076
  184SLPC  H11Y21122   5.728   3.832   3.605 -0.8229  1.3082 -1.2239
  184SLPC  C31221123   5.661   3.634   3.589  0.4310 -0.2470  0.2103
  184SLPC  H12X21124   5.770   3.612   3.597  0.8388  1.3524 -0.6694
  184SLPC  H12Y21125   5.614   3.561   3.520 -0.6357  1.8120 -1.3515
  184SLPC  C31321126   5.590   3.607   3.725  0.9303 -0.5877 -0.7829
  184SLPC  H13X21127   5.596   3.500   3.755 -0.3323 -0.5257 -0.2559
  184SLPC  H13Y21128   5.486   3.642   3.712  1.2775  0.2655 -1.3471
  184SLPC  C31421129   5.659   3.683   3.837  0.0016  0.2789  0.2406
  184SLPC  H14X21130   5.687   3.787   3.807 -0.9528  0.3167 -0.5670
  184SLPC  H14Y21131   5.753   3.625   3.852 -0.2662 -0.0256  0.7534
  184SLPC  C31521132   5.584   3.694   3.963 -0.1967  0.8383  0.0771
  184SLPC  H15X21133   5.647   3.738   4.043  1.9073 -0.2998 -0.8387
  184SLPC  H15Y21134   5.533   3.603   4.003 -1.0044  1.0020 -0.5597
  184SLPC  C31621135   5.450   3.777   3.949  0.3896  0.5537 -0.5700
  184SLPC  H16X21136   5.412   3.753   3.847 -0.6804  1.7618 -0.4884
  184SLPC  H16Y21137   5.495   3.879   3.942  1.8829  0.1411  1.9528
  184SLPC  C31721138   5.348   3.759   4.055 -1.0573 -0.6684 -0.1434
  184SLPC  H17X21139   5.316   3.653   4.058 -0.3847 -0.8487  1.5104
  184SLPC  H17Y21140   5.264   3.829   4.034 -0.8886 -0.8500 -1.5099
  184SLPC  C31821141   5.396   3.782   4.198 -0.2961 -0.5588 -0.1986
  184SLPC  H18X21142   5.314   3.790   4.272 -0.9920  0.4956 -1.0601
  184SLPC  H18Y21143   5.447   3.881   4.200 -1.3471  0.0336  2.8554
  184SLPC  H18Z21144   5.460   3.700   4.238 -0.8941 -1.3770 -0.8998
  185POPC     N21145   6.107   0.009   7.048 -0.1873 -0.2969  0.2040
  185POPC   C1221146   6.216   0.000   6.936  0.2003  0.3523  0.0410
  185POPC  H12A21147   6.298   0.069   6.953  2.7612 -1.9512 -2.0877
  185POPC  H12B21148   6.169   0.039   6.846  1.4457  0.3293 -0.6391
  185POPC   C1321149   6.039   0.140   7.058  1.2530  0.1555  0.5779
  185POPC  H13A21150   5.965   0.148   6.980 -0.6450 -2.9473  1.8749
  185POPC  H13B21151   5.996   0.142   7.157  1.2820  1.8875  0.5875
  185POPC  H13C21152   6.108   0.224   7.051  1.2611  0.1055  0.0051
  185POPC   C1421153   5.996  -0.088   7.004 -0.2035  1.0474 -0.0521
  185POPC  H14A21154   5.910  -0.094   7.069  0.6541 -1.9486  0.9836
  185POPC  H14B21155   5.972  -0.053   6.905  1.0398 -1.5630 -1.3747
  185POPC  H14C21156   6.035  -0.189   6.997 -4.3725 -0.7607 -0.0558
  185POPC   C1521157   6.157  -0.027   7.185 -0.0251  0.5468 -0.1092
  185POPC  H15A21158   6.087  -0.001   7.263  0.5747  0.9860  0.2941
  185POPC  H15B21159   6.247   0.024   7.218  1.8039 -3.0351  1.0133
  185POPC  H15C21160   6.176  -0.133   7.197 -0.8047  0.1228 -2.2419
  185POPC   C1121161   6.287  -0.133   6.904  0.2077 -0.1865 -0.0561
  185POPC  H11A21162   6.354  -0.116   6.817  0.0889  0.5551 -0.0041
  185POPC  H11B21163   6.217  -0.218   6.892 -0.6285  0.1285  2.1300
  185POPC     P21164   6.527  -0.130   7.012  0.1193  0.3786 -0.0612
  185POPC   O1321165   6.590  -0.171   7.143 -0.0562  0.5847 -0.8968
  185POPC   O1421166   6.548   0.008   6.963 -0.0859 -0.4513  0.2636
  185POPC   O1221167   6.366  -0.173   7.019  0.3341 -0.1403 -0.6687
  185POPC   O1121168   6.582  -0.238   6.906  0.7227 -0.5247 -0.2231
  185POPC    C121169   6.713  -0.217   6.847  0.6558  0.1863 -0.3659
  185POPC    HA21170   6.756  -0.315   6.819  0.8605  0.7138 -2.0596
  185POPC    HB21171   6.788  -0.166   6.911  2.4622 -0.5941 -1.7601
  185POPC    C221172   6.704  -0.136   6.715  0.4667 -0.1363 -0.1156
  185POPC    HS21173   6.654  -0.038   6.728  2.5587  0.7978  1.5141
  185POPC   O2121174   6.633  -0.221   6.623 -0.1081 -0.2976 -0.3751
  185POPC   C2121175   6.572  -0.171   6.521  0.4251  0.5845 -0.4938
  185POPC   O2221176   6.546  -0.055   6.501  0.5198  0.0996  0.4691
  185POPC   C2221177   6.532  -0.287   6.423  0.0605  0.6469 -0.0406
  185POPC   H2R21178   6.423  -0.307   6.427 -0.1441  1.3987 -1.2457
  185POPC   H2S21179   6.593  -0.377   6.444 -1.2562 -0.1463  0.5284
  185POPC    C321180   6.854  -0.105   6.670 -0.1910  0.2592  0.2804
  185POPC    HX21181   6.908  -0.201   6.684 -1.5862 -0.3139  2.1442
  185POPC    HY21182   6.890  -0.037   6.751 -2.5634  0.5921  1.1418
  185POPC   O3121183   6.875  -0.039   6.546  0.3633 -0.2737  0.1365
  185POPC   C3121184   6.895  -0.113   6.436  0.5654  0.4740 -0.6513
  185POPC   O3221185   6.876  -0.235   6.440  0.2055 -0.2322  0.4435
  185POPC   C3221186   6.921  -0.032   6.310 -0.1554  0.0303 -0.3841
  185POPC   H2X21187   6.946   0.070   6.346 -1.8223  0.1350  0.5760
  185POPC   H2Y21188   6.827  -0.032   6.250  1.0736 -0.0817 -2.4234
  185POPC   C2321189   6.564  -0.252   6.281  0.4639  0.8127 -0.2017
  185POPC   H3R21190   6.665  -0.206   6.295  0.4569  0.6260  0.4904
  185POPC   H3S21191   6.503  -0.172   6.234 -2.0461 -1.5338 -1.1683
  185POPC   C2421192   6.584  -0.360   6.175  0.9455  0.3600  0.3490
  185POPC   H4R21193   6.490  -0.406   6.139  0.5793  0.9982  0.4792
  185POPC   H4S21194   6.637  -0.443   6.225  1.6589  0.2687 -0.5260
  185POPC   C2521195   6.674  -0.311   6.063 -0.3692  0.1966 -0.1907
  185POPC   H5R21196   6.761  -0.254   6.102  1.1503 -0.9679 -1.7084
  185POPC   H5S21197   6.606  -0.236   6.017 -1.4702  0.5891  1.9558
  185POPC   C2621198   6.722  -0.413   5.971  0.1727 -0.4294  0.4592
  185POPC   H6R21199   6.635  -0.474   5.939 -0.2727  0.7012 -0.5484
  185POPC   H6S21200   6.794  -0.486   6.014  0.2640 -0.3798  0.3897
  185POPC   C2721201   6.777  -0.350   5.841  0.3975 -0.3484  0.4129
  185POPC   H7R21202   6.880  -0.318   5.868  0.0795  0.3967  0.7753
  185POPC   H7S21203   6.719  -0.261   5.807  0.5633  0.2821  1.7329
  185POPC   C2821204   6.774  -0.448   5.723  0.1938 -0.3203 -0.4919
  185POPC   H8R21205   6.814  -0.547   5.754  3.0007  0.7560 -0.3571
  185POPC   H8S21206   6.854  -0.412   5.655 -0.3152  1.1868 -0.3210
  185POPC   C2921207   6.642  -0.449   5.649 -0.3904 -0.4942 -0.1757
  185POPC   H9121208   6.551  -0.479   5.704  0.3788 -0.1936  1.3350
  185POPC  C21021209   6.629  -0.405   5.528  0.1890 -0.1091 -0.0388
  185POPC  H10121210   6.525  -0.399   5.495  0.0019 -1.6380  0.1851
  185POPC  C21121211   6.740  -0.360   5.437  0.6082 -0.0719  0.0579
  185POPC  H11R21212   6.789  -0.453   5.403 -1.3696 -0.8504 -0.7554
  185POPC  H11S21213   6.817  -0.302   5.494 -0.7240  2.9840 -1.0193
  185POPC  C21221214   6.686  -0.264   5.325  0.7384 -0.1731  0.4299
  185POPC  H12R21215   6.774  -0.241   5.262 -0.3037 -0.9975 -1.3901
  185POPC  H12S21216   6.646  -0.174   5.376 -0.3497 -0.3247 -0.1484
  185POPC  C21321217   6.576  -0.329   5.236 -0.2148 -0.3305 -0.1918
  185POPC  H13R21218   6.476  -0.325   5.285 -0.7802 -1.2546 -1.2185
  185POPC  H13S21219   6.600  -0.437   5.236 -1.6828 -0.7236  1.8502
  185POPC  C21421220   6.554  -0.270   5.098  0.2064 -0.0844  0.4713
  185POPC  H14R21221   6.652  -0.234   5.060 -0.8536  0.6765 -1.7693
  185POPC  H14S21222   6.492  -0.178   5.100  0.8724  0.3904  3.4213
  185POPC  C21521223   6.491  -0.371   5.004 -0.2570  0.4997 -0.4447
  185POPC  H15R21224   6.388  -0.405   5.029  0.0557 -1.4755 -1.5869
  185POPC  H15S21225   6.553  -0.462   5.021 -0.1721  0.7439  0.6090
  185POPC  C21621226   6.518  -0.345   4.858  0.0281  0.1734 -0.2178
  185POPC  H16R21227   6.626  -0.348   4.833 -0.0364 -0.4825 -0.4424
  185POPC  H16S21228   6.486  -0.241   4.836  1.2250  0.1591 -2.2033
  185POPC  C21721229   6.437  -0.434   4.761  0.2110  0.3005  0.0423
  185POPC  H17R21230   6.449  -0.387   4.662  0.8548  4.3111  1.8404
  185POPC  H17S21231   6.329  -0.429   4.787  0.1456  0.5705 -0.2878
  185POPC  C21821232   6.476  -0.582   4.755 -0.4672  0.0767 -0.5342
  185POPC  H18R21233   6.449  -0.624   4.854  1.6476 -1.7032 -0.6398
  185POPC  H18S21234   6.585  -0.600   4.746 -0.7852 -3.8623  1.2041
  185POPC  H18T21235   6.426  -0.626   4.665 -0.3029 -2.5246  0.5438
  185POPC   C3321236   7.031  -0.098   6.224  0.2716  0.0972 -0.5238
  185POPC   H3X21237   7.013  -0.207   6.218 -0.8283  0.3039 -1.5114
  185POPC   H3Y21238   7.130  -0.075   6.268 -1.0697  1.7086  1.8813
  185POPC   C3421239   7.026  -0.066   6.075 -0.2898 -0.4344 -0.1141
  185POPC   H4X21240   7.000   0.041   6.061 -0.7921 -0.8916 -3.3672
  185POPC   H4Y21241   6.940  -0.125   6.038 -0.2234 -1.1111  0.7559
  185POPC   C3521242   7.149  -0.120   6.004 -0.0166  0.0454 -0.6525
  185POPC   H5X21243   7.165  -0.229   6.016  0.1314 -0.2054 -2.6831
  185POPC   H5Y21244   7.233  -0.065   6.051 -2.2508  3.4902 -0.2837
  185POPC   C3621245   7.167  -0.090   5.852 -0.4432 -0.5505 -0.2984
  185POPC   H6X21246   7.271  -0.112   5.819  0.3816  0.5248  1.3816
  185POPC   H6Y21247   7.157   0.020   5.848 -1.3039 -0.4791  2.0301
  185POPC   C3721248   7.060  -0.169   5.762 -0.0227  0.1101 -0.5878
  185POPC   H7X21249   6.956  -0.140   5.790  0.3378  0.2819  0.6390
  185POPC   H7Y21250   7.071  -0.279   5.777 -2.4391 -0.6518 -3.3609
  185POPC   C3821251   7.088  -0.153   5.609 -0.0538 -0.3332  0.3076
  185POPC   H8X21252   7.026  -0.232   5.562 -0.9406  0.3704  0.2635
  185POPC   H8Y21253   7.196  -0.174   5.597  0.0646  0.9534 -1.2454
  185POPC   C3921254   7.062  -0.018   5.542 -0.5899 -0.6763 -0.0026
  185POPC   H9X21255   7.114   0.059   5.603 -0.0883  0.2224 -1.5110
  185POPC   H9Y21256   6.953   0.007   5.545 -0.9910 -2.2507 -0.2866
  185POPC  C31021257   7.103  -0.027   5.397 -0.6312  0.4684 -0.3496
  185POPC  H10X21258   7.184  -0.103   5.392 -2.0566 -1.2519  1.4212
  185POPC  H10Y21259   7.147   0.071   5.366 -0.8553  0.6158 -0.2066
  185POPC  C31121260   6.997  -0.059   5.295  0.7187  0.5898  0.3357
  185POPC  H11X21261   6.933  -0.142   5.333 -0.5293  1.3157 -0.1083
  185POPC  H11Y21262   7.053  -0.099   5.208 -1.6060 -1.5079 -0.3240
  185POPC  C31221263   6.913   0.056   5.253  0.2960 -0.7354 -0.0223
  185POPC  H12X21264   6.971   0.140   5.209 -0.7193 -0.8293 -1.6201
  185POPC  H12Y21265   6.868   0.099   5.344  0.5725 -0.0201 -0.2200
  185POPC  C31321266   6.800   0.037   5.148 -0.1888 -0.0378 -0.1760
  185POPC  H13X21267   6.738   0.129   5.157  0.5331  0.5987 -1.4042
  185POPC  H13Y21268   6.737  -0.051   5.169  1.4379 -1.1730  0.1316
  185POPC  C31421269   6.856   0.010   5.006  0.0345 -0.2915  0.6106
  185POPC  H14X21270   6.917  -0.083   5.005  0.0287 -0.3419  2.3489
  185POPC  H14Y21271   6.932   0.085   4.974  0.5194  0.0288  2.4234
  185POPC  C31521272   6.741   0.002   4.902  0.1848  0.6056  0.9285
  185POPC  H15X21273   6.702   0.104   4.881 -0.9030  0.0476  0.1263
  185POPC  H15Y21274   6.663  -0.057   4.954  1.1322 -1.3367  0.2527
  185POPC  C31621275   6.775  -0.068   4.773 -0.3130 -0.0220 -0.0140
  185POPC  H16X21276   6.827  -0.162   4.802 -1.1922 -0.5609 -0.1627
  185POPC  H16Y21277   6.839  -0.009   4.704 -1.5695 -0.5312 -1.6812
  185POPC  H16Z21278   6.686  -0.104   4.717  0.2354  1.2500 -1.8338
  186POPC     N21279   3.173   6.376   7.354 -0.5351 -0.0012  0.0425
  186POPC   C1221280   3.190   6.431   7.215 -0.3276  0.5329  0.9222
  186POPC  H12A21281   3.294   6.459   7.211 -0.6187  1.5663  0.2221
  186POPC  H12B21282   3.144   6.529   7.210 -1.3866  0.1470  2.4189
  186POPC   C1321283   3.213   6.472   7.451 -0.3478  0.1794  0.7180
  186POPC  H13A21284   3.239   6.437   7.550  1.1048  0.3041  0.4156
  186POPC  H13B21285   3.312   6.509   7.426  0.0194  0.4587  2.4430
  186POPC  H13C21286   3.151   6.560   7.448  0.1836  0.5303 -1.1745
  186POPC   C1421287   3.032   6.356   7.392  0.2619 -0.1837  0.6789
  186POPC  H14A21288   2.980   6.273   7.346 -0.5440 -0.5350  2.1465
  186POPC  H14B21289   3.008   6.339   7.496 -1.0343 -0.9451  0.2824
  186POPC  H14C21290   2.974   6.442   7.362 -0.0894 -1.0821 -1.3889
  186POPC   C1521291   3.250   6.245   7.370  0.3614  0.2916  0.9123
  186POPC  H15A21292   3.213   6.175   7.297 -0.8665  0.2570  1.5433
  186POPC  H15B21293   3.232   6.203   7.467  0.5880  0.4820  1.0387
  186POPC  H15C21294   3.355   6.273   7.365  0.8452 -1.5597 -1.4058
  186POPC   C1121295   3.156   6.342   7.084  0.0639  0.2382  0.0563
  186POPC  H11A21296   3.227   6.257   7.084  1.8823  1.6806  0.4562
  186POPC  H11B21297   3.171   6.406   6.995 -2.2296  0.5353 -0.1648
  186POPC     P21298   2.965   6.174   7.032  0.0226 -0.2566 -0.4402
  186POPC   O1321299   2.821   6.162   7.064 -0.0704 -0.0600  0.3063
  186POPC   O1421300   3.046   6.059   7.079 -0.2550  0.2671  0.0297
  186POPC   O1221301   3.022   6.301   7.090 -0.1705  0.0685 -0.0961
  186POPC   O1121302   2.996   6.204   6.880  0.0569  0.2940  0.4339
  186POPC    C121303   2.942   6.308   6.792 -0.5603  0.0752  0.0902
  186POPC    HA21304   3.019   6.354   6.727 -1.9283  1.3538 -0.6768
  186POPC    HB21305   2.903   6.390   6.855  0.8452  1.3073 -0.5765
  186POPC    C221306   2.835   6.241   6.690 -0.0337  0.1362 -0.6405
  186POPC    HS21307   2.760   6.198   6.760  0.4246  1.4357  0.7129
  186POPC   O2121308   2.912   6.145   6.612  0.4206  0.1865  0.5265
  186POPC   C2121309   2.845   6.042   6.567 -0.6579  0.4508  0.0433
  186POPC   O2221310   2.732   6.015   6.598  0.0213 -0.7253  0.5622
  186POPC   C2221311   2.945   5.954   6.485  0.5799  0.9821  0.1666
  186POPC   H2R21312   2.961   5.869   6.555  0.5941  0.6322 -0.2563
  186POPC   H2S21313   3.040   6.011   6.476 -0.6000  2.6367 -3.7135
  186POPC    C321314   2.772   6.353   6.600 -0.8542  0.1145  0.1866
  186POPC    HX21315   2.857   6.401   6.547 -0.2864  0.4807  1.4048
  186POPC    HY21316   2.721   6.436   6.653  0.4206  0.9551  0.1206
  186POPC   O3121317   2.690   6.304   6.492 -0.2094  0.3365  0.2323
  186POPC   C3121318   2.565   6.295   6.523  0.2689  0.0800  0.6764
  186POPC   O3221319   2.507   6.306   6.631 -0.3028  0.1017  0.3579
  186POPC   C3221320   2.481   6.275   6.400 -0.5960 -0.4839 -0.0505
  186POPC   H2X21321   2.380   6.264   6.444 -0.6822 -1.1330 -0.3930
  186POPC   H2Y21322   2.516   6.176   6.362  1.2770 -0.7507  2.1384
  186POPC   C2321323   2.908   5.907   6.344 -0.5376  0.0508  0.0623
  186POPC   H3R21324   2.811   5.856   6.329 -0.6700  1.0498 -3.1136
  186POPC   H3S21325   2.980   5.829   6.313  0.0645  0.8296 -0.5444
  186POPC   C2421326   2.924   6.025   6.253 -0.0290 -0.2753 -0.3284
  186POPC   H4R21327   2.899   6.123   6.299 -0.2152 -0.1299 -0.7395
  186POPC   H4S21328   2.852   6.020   6.169  0.1528 -1.4279 -0.4354
  186POPC   C2521329   3.066   6.040   6.202  0.2721 -0.3124 -0.6021
  186POPC   H5R21330   3.123   5.946   6.219 -1.4359 -1.1449  0.9240
  186POPC   H5S21331   3.118   6.111   6.270  3.0323 -2.9087  0.2511
  186POPC   C2621332   3.077   6.073   6.054 -0.1259  0.0876 -0.3888
  186POPC   H6R21333   3.023   6.006   5.983  0.7418 -0.9277 -0.1140
  186POPC   H6S21334   3.178   6.053   6.013  0.2784 -0.7639  0.9778
  186POPC   C2721335   3.028   6.220   6.027 -0.0485 -0.1231 -0.2393
  186POPC   H7R21336   3.096   6.285   6.087 -0.3886 -0.5230  0.5920
  186POPC   H7S21337   2.925   6.234   6.066  0.1606  0.3150  0.1633
  186POPC   C2821338   3.067   6.276   5.890 -0.3233 -0.3230 -0.1549
  186POPC   H8R21339   3.177   6.260   5.890 -0.6180 -2.7806  0.5724
  186POPC   H8S21340   3.046   6.385   5.879 -0.4148 -0.5052 -2.2672
  186POPC   C2921341   2.996   6.205   5.780 -0.4577  0.2039  0.0262
  186POPC   H9121342   2.902   6.159   5.814 -0.5605  2.2772  2.9749
  186POPC  C21021343   3.047   6.161   5.661  0.4788  0.3273  0.2239
  186POPC  H10121344   2.980   6.116   5.587 -0.3838  0.5142  0.8814
  186POPC  C21121345   3.181   6.194   5.605 -0.1830  0.1493  0.1048
  186POPC  H11R21346   3.240   6.100   5.597 -1.3216 -0.7163  1.3442
  186POPC  H11S21347   3.241   6.256   5.675 -1.1604 -0.2191  1.3104
  186POPC  C21221348   3.182   6.264   5.470  0.4363 -0.3040  0.6271
  186POPC  H12R21349   3.118   6.355   5.457 -0.7319 -1.1682  0.1210
  186POPC  H12S21350   3.147   6.187   5.398  0.7493 -0.8968  1.1006
  186POPC  C21321351   3.325   6.304   5.413 -0.7558  0.2056 -0.7788
  186POPC  H13R21352   3.392   6.216   5.412  1.8342  1.9373  1.6145
  186POPC  H13S21353   3.363   6.386   5.478  2.1964  0.9358 -3.1909
  186POPC  C21421354   3.315   6.352   5.273 -0.1569  0.4324  0.3790
  186POPC  H14R21355   3.219   6.408   5.279 -1.1049 -1.2374  4.2828
  186POPC  H14S21356   3.303   6.266   5.204 -1.4727  0.6338  0.3283
  186POPC  C21521357   3.425   6.440   5.217  0.0338  0.0307  0.0846
  186POPC  H15R21358   3.522   6.392   5.244 -0.1625 -2.3825 -3.0295
  186POPC  H15S21359   3.424   6.539   5.268  0.1244  0.0022  0.1431
  186POPC  C21621360   3.419   6.473   5.067 -0.9593 -0.0320  1.2581
  186POPC  H16R21361   3.489   6.558   5.055 -3.3606  1.7197 -1.5864
  186POPC  H16S21362   3.321   6.515   5.036  0.7586  0.7343 -4.1987
  186POPC  C21721363   3.462   6.352   4.981  0.6804  0.0384  0.4247
  186POPC  H17R21364   3.425   6.259   5.029  4.2137 -1.0411  1.3566
  186POPC  H17S21365   3.573   6.354   4.988  0.8755  0.7639 -1.9421
  186POPC  C21821366   3.426   6.366   4.829  0.3450 -0.0110 -0.2518
  186POPC  H18R21367   3.481   6.456   4.796 -0.2223 -0.0518 -1.3591
  186POPC  H18S21368   3.316   6.380   4.819  0.6262  1.5623 -1.7125
  186POPC  H18T21369   3.468   6.290   4.759 -0.9060  0.9141 -2.1183
  186POPC   C3321370   2.496   6.387   6.298 -0.1181 -0.1593  0.3687
  186POPC   H3X21371   2.596   6.380   6.251 -1.6461  1.0388 -3.4626
  186POPC   H3Y21372   2.487   6.487   6.345  0.1871  0.3786 -0.6830
  186POPC   C3421373   2.390   6.384   6.190 -0.1052 -0.4182 -0.0085
  186POPC   H4X21374   2.336   6.481   6.196 -0.2615 -0.5488  0.9812
  186POPC   H4Y21375   2.315   6.304   6.212 -1.6569  0.8108 -0.6197
  186POPC   C3521376   2.450   6.378   6.048 -0.2705  0.0868  0.3949
  186POPC   H5X21377   2.511   6.469   6.031 -0.7877  0.5165  0.7855
  186POPC   H5Y21378   2.366   6.389   5.975 -0.0139 -0.5005  0.0055
  186POPC   C3621379   2.531   6.250   6.013 -0.7577  0.5963  0.0811
  186POPC   H6X21380   2.471   6.166   6.054 -0.0609  0.9650  1.9362
  186POPC   H6Y21381   2.633   6.248   6.056 -0.9020  0.0569  0.4108
  186POPC   C3721382   2.539   6.207   5.863 -0.3157  0.4421 -0.4917
  186POPC   H7X21383   2.439   6.210   5.815  0.3665 -1.1646 -2.1162
  186POPC   H7Y21384   2.584   6.106   5.858  2.4773  1.5059  1.2624
  186POPC   C3821385   2.619   6.313   5.785  0.6426  1.2737 -0.2589
  186POPC   H8X21386   2.722   6.310   5.827  0.2755 -0.0452  0.6350
  186POPC   H8Y21387   2.572   6.409   5.816  1.9534  1.5309  1.0293
  186POPC   C3921388   2.624   6.302   5.631  0.1858 -0.3353 -0.4418
  186POPC   H9X21389   2.518   6.308   5.598 -0.6035 -1.2972  1.7768
  186POPC   H9Y21390   2.663   6.200   5.614  0.5405 -0.3277  0.2906
  186POPC  C31021391   2.713   6.416   5.565  0.5254  0.4818 -0.9049
  186POPC  H10X21392   2.814   6.422   5.610  0.2278  2.3158 -0.3920
  186POPC  H10Y21393   2.667   6.513   5.595  2.2701  0.5788  1.8598
  186POPC  C31121394   2.741   6.408   5.413  0.7466 -0.5461  0.2586
  186POPC  H11X21395   2.764   6.511   5.379  1.1780 -1.1378 -1.3414
  186POPC  H11Y21396   2.642   6.388   5.367  1.2970 -3.5190  0.1821
  186POPC  C31221397   2.836   6.303   5.363 -0.1134 -0.1741 -0.0886
  186POPC  H12X21398   2.779   6.208   5.357  1.7286 -1.3262 -0.0900
  186POPC  H12Y21399   2.918   6.292   5.437  1.3754  1.6007 -1.3886
  186POPC  C31321400   2.894   6.342   5.233 -0.2519 -0.6986  0.3774
  186POPC  H13X21401   2.981   6.407   5.257  1.1673 -2.0630 -0.8252
  186POPC  H13Y21402   2.822   6.400   5.172  2.1819  2.4700  0.2261
  186POPC  C31421403   2.957   6.232   5.147  0.0586 -0.1325  0.0467
  186POPC  H14X21404   2.873   6.164   5.118 -0.3249 -0.1879  1.2522
  186POPC  H14Y21405   3.029   6.168   5.201 -0.0217 -0.1725  0.1050
  186POPC  C31521406   3.033   6.281   5.022  0.2341 -0.5702 -0.1469
  186POPC  H15X21407   3.120   6.342   5.054  0.5373 -0.2428 -1.5189
  186POPC  H15Y21408   2.966   6.345   4.962 -0.7342  1.1187  2.5379
  186POPC  C31621409   3.090   6.162   4.937 -0.2483 -0.5841  0.2800
  186POPC  H16X21410   3.182   6.183   4.879  0.4471 -1.8347  0.8809
  186POPC  H16Y21411   3.007   6.112   4.882  0.0247 -2.1043  1.1899
  186POPC  H16Z21412   3.129   6.086   5.008 -2.7202 -1.5944  0.6438
  187POPC     N21413   5.556   5.091   1.912 -0.0595  0.6126  0.3369
  187POPC   C1221414   5.559   5.083   2.058  0.2426  0.7782 -0.0498
  187POPC  H12A21415   5.661   5.068   2.090  0.4120 -0.4844 -1.0582
  187POPC  H12B21416   5.499   4.996   2.083  1.9773 -0.8533 -1.3126
  187POPC   C1321417   5.612   4.970   1.848  0.5574 -0.1789  0.0947
  187POPC  H13A21418   5.629   4.989   1.743  2.6174  0.6460  0.5130
  187POPC  H13B21419   5.712   4.957   1.889  0.6137 -0.0751 -0.0124
  187POPC  H13C21420   5.536   4.893   1.849 -1.2693  1.5407 -0.6970
  187POPC   C1421421   5.417   5.104   1.866  0.2487  0.3094 -0.7625
  187POPC  H14A21422   5.370   5.183   1.922 -0.0106  0.7679 -1.6100
  187POPC  H14B21423   5.408   5.142   1.765 -1.6152 -1.4153 -1.2945
  187POPC  H14C21424   5.362   5.012   1.876  0.8837 -0.2094 -1.8333
  187POPC   C1521425   5.639   5.207   1.863  0.4704 -0.4631 -0.4702
  187POPC  H15A21426   5.595   5.302   1.888  0.1784 -0.8200  0.4034
  187POPC  H15B21427   5.647   5.189   1.757 -1.6216  0.2557 -0.7996
  187POPC  H15C21428   5.738   5.214   1.905  0.1336  1.8800  0.1038
  187POPC   C1121429   5.506   5.203   2.140  0.2864  0.0137  0.4756
  187POPC  H11A21430   5.545   5.297   2.096 -0.9684 -0.4878 -1.8959
  187POPC  H11B21431   5.558   5.189   2.237  0.9291 -0.3243  0.0944
  187POPC     P21432   5.268   5.143   2.241  0.4630 -0.1744  0.2705
  187POPC   O1321433   5.303   5.000   2.242 -0.3849 -0.5112 -0.0352
  187POPC   O1421434   5.127   5.179   2.212 -0.0874 -0.0441  0.1895
  187POPC   O1221435   5.368   5.215   2.143  0.3625 -0.2754 -0.1421
  187POPC   O1121436   5.296   5.206   2.384 -0.0525  0.0737 -0.1795
  187POPC    C121437   5.299   5.350   2.395 -0.2376 -0.8512  0.0177
  187POPC    HA21438   5.215   5.394   2.453  0.4189  0.2873  0.1423
  187POPC    HB21439   5.289   5.400   2.297  2.1432  0.0974  0.1791
  187POPC    C221440   5.424   5.392   2.461 -0.2654  0.8663 -0.1018
  187POPC    HS21441   5.508   5.321   2.442 -0.4431  0.4739  0.5556
  187POPC   O2121442   5.389   5.385   2.598 -0.4709 -0.9262 -0.2448
  187POPC   C2121443   5.463   5.314   2.679 -0.2884 -0.3232  0.1413
  187POPC   O2221444   5.567   5.257   2.655 -0.1844  0.0792  0.4257
  187POPC   C2221445   5.412   5.315   2.823  0.4402  0.1264  0.3646
  187POPC   H2R21446   5.305   5.287   2.815  1.2931 -3.0481 -2.7594
  187POPC   H2S21447   5.413   5.420   2.859  0.7777  0.7244 -1.3093
  187POPC    C321448   5.469   5.540   2.417  0.8361  0.6176 -0.2535
  187POPC    HX21449   5.373   5.595   2.425 -0.0269 -1.1194  2.6669
  187POPC    HY21450   5.499   5.551   2.310 -1.7112 -0.6211 -1.1831
  187POPC   O3121451   5.561   5.594   2.517  0.1982  0.5551 -0.3978
  187POPC   C3121452   5.568   5.724   2.511 -0.3146 -0.2985  0.2397
  187POPC   O3221453   5.511   5.791   2.430  0.2125  0.3103  0.0753
  187POPC   C3221454   5.647   5.780   2.619 -0.3749 -0.7729 -1.1142
  187POPC   H2X21455   5.716   5.851   2.569 -0.0654 -1.6087 -1.8963
  187POPC   H2Y21456   5.710   5.699   2.660  0.6958 -0.1615 -1.5296
  187POPC   C2321457   5.492   5.225   2.922  0.0192 -0.7408 -0.9809
  187POPC   H3R21458   5.599   5.230   2.894  0.3037 -0.8972  0.0398
  187POPC   H3S21459   5.457   5.120   2.911 -2.8093  0.0031  0.2012
  187POPC   C2421460   5.481   5.257   3.072  0.0277  0.6243 -0.7031
  187POPC   H4R21461   5.522   5.357   3.096 -3.7281  2.2375 -0.2440
  187POPC   H4S21462   5.549   5.186   3.123  2.2143  3.2185  0.2256
  187POPC   C2521463   5.341   5.256   3.131  0.0130  0.5185  0.6777
  187POPC   H5R21464   5.300   5.154   3.115  0.8076  0.3229 -0.1970
  187POPC   H5S21465   5.277   5.331   3.080 -0.6529 -0.0268  0.7013
  187POPC   C2621466   5.344   5.277   3.286  0.1226  0.1474  0.1425
  187POPC   H6R21467   5.389   5.376   3.305 -0.2453  0.3314  0.0588
  187POPC   H6S21468   5.407   5.191   3.317  1.7294  0.6127 -1.6062
  187POPC   C2721469   5.205   5.257   3.345 -0.0849  0.0761  0.2290
  187POPC   H7R21470   5.166   5.156   3.320  2.0386 -0.7206 -0.0979
  187POPC   H7S21471   5.135   5.321   3.287 -1.5502  0.0154  1.8400
  187POPC   C2821472   5.194   5.268   3.499  0.0519  0.2566  0.8960
  187POPC   H8R21473   5.271   5.193   3.530 -0.0242  0.6215  2.0349
  187POPC   H8S21474   5.096   5.227   3.533  0.3551  0.9291  2.6834
  187POPC   C2921475   5.220   5.398   3.566 -0.9355  0.0868  0.2706
  187POPC   H9121476   5.296   5.457   3.513 -1.4719  1.1636  0.6660
  187POPC  C21021477   5.166   5.440   3.681 -0.1219  0.2118  1.6220
  187POPC  H10121478   5.206   5.536   3.717 -3.1259  2.3519 -0.2780
  187POPC  C21121479   5.079   5.360   3.773  0.2529 -0.4503 -0.4334
  187POPC  H11R21480   5.121   5.257   3.782  0.2722 -0.3559  0.7611
  187POPC  H11S21481   4.976   5.353   3.733  0.2124 -1.0569 -0.2304
  187POPC  C21221482   5.072   5.411   3.911  0.2225 -0.2563 -1.1159
  187POPC  H12R21483   4.989   5.486   3.912  0.3595 -0.0186  1.8269
  187POPC  H12S21484   5.167   5.462   3.938 -0.6849  1.2401 -0.6326
  187POPC  C21321485   5.039   5.306   4.018  0.0694 -0.0727 -0.1168
  187POPC  H13R21486   5.104   5.217   4.012  2.7722  1.8689 -2.8964
  187POPC  H13S21487   4.935   5.268   4.005 -0.2946  0.9129 -0.2094
  187POPC  C21421488   5.032   5.370   4.157 -0.5799  0.0821  0.5279
  187POPC  H14R21489   4.941   5.431   4.173  0.7705  2.2713  0.2872
  187POPC  H14S21490   5.117   5.440   4.168 -0.1110 -0.8744  5.0978
  187POPC  C21521491   5.032   5.266   4.274  0.2967 -0.5526  0.0615
  187POPC  H15R21492   5.119   5.201   4.252  3.3135  2.3520  2.3548
  187POPC  H15S21493   4.941   5.205   4.260  0.0204 -0.0228 -0.4842
  187POPC  C21621494   5.053   5.318   4.414 -0.7555 -0.6547 -0.6912
  187POPC  H16R21495   5.139   5.388   4.413 -0.6863 -0.7343 -1.7255
  187POPC  H16S21496   5.071   5.235   4.485 -1.2135  1.2366  1.7579
  187POPC  C21721497   4.929   5.384   4.478  0.0589 -0.4061 -0.2232
  187POPC  H17R21498   4.834   5.330   4.456 -0.7254  0.4289  0.9820
  187POPC  H17S21499   4.913   5.488   4.443  0.0543 -0.2156  0.3362
  187POPC  C21821500   4.956   5.382   4.628  0.5044  0.1501  0.6099
  187POPC  H18R21501   5.021   5.468   4.655  0.7280  0.3855 -0.6387
  187POPC  H18S21502   4.998   5.286   4.664 -1.4644 -1.6599 -1.6492
  187POPC  H18T21503   4.863   5.406   4.684  2.3639 -0.0173  4.0714
  187POPC   C3321504   5.558   5.864   2.713  0.0398  0.0910 -0.0929
  187POPC   H3X21505   5.481   5.801   2.763 -1.5030  1.0750 -1.1503
  187POPC   H3Y21506   5.503   5.952   2.673 -0.8614  0.1742  1.2499
  187POPC   C3421507   5.646   5.918   2.823  0.2080 -0.2985 -0.4420
  187POPC   H4X21508   5.738   5.967   2.785  1.2600 -1.7231  0.1781
  187POPC   H4Y21509   5.678   5.823   2.870  0.7580 -0.0909 -0.3962
  187POPC   C3521510   5.562   5.990   2.919  0.2464 -0.2196 -0.8038
  187POPC   H5X21511   5.464   5.938   2.933  0.0287  0.3344 -0.2128
  187POPC   H5Y21512   5.538   6.084   2.864 -1.1037 -0.6201 -0.9426
  187POPC   C3621513   5.619   6.021   3.061  0.1566  0.1826 -0.5605
  187POPC   H6X21514   5.718   6.071   3.051 -1.4479  3.5541 -1.3016
  187POPC   H6Y21515   5.642   5.924   3.108  1.8066  0.4998 -0.6617
  187POPC   C3721516   5.526   6.113   3.148 -0.1568  0.3055  0.5062
  187POPC   H7X21517   5.422   6.074   3.150 -0.2446  0.5441  0.6761
  187POPC   H7Y21518   5.503   6.205   3.091 -1.1659 -0.3883 -0.2430
  187POPC   C3821519   5.581   6.132   3.287  0.7196 -0.3672  0.5166
  187POPC   H8X21520   5.683   6.172   3.268  0.1447  0.6217 -0.5940
  187POPC   H8Y21521   5.587   6.036   3.343  1.0096 -0.8975 -0.4042
  187POPC   C3921522   5.507   6.240   3.368 -0.1672  0.0898 -0.6626
  187POPC   H9X21523   5.413   6.193   3.405 -0.3789 -1.2826 -2.7906
  187POPC   H9Y21524   5.482   6.326   3.302 -0.0717  3.5406  3.3530
  187POPC  C31021525   5.609   6.292   3.473 -0.3105  0.8243 -0.1205
  187POPC  H10X21526   5.675   6.370   3.429 -1.3452  1.1846 -1.0782
  187POPC  H10Y21527   5.676   6.209   3.504 -0.9990  0.6249  0.8862
  187POPC  C31121528   5.540   6.359   3.597 -0.1559 -0.3333 -0.5777
  187POPC  H11X21529   5.462   6.431   3.566  1.4295  0.5679 -2.7389
  187POPC  H11Y21530   5.627   6.406   3.647 -1.3230  0.3578  0.8711
  187POPC  C31221531   5.468   6.253   3.683  0.6952  0.1893  0.0736
  187POPC  H12X21532   5.530   6.161   3.676  2.4220  1.4413 -2.9754
  187POPC  H12Y21533   5.376   6.229   3.625  0.4715 -0.2460  0.6063
  187POPC  C31321534   5.428   6.293   3.833 -0.4585 -0.2347  1.0978
  187POPC  H13X21535   5.384   6.395   3.829  0.1560  0.0028 -2.3476
  187POPC  H13Y21536   5.530   6.281   3.878  0.9877 -2.5532 -2.3858
  187POPC  C31421537   5.324   6.193   3.897 -0.0426  0.1859  1.0055
  187POPC  H14X21538   5.358   6.089   3.882  2.5844  1.1884 -0.6601
  187POPC  H14Y21539   5.230   6.213   3.840  1.0743  2.1699 -0.2674
  187POPC  C31521540   5.290   6.222   4.051 -0.1118  0.2696  0.0519
  187POPC  H15X21541   5.228   6.314   4.054  0.1718  0.5259 -1.2980
  187POPC  H15Y21542   5.385   6.242   4.104 -0.8743 -1.2705  2.1468
  187POPC  C31621543   5.223   6.109   4.128  0.5666  0.6441 -0.1583
  187POPC  H16X21544   5.273   6.012   4.110  2.1502  1.1845  1.1038
  187POPC  H16Y21545   5.117   6.094   4.098  0.2193  0.5041  1.0948
  187POPC  H16Z21546   5.211   6.120   4.238 -1.3689  1.0415 -0.3703
  188POPC     N21547   6.020   4.644   1.949  0.0086 -0.4304 -0.2302
  188POPC   C1221548   5.870   4.644   1.967  0.2932  0.3728 -0.9113
  188POPC  H12A21549   5.829   4.612   1.872  1.5323 -0.9512 -1.0422
  188POPC  H12B21550   5.833   4.743   1.990 -0.6294 -0.2385  0.3570
  188POPC   C1321551   6.062   4.510   1.898  0.3455 -0.4339 -0.2081
  188POPC  H13A21552   5.993   4.481   1.819 -1.4752  1.7461  0.4637
  188POPC  H13B21553   6.150   4.528   1.838  0.9439  1.1321  1.0682
  188POPC  H13C21554   6.086   4.433   1.969  0.3780 -0.3374 -0.1133
  188POPC   C1421555   6.058   4.751   1.850  0.1222  0.4760  0.2332
  188POPC  H14A21556   6.163   4.773   1.836  0.3592 -1.5300 -1.7445
  188POPC  H14B21557   5.999   4.729   1.762  0.6398 -3.3407  0.6801
  188POPC  H14C21558   6.019   4.846   1.883  0.0343  0.0900  1.2505
  188POPC   C1521559   6.098   4.673   2.075  0.0079  0.4252  0.1339
  188POPC  H15A21560   6.078   4.598   2.150 -0.0457 -0.4486 -0.7319
  188POPC  H15B21561   6.064   4.769   2.112  0.5301  1.2344 -1.4106
  188POPC  H15C21562   6.201   4.673   2.043 -0.3543  0.1820 -1.1068
  188POPC   C1121563   5.820   4.544   2.078  0.1820 -0.1853  0.2162
  188POPC  H11A21564   5.861   4.581   2.174  1.4471  2.4745 -1.2313
  188POPC  H11B21565   5.852   4.440   2.053 -0.9411 -0.5388  0.2043
  188POPC     P21566   5.585   4.667   2.120  0.3563  0.2255  0.0549
  188POPC   O1321567   5.532   4.727   1.996  0.0987  0.9587  0.6492
  188POPC   O1421568   5.657   4.753   2.212  0.4488  0.1586  0.3628
  188POPC   O1221569   5.682   4.557   2.077  0.2826  0.2396 -0.5630
  188POPC   O1121570   5.466   4.589   2.204 -0.3334 -0.3061  0.2111
  188POPC    C121571   5.512   4.473   2.279  0.9255  0.7481  0.0465
  188POPC    HA21572   5.621   4.458   2.294  0.7219  0.0146  0.8530
  188POPC    HB21573   5.475   4.379   2.234 -1.5325  1.3529  0.6124
  188POPC    C221574   5.462   4.480   2.428  0.2611  0.0236 -0.3343
  188POPC    HS21575   5.511   4.413   2.502 -2.5348 -1.5294  0.2694
  188POPC   O2121576   5.318   4.458   2.434  0.1774 -0.3334  0.4836
  188POPC   C2121577   5.283   4.331   2.430 -0.4955  0.4900  0.2791
  188POPC   O2221578   5.358   4.235   2.430  0.3317  0.0885 -0.5636
  188POPC   C2221579   5.136   4.326   2.423  0.0105 -0.7544 -0.8764
  188POPC   H2R21580   5.100   4.221   2.417 -1.2048 -0.3866 -0.3992
  188POPC   H2S21581   5.111   4.373   2.325  0.1855 -0.9992 -1.0400
  188POPC    C321582   5.486   4.621   2.477  0.8786  0.4040  0.4376
  188POPC    HX21583   5.429   4.701   2.424 -1.8006  0.5986  3.3581
  188POPC    HY21584   5.593   4.642   2.452  1.3327 -1.2395  0.8934
  188POPC   O3121585   5.473   4.629   2.618 -0.1829  0.1433  0.3829
  188POPC   C3121586   5.362   4.707   2.657  0.6363  0.4053 -0.0438
  188POPC   O3221587   5.279   4.745   2.579  0.4588 -0.1076 -0.2533
  188POPC   C3221588   5.368   4.724   2.807 -0.4090 -0.1013  0.2547
  188POPC   H2X21589   5.474   4.727   2.839 -0.1506  0.0401 -0.5865
  188POPC   H2Y21590   5.316   4.636   2.850  1.1740 -2.1889 -1.8596
  188POPC   C2321591   5.079   4.407   2.545 -0.3064 -0.3668  0.4685
  188POPC   H3R21592   5.101   4.512   2.519  0.0682 -0.1979  1.4179
  188POPC   H3S21593   5.131   4.375   2.638  0.3992 -3.4362 -0.8453
  188POPC   C2421594   4.929   4.377   2.564 -0.1807 -0.7027  0.0734
  188POPC   H4R21595   4.923   4.266   2.570 -0.5155 -0.6216  1.6192
  188POPC   H4S21596   4.876   4.408   2.471 -0.9733 -0.2624  0.6598
  188POPC   C2521597   4.843   4.440   2.675 -0.4509 -0.4037 -0.5713
  188POPC   H5R21598   4.738   4.410   2.659 -0.5253  0.8792 -3.1557
  188POPC   H5S21599   4.852   4.549   2.654  0.1393 -0.0067  1.5271
  188POPC   C2621600   4.886   4.403   2.817  0.7055 -0.1073  0.2668
  188POPC   H6R21601   4.899   4.293   2.825  1.0271 -0.1783 -1.0389
  188POPC   H6S21602   4.804   4.423   2.890  0.9256  0.3333  0.3940
  188POPC   C2721603   5.003   4.473   2.882  0.4318 -0.1678  0.4355
  188POPC   H7R21604   4.998   4.579   2.851 -0.0063 -0.4208 -0.3932
  188POPC   H7S21605   5.091   4.434   2.827  0.8373 -1.6130  2.0213
  188POPC   C2821606   5.009   4.446   3.033  0.2786 -0.0336 -0.4571
  188POPC   H8R21607   5.113   4.466   3.066  0.5218 -0.5955 -0.8695
  188POPC   H8S21608   4.995   4.340   3.060  0.1565  0.5638  2.0647
  188POPC   C2921609   4.918   4.530   3.115 -0.3646  0.4681  0.0965
  188POPC   H9121610   4.853   4.602   3.063 -1.4092  0.2121  1.0111
  188POPC  C21021611   4.894   4.524   3.246  1.2065  0.2344 -0.2243
  188POPC  H10121612   4.838   4.602   3.300 -1.6195 -0.9219 -1.2491
  188POPC  C21121613   4.969   4.435   3.337 -0.8508  0.4396 -1.1009
  188POPC  H11R21614   4.989   4.334   3.294 -1.3702 -0.1021 -0.1055
  188POPC  H11S21615   4.900   4.411   3.421 -0.0797 -1.3605 -0.9311
  188POPC  C21221616   5.099   4.504   3.392 -0.3210 -0.2602  0.5657
  188POPC  H12R21617   5.075   4.588   3.460 -4.0128  0.8490 -1.7928
  188POPC  H12S21618   5.147   4.552   3.304 -0.7602  0.7733  0.8731
  188POPC  C21321619   5.187   4.409   3.469  0.0032  0.0642 -0.7316
  188POPC  H13R21620   5.285   4.462   3.478 -0.1235  0.0346  1.0681
  188POPC  H13S21621   5.216   4.318   3.413  0.7427  0.3184 -0.7790
  188POPC  C21421622   5.143   4.374   3.611 -0.4721 -0.1817  0.6684
  188POPC  H14R21623   5.043   4.326   3.599 -1.9883  2.8827  0.1306
  188POPC  H14S21624   5.120   4.467   3.667 -0.1403  1.7969 -2.2744
  188POPC  C21521625   5.257   4.299   3.677  0.1468 -0.3752 -0.2614
  188POPC  H15R21626   5.356   4.320   3.630  0.9872 -2.9216  0.2233
  188POPC  H15S21627   5.236   4.192   3.654 -0.3332 -0.5912  1.1114
  188POPC  C21621628   5.260   4.310   3.827  0.0710  0.6965 -0.2346
  188POPC  H16R21629   5.163   4.267   3.861  0.5276 -0.8092 -0.7280
  188POPC  H16S21630   5.269   4.416   3.858 -0.0421  0.4367  0.7187
  188POPC  C21721631   5.372   4.227   3.890  0.5186  0.1198 -0.0858
  188POPC  H17R21632   5.468   4.275   3.863  1.2518 -0.6540  1.0338
  188POPC  H17S21633   5.377   4.127   3.842 -1.0853 -0.0738  0.0882
  188POPC  C21821634   5.365   4.214   4.041  0.5536  0.8474 -0.4196
  188POPC  H18R21635   5.453   4.161   4.084 -2.4541 -3.1467  1.4608
  188POPC  H18S21636   5.272   4.159   4.067  0.2466  0.9843 -1.1972
  188POPC  H18T21637   5.345   4.315   4.083 -1.4106 -0.2288  1.4793
  188POPC   C3321638   5.316   4.856   2.850 -0.7072 -0.5577 -0.5685
  188POPC   H3X21639   5.213   4.873   2.814 -0.0769  2.6135 -1.2451
  188POPC   H3Y21640   5.372   4.932   2.791  1.7294 -2.6606 -1.1504
  188POPC   C3421641   5.331   4.870   3.002  0.0308  0.2093 -0.5838
  188POPC   H4X21642   5.344   4.979   3.017  1.8110 -0.2176  1.3116
  188POPC   H4Y21643   5.427   4.824   3.034  1.2534  3.5673  1.0063
  188POPC   C3521644   5.210   4.818   3.078 -0.5787  0.7737  0.2890
  188POPC   H5X21645   5.195   4.709   3.059 -0.5926  1.2151 -2.6727
  188POPC   H5Y21646   5.125   4.871   3.031 -0.8965  0.3705  0.3931
  188POPC   C3621647   5.225   4.843   3.224 -0.0537 -0.5444 -0.2799
  188POPC   H6X21648   5.290   4.928   3.254 -1.3932  0.1224  0.8640
  188POPC   H6Y21649   5.262   4.752   3.276  1.9284  1.0105  1.2150
  188POPC   C3721650   5.096   4.861   3.298  0.3213  0.3879 -0.1733
  188POPC   H7X21651   5.027   4.781   3.264  1.6026 -2.0251  2.5043
  188POPC   H7Y21652   5.033   4.946   3.263 -2.6251 -0.5706  2.2708
  188POPC   C3821653   5.100   4.863   3.451  0.0943 -0.3711 -0.0025
  188POPC   H8X21654   5.159   4.952   3.480  0.5570  0.2793 -2.7015
  188POPC   H8Y21655   5.159   4.775   3.485  0.6028 -0.6025 -1.4027
  188POPC   C3921656   4.955   4.860   3.517 -0.0396  0.1637  0.1029
  188POPC   H9X21657   4.904   4.768   3.480  1.5384 -0.1497 -1.4241
  188POPC   H9Y21658   4.892   4.943   3.482 -2.6313 -1.2014  1.2526
  188POPC  C31021659   4.965   4.867   3.666 -0.8376 -0.1888  0.0432
  188POPC  H10X21660   4.862   4.856   3.708 -0.6404 -1.4039  0.2670
  188POPC  H10Y21661   5.009   4.963   3.698  1.5264  0.4464 -4.3238
  188POPC  C31121662   5.041   4.754   3.728  0.0922  0.0867  0.0464
  188POPC  H11X21663   5.151   4.768   3.717 -0.0963  1.8138 -0.0244
  188POPC  H11Y21664   5.009   4.659   3.681 -1.0168  0.4061  0.1325
  188POPC  C31221665   5.003   4.743   3.881  0.0708  0.9207 -0.2854
  188POPC  H12X21666   4.964   4.842   3.912  0.9998  1.0694  0.4660
  188POPC  H12Y21667   5.096   4.721   3.937  0.1787  1.3138 -0.3090
  188POPC  C31321668   4.903   4.636   3.906 -0.3693  0.4085  0.4178
  188POPC  H13X21669   4.965   4.543   3.905  1.0188  1.1428  3.7471
  188POPC  H13Y21670   4.823   4.647   3.830 -0.9757  1.4524  1.1902
  188POPC  C31421671   4.855   4.638   4.049 -0.0983  0.7034  0.2552
  188POPC  H14X21672   4.785   4.725   4.056 -0.6519  0.1421  2.6562
  188POPC  H14Y21673   4.926   4.660   4.131 -0.3962  1.4565  0.3283
  188POPC  C31521674   4.778   4.511   4.068 -1.0603  0.1480 -0.3379
  188POPC  H15X21675   4.846   4.423   4.058  1.5013  2.1237 -1.1895
  188POPC  H15Y21676   4.701   4.498   3.989 -0.6118 -0.1318 -0.7320
  188POPC  C31621677   4.705   4.500   4.198  0.1273 -0.3609 -0.2546
  188POPC  H16X21678   4.609   4.556   4.206  0.8385  0.9778 -0.7158
  188POPC  H16Y21679   4.773   4.529   4.281 -0.5287 -0.8133  0.4679
  188POPC  H16Z21680   4.677   4.394   4.216 -2.9970  0.5027  0.7134
  189SAPI   C1221681   1.090   0.720   6.987 -0.9023 -0.2803 -0.3931
  189SAPI    H221682   1.146   0.668   7.068 -0.4376  0.2760 -0.3460
  189SAPI    O221683   0.980   0.795   7.053 -0.4011  0.3818 -0.5116
  189SAPI   HO221684   0.929   0.731   7.102  0.1411  1.4651  1.6264
  189SAPI   C1321685   1.192   0.811   6.929 -0.3173 -0.0736  0.0514
  189SAPI    H321686   1.273   0.749   6.884  1.0688  0.8339  1.1828
  189SAPI    O321687   1.258   0.887   7.030 -0.7844  0.2204 -0.3473
  189SAPI   HO321688   1.190   0.904   7.095 -0.6441 -0.0146 -0.1382
  189SAPI   C1421689   1.124   0.895   6.829  0.1036 -0.1156 -0.1862
  189SAPI    H421690   1.072   0.961   6.901  3.8293  2.1513  0.7055
  189SAPI    O421691   1.204   0.981   6.749  0.1567  0.6412 -0.1396
  189SAPI   HO421692   1.272   0.933   6.701  0.2962  1.2946 -0.6089
  189SAPI   C1521693   1.016   0.834   6.741  0.0013  0.6703 -0.3216
  189SAPI    H521694   1.055   0.803   6.642  1.8100  1.3507  0.1416
  189SAPI    O521695   0.912   0.926   6.693 -0.4540  0.0887 -0.3607
  189SAPI   HO521696   0.929   0.952   6.602  0.1792  1.0959  0.0234
  189SAPI   C1621697   0.960   0.699   6.780  0.3651 -0.4811 -0.2955
  189SAPI    H621698   0.866   0.721   6.834 -0.1858 -2.2628 -0.4607
  189SAPI    O621699   0.929   0.615   6.673 -0.0158 -0.0327  0.3801
  189SAPI   HO621700   0.897   0.533   6.711  1.3160 -0.5095  0.5101
  189SAPI   C1121701   1.038   0.624   6.883  0.3625  0.3052 -0.4879
  189SAPI    H121702   1.118   0.572   6.826  1.0745  0.0814  0.6798
  189SAPI     P21703   0.957   0.376   6.915 -0.0380  0.1490  0.1702
  189SAPI   O1321704   0.877   0.309   7.024  0.1166 -0.4847  0.1129
  189SAPI   O1421705   1.097   0.332   6.894  0.0325 -0.7374 -0.0838
  189SAPI   O1221706   0.960   0.529   6.960  0.7502 -0.3247 -0.1946
  189SAPI   O1121707   0.879   0.375   6.778  0.0319 -0.0144 -0.3196
  189SAPI    C121708   0.766   0.297   6.747  0.7586 -0.0748 -0.3731
  189SAPI    HA21709   0.737   0.227   6.829 -2.6421 -0.3453 -1.6451
  189SAPI    HB21710   0.673   0.354   6.728 -0.4714 -1.7117  0.4240
  189SAPI    C221711   0.781   0.215   6.613 -0.0663 -0.1153 -0.3796
  189SAPI    HS21712   0.685   0.158   6.607  0.0361 -0.2457 -0.8545
  189SAPI   O2121713   0.896   0.128   6.620  0.1583  0.6677 -0.6565
  189SAPI   C2121714   0.882   0.013   6.541  0.1512  1.0021  0.1727
  189SAPI   O2221715   0.784  -0.034   6.486  0.7074 -0.4758  0.3958
  189SAPI   C2221716   1.007  -0.062   6.554  0.3200  0.0851  0.0800
  189SAPI   H2R21717   1.094   0.006   6.539 -0.9535  2.0443  1.1113
  189SAPI   H2S21718   1.008  -0.101   6.658 -2.3999  0.1095  0.1757
  189SAPI    C321719   0.795   0.306   6.490  0.8410  0.5075 -0.5001
  189SAPI    HX21720   0.892   0.361   6.491  1.6505 -0.8664 -0.5021
  189SAPI    HY21721   0.722   0.388   6.500 -0.5519 -1.0142  3.5451
  189SAPI   O3121722   0.777   0.234   6.367  0.5332  0.6514  0.1005
  189SAPI   C3121723   0.652   0.204   6.322 -0.1939 -0.1193  0.0232
  189SAPI   O3221724   0.552   0.227   6.386 -0.4600  0.5528  0.1540
  189SAPI   C3221725   0.658   0.133   6.189  0.6627 -0.1108  0.3422
  189SAPI   H2X21726   0.575   0.059   6.185 -0.3099  0.9778 -0.2971
  189SAPI   H2Y21727   0.755   0.079   6.187  0.5757 -0.2781 -2.2286
  189SAPI   C2321728   1.014  -0.188   6.465  0.1727 -0.1540 -0.1868
  189SAPI   H3R21729   1.000  -0.157   6.359 -1.0973  0.1352  0.0446
  189SAPI   H3S21730   0.924  -0.245   6.496 -1.2909  2.5485  0.9312
  189SAPI   C2421731   1.145  -0.262   6.484 -0.0772 -0.1988 -0.0083
  189SAPI   H4R21732   1.155  -0.283   6.592 -0.1865 -1.1530 -0.1755
  189SAPI   H4S21733   1.225  -0.186   6.470 -1.3811  1.2620  0.2400
  189SAPI   C2521734   1.158  -0.397   6.416 -0.8431 -0.7050 -0.2653
  189SAPI   H5R21735   1.094  -0.473   6.462  2.4636 -1.6945  3.1787
  189SAPI   C2621736   1.242  -0.422   6.315 -0.2216  0.6911 -0.1613
  189SAPI   H6R21737   1.242  -0.519   6.263 -1.0020 -0.4015  1.7602
  189SAPI   C2721738   1.317  -0.319   6.243 -0.3091 -0.0501  0.5918
  189SAPI   H7R21739   1.390  -0.275   6.315 -0.1596 -0.3914  0.6515
  189SAPI   H7S21740   1.253  -0.232   6.216  1.2259  0.2827 -2.4384
  189SAPI   C2821741   1.401  -0.375   6.127  0.2015  0.2017  0.6560
  189SAPI   H8R21742   1.494  -0.427   6.151 -0.7533 -2.0990 -0.3686
  189SAPI   C2921743   1.362  -0.369   6.000  0.6213  0.1544  0.5923
  189SAPI   H9R21744   1.408  -0.422   5.915 -0.5188 -0.5703  0.4083
  189SAPI  C21021745   1.249  -0.290   5.951  0.3807 -0.5778 -0.4142
  189SAPI  H10R21746   1.228  -0.208   6.024  0.1407 -0.0517 -1.0673
  189SAPI  H10S21747   1.165  -0.361   5.968  1.4608 -1.5206  1.2456
  189SAPI  C21121748   1.261  -0.233   5.813 -0.7877 -0.0686 -0.9243
  189SAPI  H11R21749   1.294  -0.128   5.810  2.8317 -1.0243  0.5405
  189SAPI  C21221750   1.242  -0.309   5.704  0.5871  0.2456 -0.1303
  189SAPI  H12R21751   1.257  -0.261   5.606 -1.2940 -0.2889 -0.7234
  189SAPI  C21321752   1.219  -0.460   5.713 -0.0091  0.5445 -0.7177
  189SAPI  H13R21753   1.213  -0.500   5.817  0.6915 -0.4744 -1.0476
  189SAPI  H13S21754   1.317  -0.502   5.680  0.1955 -0.2836  0.8526
  189SAPI  C21421755   1.111  -0.511   5.620  0.1215  0.5436  0.5286
  189SAPI  H14R21756   1.139  -0.520   5.514 -0.6216  0.6632  0.3171
  189SAPI  C21521757   0.982  -0.533   5.651 -0.1808 -0.1347  0.3959
  189SAPI  H15R21758   0.903  -0.548   5.576 -0.1521 -0.9399  0.5157
  189SAPI  C21621759   0.938  -0.520   5.792  0.1024  0.0785 -0.8538
  189SAPI  H16R21760   0.838  -0.473   5.802 -0.0220 -0.3467  0.0984
  189SAPI  H16S21761   0.998  -0.447   5.850 -2.2488  0.2457  1.5632
  189SAPI  C21721762   0.939  -0.654   5.867  0.2773 -0.0953 -0.0115
  189SAPI  H17R21763   1.043  -0.692   5.863  0.4905  0.5058 -0.2911
  189SAPI  H17S21764   0.868  -0.734   5.836  0.1240 -0.2383  0.6762
  189SAPI  C21821765   0.920  -0.646   6.019  0.2696  0.2992 -0.5919
  189SAPI  H18R21766   0.811  -0.642   6.043  0.3210  0.6904 -0.4108
  189SAPI  H18S21767   0.958  -0.544   6.043  0.6729  0.5506 -2.2141
  189SAPI  C21921768   0.992  -0.757   6.102  0.2485  0.3935  0.0814
  189SAPI  H19R21769   0.972  -0.733   6.208  0.3735  1.5252 -0.1423
  189SAPI  H19S21770   1.101  -0.744   6.090  0.3379  1.1352  1.4732
  189SAPI  C22021771   0.939  -0.897   6.062 -0.2998 -0.0151  0.1121
  189SAPI  H20R21772   0.828  -0.902   6.061 -0.5738  3.0293 -2.7001
  189SAPI  H20S21773   0.984  -0.970   6.133 -0.0244 -1.4119 -1.4230
  189SAPI  H20T21774   0.986  -0.917   5.963 -1.4150  0.2142 -0.4741
  189SAPI   C3321775   0.645   0.237   6.069 -1.0795  0.5830  0.7306
  189SAPI   H3X21776   0.734   0.304   6.073 -1.3678  1.2755 -2.1489
  189SAPI   H3Y21777   0.556   0.301   6.087 -2.1249 -0.4667 -0.5590
  189SAPI   C3421778   0.654   0.166   5.934 -0.2062  0.1061  0.7342
  189SAPI   H4X21779   0.591   0.075   5.929 -1.6428  1.0147  1.7684
  189SAPI   H4Y21780   0.758   0.129   5.918 -0.3152  0.6295 -1.5803
  189SAPI   C3521781   0.607   0.247   5.818 -0.2452 -0.2607 -1.0549
  189SAPI   H5X21782   0.659   0.346   5.819 -0.1858 -0.2743  0.5123
  189SAPI   H5Y21783   0.498   0.264   5.831 -0.5472 -3.0097  0.9325
  189SAPI   C3621784   0.630   0.185   5.680  0.2949  0.0878  0.6943
  189SAPI   H6X21785   0.558   0.101   5.671  0.8635 -0.4191  0.8419
  189SAPI   H6Y21786   0.735   0.148   5.675  0.2377  0.0943 -1.0581
  189SAPI   C3721787   0.598   0.287   5.574  0.6202  0.1532 -0.4645
  189SAPI   H7X21788   0.667   0.372   5.589  1.5733 -0.7768  0.7200
  189SAPI   H7Y21789   0.493   0.320   5.568 -0.2497 -1.7560  2.1736
  189SAPI   C3821790   0.610   0.217   5.437  0.1347  0.5742 -0.1556
  189SAPI   H8X21791   0.518   0.157   5.418 -0.3815  1.0485  0.7892
  189SAPI   H8Y21792   0.700   0.152   5.436 -0.7934 -0.7645  0.3295
  189SAPI   C3921793   0.617   0.317   5.321 -0.1796  0.2514 -0.0300
  189SAPI   H9X21794   0.701   0.387   5.340 -0.7252  0.5309  1.4176
  189SAPI   H9Y21795   0.524   0.377   5.328  0.2198  0.9515 -0.5168
  189SAPI  C31021796   0.625   0.253   5.185  0.4533 -0.8360  0.0374
  189SAPI  H10X21797   0.536   0.194   5.156  0.9568 -0.9351 -1.3440
  189SAPI  H10Y21798   0.709   0.182   5.175  2.6251  1.3135  1.5856
  189SAPI  C31121799   0.629   0.367   5.086 -0.3024  0.7156 -0.1052
  189SAPI  H11X21800   0.691   0.454   5.116 -0.1144  0.4308  0.3331
  189SAPI  H11Y21801   0.527   0.408   5.068 -0.5225 -0.2708 -1.2615
  189SAPI  C31221802   0.683   0.313   4.948 -0.1716  0.6965 -0.1781
  189SAPI  H12X21803   0.610   0.247   4.896  0.8867  1.1398 -2.3414
  189SAPI  H12Y21804   0.768   0.243   4.957 -0.2502  0.4893 -0.9385
  189SAPI  C31321805   0.713   0.412   4.835  0.1988 -0.1197 -0.1250
  189SAPI  H13X21806   0.779   0.364   4.760  0.5296 -0.6143  0.4667
  189SAPI  H13Y21807   0.783   0.484   4.884 -0.3517 -0.1497  0.7281
  189SAPI  C31421808   0.584   0.460   4.779 -0.1386 -0.1064  0.6499
  189SAPI  H14X21809   0.515   0.510   4.850 -1.0512 -1.7006  0.9299
  189SAPI  H14Y21810   0.512   0.383   4.743 -1.2780  0.7504  1.0169
  189SAPI  C31521811   0.607   0.562   4.660  0.3936 -0.0695 -0.6697
  189SAPI  H15X21812   0.701   0.621   4.667 -1.0326  2.3959 -0.8534
  189SAPI  H15Y21813   0.530   0.642   4.667  2.8040  2.3961 -0.3354
  189SAPI  C31621814   0.608   0.503   4.522  0.3022 -0.4320 -0.0227
  189SAPI  H16X21815   0.509   0.475   4.481  1.5815 -0.6036 -3.3823
  189SAPI  H16Y21816   0.671   0.411   4.526 -0.6263 -1.0254  1.9903
  189SAPI  C31721817   0.668   0.597   4.415 -0.5853  0.2796  0.3620
  189SAPI  H17X21818   0.771   0.626   4.442 -0.5498  0.0080  0.5261
  189SAPI  H17Y21819   0.607   0.689   4.409 -1.7247 -0.4486  0.2656
  189SAPI  C31821820   0.675   0.527   4.273  0.4681 -0.0941  0.3704
  189SAPI  H18X21821   0.741   0.438   4.272 -0.0153 -0.4854 -1.4130
  189SAPI  H18Y21822   0.725   0.599   4.205  1.7495 -1.2657  0.0026
  189SAPI  H18Z21823   0.575   0.500   4.233  0.9581  0.1791 -1.1026
  190SAPI   C1221824   1.291   2.752   6.628 -0.1238 -0.3984  0.1081
  190SAPI    H221825   1.338   2.798   6.538 -0.1365  0.8242  0.7036
  190SAPI    O221826   1.381   2.774   6.733  0.3324  0.2361  0.0143
  190SAPI   HO221827   1.470   2.755   6.705  0.1284  0.0228 -0.4943
  190SAPI   C1321828   1.166   2.833   6.652  0.5550 -0.2168  0.9577
  190SAPI    H321829   1.101   2.818   6.563  0.9563  2.0399  0.2281
  190SAPI    O321830   1.188   2.972   6.655 -0.1298 -0.2564  0.1513
  190SAPI   HO321831   1.278   2.984   6.688 -0.1971  2.0944 -0.3243
  190SAPI   C1421832   1.096   2.775   6.769  0.3992 -0.2886  0.2065
  190SAPI    H421833   1.160   2.803   6.855 -0.5550 -0.1929  0.9076
  190SAPI    O421834   0.968   2.833   6.796 -0.4267 -0.3769  0.7640
  190SAPI   HO421835   0.982   2.883   6.877 -0.5691  0.3037  0.3698
  190SAPI   C1521836   1.089   2.622   6.778  0.5421 -0.1955 -0.3114
  190SAPI    H521837   0.990   2.594   6.736 -0.0116 -0.0596  0.8617
  190SAPI    O521838   1.078   2.576   6.916  0.3306  0.2470 -0.1039
  190SAPI   HO521839   1.138   2.613   6.981 -3.0277  1.4334  2.6574
  190SAPI   C1621840   1.194   2.536   6.706 -0.4643 -0.4231 -0.2232
  190SAPI    H621841   1.268   2.504   6.783  0.9552  1.6337 -0.6438
  190SAPI    O621842   1.144   2.417   6.667  0.0147 -0.0279  0.2523
  190SAPI   HO621843   1.213   2.366   6.623 -0.8761 -0.0426 -1.2142
  190SAPI   C1121844   1.269   2.603   6.597 -0.1326  0.2867 -0.2110
  190SAPI    H121845   1.210   2.601   6.503 -1.9451  0.6181  0.8817
  190SAPI     P21846   1.436   2.385   6.522  0.5250  0.2004  0.3570
  190SAPI   O1321847   1.328   2.279   6.545 -0.0512 -0.3103 -0.2742
  190SAPI   O1421848   1.567   2.358   6.590  0.1906 -0.1589 -0.1161
  190SAPI   O1221849   1.391   2.540   6.560  0.1133  0.3102 -0.9519
  190SAPI   O1121850   1.470   2.391   6.363 -0.0734  0.2461  0.0782
  190SAPI    C121851   1.548   2.500   6.306 -0.2402  0.0660 -0.2099
  190SAPI    HA21852   1.625   2.543   6.373 -1.4259  1.6236  0.2222
  190SAPI    HB21853   1.612   2.464   6.223 -0.2441 -0.3023 -0.0542
  190SAPI    C221854   1.457   2.622   6.252  0.6673  0.2001 -0.8473
  190SAPI    HS21855   1.406   2.681   6.331 -1.6478  0.0260 -2.1063
  190SAPI   O2121856   1.362   2.553   6.173  0.0231 -0.6848 -0.0329
  190SAPI   C2121857   1.262   2.627   6.140 -0.0553 -0.3201 -0.0546
  190SAPI   O2221858   1.237   2.736   6.169  0.0685 -0.4430  0.1356
  190SAPI   C2221859   1.176   2.528   6.062 -0.2380 -0.1856  0.0621
  190SAPI   H2R21860   1.150   2.437   6.119 -1.1557 -0.4514 -0.7548
  190SAPI   H2S21861   1.075   2.569   6.041 -0.5771 -2.0277 -2.2862
  190SAPI    C321862   1.541   2.732   6.183  0.3540 -0.1066 -0.1417
  190SAPI    HX21863   1.628   2.748   6.251  0.3149  0.4495 -0.2123
  190SAPI    HY21864   1.483   2.827   6.178  1.0306  0.3266  0.0309
  190SAPI   O3121865   1.583   2.694   6.054 -0.0342  0.0311  0.4447
  190SAPI   C3121866   1.529   2.740   5.942  0.4799  0.5947 -0.2231
  190SAPI   O3221867   1.451   2.827   5.926  0.1758  0.2885  0.3273
  190SAPI   C3221868   1.577   2.646   5.825  0.1845 -0.1744 -0.0642
  190SAPI   H2X21869   1.563   2.539   5.852 -2.2945  0.4370  1.3525
  190SAPI   H2Y21870   1.688   2.650   5.826  0.3709 -1.5148 -3.3786
  190SAPI   C2321871   1.231   2.494   5.918  0.3246  0.0638  0.5089
  190SAPI   H3R21872   1.270   2.589   5.876 -0.6011  0.6720  0.9757
  190SAPI   H3S21873   1.142   2.472   5.856  0.7829  0.1773 -0.2009
  190SAPI   C2421874   1.337   2.382   5.918  0.2852 -0.7803  0.2578
  190SAPI   H4R21875   1.414   2.406   5.995  1.7697  1.1904 -1.7277
  190SAPI   H4S21876   1.405   2.404   5.833  0.6163 -1.4671  0.3368
  190SAPI   C2521877   1.305   2.233   5.924  0.0635 -0.5012  0.3070
  190SAPI   H5R21878   1.280   2.195   6.024 -3.1650  3.4048  1.2206
  190SAPI   C2621879   1.324   2.147   5.823  0.2680 -0.3051 -0.0887
  190SAPI   H6R21880   1.301   2.042   5.848  0.7541 -0.0289  1.5948
  190SAPI   C2721881   1.370   2.185   5.682  0.4010 -0.1692  0.0568
  190SAPI   H7R21882   1.327   2.283   5.653 -0.4219 -0.8767 -1.2258
  190SAPI   H7S21883   1.323   2.108   5.618  0.4088  0.9580 -1.3677
  190SAPI   C2821884   1.510   2.193   5.645 -0.2506  0.5373 -0.1908
  190SAPI   H8R21885   1.581   2.192   5.729  2.2583  1.0705 -2.1747
  190SAPI   C2921886   1.573   2.183   5.525 -0.1563  0.0570  0.3358
  190SAPI   H9R21887   1.673   2.226   5.513  0.5135 -1.6738 -0.6756
  190SAPI  C21021888   1.507   2.139   5.393 -0.1635 -1.3760  0.5101
  190SAPI  H10R21889   1.457   2.042   5.412  0.5648 -2.2026 -1.4844
  190SAPI  H10S21890   1.587   2.120   5.318  1.1873  2.4533  0.7324
  190SAPI  C21121891   1.401   2.223   5.329 -0.3775 -0.7267  0.0785
  190SAPI  H11R21892   1.326   2.269   5.396 -2.6681 -3.7469 -0.2065
  190SAPI  C21221893   1.359   2.215   5.201  0.9157 -0.2216 -0.3363
  190SAPI  H12R21894   1.277   2.280   5.165  0.4923 -0.0251  0.9242
  190SAPI  C21321895   1.420   2.129   5.089  0.0722  0.5694 -0.5580
  190SAPI  H13R21896   1.514   2.080   5.124  0.2455  0.1789 -1.5284
  190SAPI  H13S21897   1.451   2.189   5.001  0.5923 -1.9323 -2.1885
  190SAPI  C21421898   1.318   2.026   5.045 -0.1143 -0.0223  0.1002
  190SAPI  H14R21899   1.261   1.969   5.120 -0.2015 -1.0956 -0.7627
  190SAPI  C21521900   1.268   2.007   4.923 -0.0777 -0.4019  0.8733
  190SAPI  H15R21901   1.175   1.950   4.910 -0.9882  1.5320 -1.8067
  190SAPI  C21621902   1.310   2.081   4.798  0.0086  0.0083  0.8336
  190SAPI  H16R21903   1.303   2.011   4.713 -1.0992 -3.0692  3.2829
  190SAPI  H16S21904   1.415   2.120   4.796  0.6740 -1.6687 -1.8695
  190SAPI  C21721905   1.227   2.202   4.776 -0.0825  0.2375  0.5331
  190SAPI  H17R21906   1.245   2.275   4.858  0.1912  0.3321  0.3892
  190SAPI  H17S21907   1.120   2.176   4.759  0.4589 -0.8823 -1.5938
  190SAPI  C21821908   1.257   2.265   4.639  0.5130 -0.3214  0.7837
  190SAPI  H18R21909   1.278   2.191   4.558  0.1091 -0.9739  1.2651
  190SAPI  H18S21910   1.354   2.315   4.657 -0.2364  1.8081 -0.6389
  190SAPI  C21921911   1.154   2.371   4.599 -0.3027 -0.1861 -0.0783
  190SAPI  H19R21912   1.167   2.454   4.672  2.2286 -0.2953 -0.3279
  190SAPI  H19S21913   1.052   2.333   4.619 -1.1671  2.4811  1.0710
  190SAPI  C22021914   1.160   2.421   4.453  0.1013 -0.6557 -0.8388
  190SAPI  H20R21915   1.073   2.487   4.437 -0.5477 -1.4362 -0.5947
  190SAPI  H20S21916   1.161   2.334   4.383  1.3748 -1.2330 -0.1457
  190SAPI  H20T21917   1.254   2.471   4.421 -0.1390 -0.4119 -1.1660
  190SAPI   C3321918   1.524   2.659   5.682 -0.0476  0.7319  0.0012
  190SAPI   H3X21919   1.508   2.766   5.658  2.3852  0.7835 -1.8965
  190SAPI   H3Y21920   1.421   2.618   5.679  0.3082 -0.2072 -2.6386
  190SAPI   C3421921   1.595   2.564   5.584  0.1370 -0.0910 -0.4235
  190SAPI   H4X21922   1.556   2.464   5.611  2.9933 -0.7088  1.8886
  190SAPI   H4Y21923   1.703   2.557   5.608 -0.3285 -1.3354  1.5217
  190SAPI   C3521924   1.573   2.603   5.435 -0.0549 -0.1546 -0.0692
  190SAPI   H5X21925   1.589   2.713   5.426 -0.7903 -0.1809 -2.6319
  190SAPI   H5Y21926   1.465   2.590   5.413  0.3109 -0.6718 -1.7233
  190SAPI   C3621927   1.658   2.525   5.336 -0.2193 -0.1188  0.9155
  190SAPI   H6X21928   1.641   2.420   5.368 -0.5544 -1.4963 -3.1533
  190SAPI   H6Y21929   1.768   2.541   5.330 -0.0857 -1.1779  0.1985
  190SAPI   C3721930   1.610   2.539   5.191  0.4396  0.1121 -0.0874
  190SAPI   H7X21931   1.499   2.545   5.195  0.5144  1.1016  0.8002
  190SAPI   H7Y21932   1.642   2.451   5.131  1.1604  0.3653 -0.0754
  190SAPI   C3821933   1.662   2.665   5.123  0.0685 -0.0348 -0.1039
  190SAPI   H8X21934   1.772   2.667   5.110  0.0700 -2.1721 -0.8031
  190SAPI   H8Y21935   1.633   2.752   5.186  0.4270 -0.4581  0.6631
  190SAPI   C3921936   1.615   2.684   4.979  0.1940  0.0116  0.8722
  190SAPI   H9X21937   1.676   2.622   4.909  0.4321 -0.5691  1.5847
  190SAPI   H9Y21938   1.640   2.789   4.950 -2.3807  0.7849  1.2128
  190SAPI  C31021939   1.463   2.662   4.958  0.6667  0.1348 -0.2011
  190SAPI  H10X21940   1.412   2.714   5.042  3.5767 -0.2260  1.9352
  190SAPI  H10Y21941   1.435   2.554   4.954 -0.9244  0.5056  0.2361
  190SAPI  C31121942   1.422   2.727   4.820 -0.2420  0.0899 -0.6180
  190SAPI  H11X21943   1.467   2.665   4.739  2.5504  0.5821  0.4533
  190SAPI  H11Y21944   1.467   2.829   4.813 -0.3127  0.2439  0.8378
  190SAPI  C31221945   1.272   2.747   4.803 -0.1702 -0.0885 -0.0239
  190SAPI  H12X21946   1.232   2.834   4.859  1.2411 -1.0484  2.6398
  190SAPI  H12Y21947   1.222   2.655   4.839 -0.8227  0.8896  1.6749
  190SAPI  C31321948   1.236   2.774   4.652  0.6480  0.0584 -0.1205
  190SAPI  H13X21949   1.271   2.687   4.593  1.7671  0.0644  0.5065
  190SAPI  H13Y21950   1.295   2.860   4.614  2.4905 -1.1799 -0.1985
  190SAPI  C31421951   1.085   2.775   4.621  0.1172 -0.4232  1.0986
  190SAPI  H14X21952   1.057   2.865   4.679  2.0958  0.9198  0.0882
  190SAPI  H14Y21953   1.037   2.686   4.667 -1.7768  1.0407  2.0894
  190SAPI  C31521954   1.060   2.789   4.470 -0.1372  0.0908 -0.6561
  190SAPI  H15X21955   1.118   2.718   4.407  0.2443  0.1649 -0.3889
  190SAPI  H15Y21956   1.085   2.893   4.442 -2.0999  0.0131 -3.0388
  190SAPI  C31621957   0.909   2.765   4.446 -0.0168  0.9242 -0.7162
  190SAPI  H16X21958   0.847   2.794   4.533 -3.4558 -2.3291 -1.7691
  190SAPI  H16Y21959   0.903   2.654   4.447  0.7810  0.8751 -0.3160
  190SAPI  C31721960   0.855   2.828   4.320  0.0484  0.4534 -0.6963
  190SAPI  H17X21961   0.932   2.808   4.241  1.1456  2.8883 -0.3475
  190SAPI  H17Y21962   0.862   2.939   4.325  0.8537  0.5394 -2.6555
  190SAPI  C31821963   0.711   2.782   4.298 -0.1126 -0.0227 -0.6687
  190SAPI  H18X21964   0.666   2.836   4.213  0.0341 -0.1860 -0.8501
  190SAPI  H18Y21965   0.650   2.802   4.390  0.8558  0.0130 -0.0248
  190SAPI  H18Z21966   0.703   2.672   4.284  3.6844 -0.9107  2.3709
  191SAPI   C1221967   4.055   4.663   1.948  0.6440  0.4170  0.8286
  191SAPI    H221968   4.083   4.556   1.951  1.3729  0.1756 -4.4740
  191SAPI    O221969   4.023   4.718   2.079  0.1921 -0.1726 -0.1012
  191SAPI   HO221970   3.933   4.751   2.080  0.0235 -0.5761 -1.0907
  191SAPI   C1321971   4.187   4.728   1.899 -0.0085  0.6178 -0.4297
  191SAPI    H321972   4.205   4.685   1.799  0.4541  1.1439 -0.5777
  191SAPI    O321973   4.297   4.687   1.978 -0.6255  0.4683 -0.7041
  191SAPI   HO321974   4.350   4.626   1.925 -0.3760 -0.8674  0.9707
  191SAPI   C1421975   4.174   4.885   1.887 -0.1078  1.0362  0.2664
  191SAPI    H421976   4.173   4.929   1.989  0.2380  0.1815  0.6422
  191SAPI    O421977   4.290   4.933   1.823  0.2181 -0.2817  0.8619
  191SAPI   HO421978   4.338   4.998   1.874 -1.7112  0.7307  1.4991
  191SAPI   C1521979   4.041   4.934   1.812 -1.1398  0.6105 -0.1208
  191SAPI    H521980   4.076   4.919   1.708  2.7300  5.6586  0.1143
  191SAPI    O521981   4.012   5.073   1.836 -0.1474 -0.0728 -0.1392
  191SAPI   HO521982   3.931   5.105   1.796 -0.1372  3.4810  2.2992
  191SAPI   C1621983   3.919   4.840   1.822  0.9586 -0.5164  0.2239
  191SAPI    H621984   3.867   4.867   1.916 -2.2537  0.6638 -1.7497
  191SAPI    O621985   3.824   4.864   1.713 -0.2851  0.3826  0.2948
  191SAPI   HO621986   3.733   4.863   1.744 -0.9597 -0.1150 -1.5480
  191SAPI   C1121987   3.949   4.693   1.835 -0.7889 -0.6109  0.0972
  191SAPI    H121988   3.984   4.656   1.736 -1.0093  0.7442 -0.5141
  191SAPI     P21989   3.812   4.471   1.836  0.2207 -0.3760  0.0339
  191SAPI   O1321990   3.895   4.427   1.724  0.5324  0.0178  0.1466
  191SAPI   O1421991   3.667   4.448   1.821  0.2146  0.4217  0.0322
  191SAPI   O1221992   3.826   4.627   1.868 -0.1811  0.2445 -0.2831
  191SAPI   O1121993   3.868   4.411   1.970 -0.1905  0.0198 -0.7828
  191SAPI    C121994   3.772   4.365   2.065  0.2585  0.7559  1.0771
  191SAPI    HA21995   3.696   4.445   2.079  0.2673  0.9778 -0.0376
  191SAPI    HB21996   3.715   4.284   2.016 -0.0110  0.2225  2.2385
  191SAPI    C221997   3.834   4.322   2.205  0.2158  0.4259  0.0096
  191SAPI    HS21998   3.922   4.262   2.174  0.7004  1.1221 -0.0024
  191SAPI   O2121999   3.745   4.247   2.286 -0.4921  0.5761  0.1847
  191SAPI   C2122000   3.728   4.121   2.246 -0.3373 -0.5378 -0.5137
  191SAPI   O2222001   3.799   4.059   2.168 -0.1473  0.1282  0.4356
  191SAPI   C2222002   3.607   4.059   2.325 -0.8600  0.1023  0.3827
  191SAPI   H2R22003   3.530   4.138   2.334  1.4596  2.3815  1.7362
  191SAPI   H2S22004   3.568   3.968   2.275  0.3225 -0.7017  0.8679
  191SAPI    C322005   3.881   4.443   2.285  0.1926 -0.1307  0.3395
  191SAPI    HX22006   3.801   4.518   2.299 -0.5455 -1.1217  1.6727
  191SAPI    HY22007   3.958   4.493   2.222 -0.4750  0.0748 -0.3274
  191SAPI   O3122008   3.939   4.409   2.411 -0.0135  0.4396 -0.1769
  191SAPI   C3122009   4.055   4.459   2.445  0.0617  0.3615  0.2834
  191SAPI   O3222010   4.110   4.553   2.392  0.1278 -0.1569  0.5301
  191SAPI   C3222011   4.112   4.372   2.556  0.3747 -0.0459  0.7640
  191SAPI   H2X22012   4.115   4.264   2.532  2.5408  0.3327 -1.0242
  191SAPI   H2Y22013   4.039   4.388   2.638 -1.0936  0.0115 -0.5218
  191SAPI   C2322014   3.655   4.039   2.473 -0.3010  0.3260  0.3248
  191SAPI   H3R22015   3.688   4.137   2.514  0.5203  0.4698 -0.6210
  191SAPI   H3S22016   3.746   3.975   2.474  0.9402  1.9306  3.1414
  191SAPI   C2422017   3.551   3.970   2.570  0.2259 -0.3306 -0.0944
  191SAPI   H4R22018   3.458   4.030   2.576  0.0078 -0.7297  0.6227
  191SAPI   H4S22019   3.582   3.967   2.677  0.2698  0.9862 -0.0481
  191SAPI   C2522020   3.504   3.835   2.537 -0.2606  0.9308 -0.1301
  191SAPI   H5R22021   3.437   3.837   2.450 -1.5924 -1.5153  0.7439
  191SAPI   C2622022   3.520   3.715   2.596  1.1362  0.0557 -0.1527
  191SAPI   H6R22023   3.469   3.628   2.552 -0.2369 -0.8123  2.8474
  191SAPI   C2722024   3.580   3.677   2.728 -0.1889 -0.0574 -0.8634
  191SAPI   H7R22025   3.505   3.678   2.810  1.5045  1.4191  0.7593
  191SAPI   H7S22026   3.658   3.747   2.764  1.5129 -2.8042  1.1534
  191SAPI   C2822027   3.648   3.541   2.723 -0.6460  0.3643  0.0399
  191SAPI   H8R22028   3.589   3.471   2.662 -2.5863  1.9732  0.0041
  191SAPI   C2922029   3.753   3.492   2.796 -0.3002 -0.4619  0.1729
  191SAPI   H9R22030   3.793   3.390   2.786  0.3376 -0.0991 -1.2317
  191SAPI  C21022031   3.817   3.576   2.906 -0.7321 -0.5312  0.6771
  191SAPI  H10R22032   3.861   3.668   2.864  0.1368 -1.0659  0.3915
  191SAPI  H10S22033   3.899   3.514   2.949  0.5959  0.5413 -0.2651
  191SAPI  C21122034   3.730   3.609   3.022 -0.2030 -0.1921 -0.0236
  191SAPI  H11R22035   3.645   3.676   3.004  0.3742  0.3313 -0.9104
  191SAPI  C21222036   3.760   3.580   3.147  0.2329  0.0651 -0.7425
  191SAPI  H12R22037   3.691   3.617   3.223 -0.2120  0.2380 -1.2248
  191SAPI  C21322038   3.870   3.496   3.214  0.6748 -0.0081  0.6095
  191SAPI  H13R22039   3.958   3.560   3.235  0.5473 -0.0634  1.3325
  191SAPI  H13S22040   3.908   3.419   3.142  1.8074  1.2080 -0.1403
  191SAPI  C21422041   3.828   3.434   3.339 -0.5618  0.5901  0.1441
  191SAPI  H14R22042   3.724   3.397   3.341 -0.1182 -0.7432 -0.5849
  191SAPI  C21522043   3.907   3.389   3.440 -0.9233  0.7900  0.4638
  191SAPI  H15R22044   3.869   3.344   3.532 -0.5550  0.0207  0.2458
  191SAPI  C21622045   4.064   3.399   3.441  0.3696  0.1014  0.1781
  191SAPI  H16R22046   4.100   3.504   3.444 -1.1215  0.7143 -1.5618
  191SAPI  H16S22047   4.106   3.354   3.349 -1.8065  0.9311 -1.2791
  191SAPI  C21722048   4.109   3.321   3.568 -0.5299 -0.6163 -0.1372
  191SAPI  H17R22049   4.220   3.318   3.574 -0.5373  0.7654  1.5566
  191SAPI  H17S22050   4.070   3.217   3.573 -0.5759 -0.6811 -1.4674
  191SAPI  C21822051   4.070   3.393   3.696 -0.4345  0.1454  0.1396
  191SAPI  H18R22052   3.961   3.404   3.707 -0.7524 -0.8576 -1.6040
  191SAPI  H18S22053   4.100   3.500   3.688 -0.6021  0.0633 -2.0892
  191SAPI  C21922054   4.122   3.356   3.837 -0.2538  0.9643 -0.3134
  191SAPI  H19R22055   4.079   3.258   3.865  0.8532  0.3295 -0.7381
  191SAPI  H19S22056   4.086   3.434   3.907 -2.7045  1.9246 -2.4842
  191SAPI  C22022057   4.270   3.339   3.851  1.0389  0.4440  0.0442
  191SAPI  H20R22058   4.290   3.290   3.948 -0.8057 -1.1466 -0.3185
  191SAPI  H20S22059   4.328   3.434   3.843  0.7324  0.5984 -0.4399
  191SAPI  H20T22060   4.300   3.264   3.774 -2.4119 -0.9767 -0.0826
  191SAPI   C3322061   4.250   4.429   2.598  0.4733  0.6028 -0.9688
  191SAPI   H3X22062   4.252   4.535   2.631 -1.3613 -0.3652  2.8606
  191SAPI   H3Y22063   4.323   4.420   2.515 -1.1622 -1.8667 -2.2637
  191SAPI   C3422064   4.305   4.344   2.713 -0.1582  0.3012 -0.3994
  191SAPI   H4X22065   4.308   4.237   2.682  0.1620  0.7140 -1.8677
  191SAPI   H4Y22066   4.236   4.348   2.800 -1.3448 -1.9944 -1.1340
  191SAPI   C3522067   4.452   4.378   2.746  0.4827  0.3574 -0.0537
  191SAPI   H5X22068   4.467   4.485   2.771  3.0089  0.0346  0.0591
  191SAPI   H5Y22069   4.500   4.377   2.646  3.5427 -0.0034  1.2979
  191SAPI   C3622070   4.515   4.291   2.853  0.3146  0.0831 -0.5521
  191SAPI   H6X22071   4.608   4.335   2.895 -0.3365  1.3554 -0.3779
  191SAPI   H6Y22072   4.534   4.191   2.809  1.6045  1.0039 -2.1972
  191SAPI   C3722073   4.427   4.271   2.980  0.4301  0.3966  0.2093
  191SAPI   H7X22074   4.479   4.206   3.054  1.2110  0.8271  0.0408
  191SAPI   H7Y22075   4.324   4.234   2.960 -0.4230  1.6564  2.0647
  191SAPI   C3822076   4.405   4.405   3.060  0.1118 -0.0377  0.0452
  191SAPI   H8X22077   4.349   4.479   2.998  1.9632  0.3504 -1.2487
  191SAPI   H8Y22078   4.504   4.457   3.061  0.4970 -0.7236  2.0118
  191SAPI   C3922079   4.344   4.393   3.201  1.3168 -0.0114  0.4433
  191SAPI   H9X22080   4.255   4.327   3.203  0.8010  0.6750  0.4790
  191SAPI   H9Y22081   4.313   4.492   3.243  2.3105  0.4366  0.1570
  191SAPI  C31022082   4.443   4.329   3.296  0.1177  0.1097 -0.0700
  191SAPI  H10X22083   4.542   4.376   3.277 -0.2541  1.4518  1.1175
  191SAPI  H10Y22084   4.441   4.220   3.278 -0.0616 -0.1102  1.2000
  191SAPI  C31122085   4.420   4.352   3.453  0.0398 -0.1700  0.7344
  191SAPI  H11X22086   4.326   4.299   3.477  1.2647 -1.3339  3.3095
  191SAPI  H11Y22087   4.425   4.461   3.474  3.3992 -0.6548  3.3078
  191SAPI  C31222088   4.533   4.287   3.530  0.2537  0.2195 -0.6698
  191SAPI  H12X22089   4.635   4.318   3.499  0.8125 -1.6076 -0.7991
  191SAPI  H12Y22090   4.533   4.178   3.507 -0.1298 -0.4159  1.9623
  191SAPI  C31322091   4.517   4.295   3.683 -0.0727 -0.3300 -0.2086
  191SAPI  H13X22092   4.533   4.400   3.717  0.9557 -0.1703 -1.1354
  191SAPI  H13Y22093   4.599   4.241   3.733 -0.0875  0.3565  0.5756
  191SAPI  C31422094   4.381   4.243   3.732  0.3766  0.6024 -0.3511
  191SAPI  H14X22095   4.373   4.135   3.709  4.4791 -0.5979  2.6624
  191SAPI  H14Y22096   4.302   4.301   3.679 -2.6291 -0.9238  2.1814
  191SAPI  C31522097   4.369   4.241   3.887 -0.4335  0.3021  0.9564
  191SAPI  H15X22098   4.375   4.351   3.902  2.2257 -0.0783  3.7772
  191SAPI  H15Y22099   4.450   4.187   3.940 -0.1497 -0.2828 -0.0548
  191SAPI  C31622100   4.236   4.180   3.935 -0.1933  0.7127  0.3625
  191SAPI  H16X22101   4.253   4.071   3.928  3.4749  1.2469 -1.0062
  191SAPI  H16Y22102   4.152   4.207   3.868 -0.2626 -3.2622 -1.4275
  191SAPI  C31722103   4.192   4.225   4.073 -0.9554  0.2609  0.1587
  191SAPI  H17X22104   4.083   4.212   4.086 -1.2810  1.9611 -0.5541
  191SAPI  H17Y22105   4.195   4.336   4.077 -1.3009  0.2898 -0.4081
  191SAPI  C31822106   4.269   4.179   4.197  0.5137  0.5643  0.0205
  191SAPI  H18X22107   4.372   4.219   4.212  1.2455 -1.1256 -0.3186
  191SAPI  H18Y22108   4.286   4.070   4.203  2.3623  0.8787  0.9807
  191SAPI  H18Z22109   4.196   4.198   4.278  0.3500  0.8330 -0.1857
  192SAPI   C1222110   6.423   1.980   2.110 -0.4233 -0.1530 -0.0382
  192SAPI    H222111   6.380   1.948   2.208  4.8173 -1.7228  2.1180
  192SAPI    O222112   6.452   2.120   2.106 -0.4165 -0.0515 -0.8745
  192SAPI   HO222113   6.372   2.164   2.136  1.4365  2.1409  1.2199
  192SAPI   C1322114   6.561   1.905   2.081  0.2364 -0.4413  0.0617
  192SAPI    H322115   6.543   1.795   2.074  1.8112 -0.7059 -0.2302
  192SAPI    O322116   6.649   1.912   2.189 -0.1696 -0.8257 -0.2648
  192SAPI   HO322117   6.685   2.000   2.198  2.4429 -1.8327  0.1212
  192SAPI   C1422118   6.630   1.945   1.952 -0.0397 -0.4546  0.8840
  192SAPI    H422119   6.672   2.046   1.972  0.9177 -0.7515  0.4597
  192SAPI    O422120   6.731   1.854   1.909 -0.1970  0.1816 -0.2264
  192SAPI   HO422121   6.815   1.893   1.934 -0.4102  0.4149  0.1374
  192SAPI   C1522122   6.529   1.974   1.841  0.1729  0.1157  0.2430
  192SAPI    H522123   6.521   1.872   1.799  0.4296 -0.1593  0.8412
  192SAPI    O522124   6.584   2.052   1.737  0.1717  0.4245 -0.2092
  192SAPI   HO522125   6.579   1.992   1.662 -0.6426 -3.5563  2.7150
  192SAPI   C1622126   6.381   2.006   1.866 -0.5086 -0.0456 -0.0424
  192SAPI    H622127   6.374   2.117   1.866  1.3233  0.1028 -0.7793
  192SAPI    O622128   6.304   1.958   1.761 -0.2177 -0.0948 -0.3492
  192SAPI   HO622129   6.218   1.938   1.798  0.2023 -2.5932 -0.5489
  192SAPI   C1122130   6.316   1.955   1.994  0.4165  0.9942 -0.0279
  192SAPI    H122131   6.305   1.844   1.989 -0.1073  1.0948 -2.3034
  192SAPI     P22132   6.045   1.944   1.993 -0.0242 -0.0994  0.3482
  192SAPI   O1322133   6.052   1.909   1.849 -0.3964  0.1104  0.4595
  192SAPI   O1422134   5.932   2.034   2.030 -0.7515 -0.4100  0.1775
  192SAPI   O1222135   6.195   2.014   2.035 -0.3836  0.9277  0.4318
  192SAPI   O1122136   6.035   1.810   2.069  0.8098  0.8952  0.6892
  192SAPI    C122137   5.944   1.819   2.188  0.7939 -0.4640  0.2567
  192SAPI    HA22138   5.839   1.840   2.158  0.8553  0.1931  0.4691
  192SAPI    HB22139   5.932   1.718   2.232 -1.7531  0.0701  0.9172
  192SAPI    C222140   5.991   1.921   2.306  0.2949  0.0840 -0.6394
  192SAPI    HS22141   6.005   2.024   2.266  1.4907  0.4160  0.5554
  192SAPI   O2122142   6.109   1.858   2.363 -0.7472  0.0779  0.3159
  192SAPI   C2122143   6.189   1.950   2.415  0.8126  0.2960  0.5046
  192SAPI   O2222144   6.183   2.070   2.390 -0.3037 -1.0769  0.5362
  192SAPI   C2222145   6.284   1.877   2.503  0.3208 -0.2655  0.5224
  192SAPI   H2R22146   6.220   1.812   2.567 -1.7357  0.8800 -0.2633
  192SAPI   H2S22147   6.348   1.811   2.441  0.7151 -0.2666  0.9223
  192SAPI    C322148   5.877   1.939   2.421 -0.2594  0.7697 -0.0448
  192SAPI    HX22149   5.781   1.958   2.368 -0.1234 -0.0300 -0.5916
  192SAPI    HY22150   5.901   2.029   2.482 -0.6068  1.1752 -0.4974
  192SAPI   O3122151   5.845   1.809   2.478  0.1986  0.5200 -0.8013
  192SAPI   C3122152   5.917   1.784   2.582 -0.1327 -0.0799 -0.5567
  192SAPI   O3222153   5.986   1.865   2.643 -0.3997 -0.5124  0.1837
  192SAPI   C3222154   5.889   1.634   2.621 -0.4493  0.3394 -0.0202
  192SAPI   H2X22155   5.892   1.569   2.531  0.8396  1.1967 -0.6192
  192SAPI   H2Y22156   5.786   1.615   2.659 -0.3920 -1.4781 -0.6591
  192SAPI   C2322157   6.380   1.971   2.576  0.0469 -0.1903  0.4807
  192SAPI   H3R22158   6.428   2.050   2.514 -2.2977  1.7577  1.0017
  192SAPI   H3S22159   6.465   1.909   2.613  1.7868  0.5601 -1.9738
  192SAPI   C2422160   6.327   2.053   2.700  0.4424 -0.8353  0.7215
  192SAPI   H4R22161   6.227   2.094   2.674  0.3911 -0.8312  0.9285
  192SAPI   H4S22162   6.395   2.140   2.710  0.1662 -0.3804 -0.9817
  192SAPI   C2522163   6.314   1.971   2.832  0.6729 -0.1104 -0.4481
  192SAPI   H5R22164   6.228   1.903   2.837  0.0127  0.6552 -1.0112
  192SAPI   C2622165   6.404   1.970   2.936  0.8010  0.2010  0.0284
  192SAPI   H6R22166   6.367   1.951   3.038  1.7297  1.8904  0.7134
  192SAPI   C2722167   6.535   2.036   2.923  0.3120 -0.2287 -0.6085
  192SAPI   H7R22168   6.509   2.143   2.933 -2.0136 -0.9404  2.7220
  192SAPI   H7S22169   6.583   2.025   2.823  1.4813  1.5012 -0.2816
  192SAPI   C2822170   6.631   1.997   3.034  0.5727 -0.2866  0.0994
  192SAPI   H8R22171   6.701   1.916   3.008  0.8295  0.4145 -1.4795
  192SAPI   C2922172   6.643   2.028   3.161 -0.1939 -0.8513  0.2649
  192SAPI   H9R22173   6.735   1.994   3.211 -0.1664 -0.2021  0.6768
  192SAPI  C21022174   6.565   2.137   3.225  0.5413 -0.3208 -0.3088
  192SAPI  H10R22175   6.463   2.149   3.185  0.8211  0.9250 -0.7051
  192SAPI  H10S22176   6.616   2.232   3.196 -2.0241  1.5855  1.0174
  192SAPI  C21122177   6.552   2.120   3.372 -0.9941 -0.1089 -0.2123
  192SAPI  H11R22178   6.504   2.028   3.407 -1.5090  1.0102  2.3050
  192SAPI  C21222179   6.592   2.201   3.472  0.4380  0.0790  0.2170
  192SAPI  H12R22180   6.569   2.168   3.575 -2.0546 -3.5307 -1.2858
  192SAPI  C21322181   6.650   2.338   3.440  0.4231 -0.2019  0.3900
  192SAPI  H13R22182   6.715   2.339   3.350  0.6509  1.4911  0.5519
  192SAPI  H13S22183   6.717   2.364   3.525  0.7972 -1.2692  0.4471
  192SAPI  C21422184   6.544   2.450   3.412  0.5640  1.1187  0.2325
  192SAPI  H14R22185   6.460   2.422   3.347  0.3063  2.9095 -0.2388
  192SAPI  C21522186   6.532   2.568   3.466 -0.4463 -1.1109  0.3997
  192SAPI  H15R22187   6.446   2.626   3.430 -0.6429 -1.2915  0.5793
  192SAPI  C21622188   6.612   2.622   3.582  0.3601 -0.4008 -0.4483
  192SAPI  H16R22189   6.671   2.708   3.545  0.9583 -0.8691 -0.5912
  192SAPI  H16S22190   6.673   2.532   3.607 -0.6025 -0.8806  0.2876
  192SAPI  C21722191   6.532   2.677   3.698 -0.1526  0.4604 -0.4291
  192SAPI  H17R22192   6.447   2.612   3.727  0.8805 -0.8323 -0.1776
  192SAPI  H17S22193   6.490   2.775   3.668  0.4386  0.9013  0.1528
  192SAPI  C21822194   6.618   2.701   3.823 -0.7488  0.1301  0.0174
  192SAPI  H18R22195   6.700   2.770   3.794 -1.8614  0.8713 -1.4939
  192SAPI  H18S22196   6.668   2.605   3.851 -1.1982  0.5022  2.3287
  192SAPI  C21922197   6.546   2.753   3.954 -0.3832  0.1772  0.4575
  192SAPI  H19R22198   6.473   2.688   4.005 -0.0506  1.1536  2.2810
  192SAPI  H19S22199   6.489   2.839   3.913  0.9242  1.2199  0.7350
  192SAPI  C22022200   6.638   2.811   4.061  0.4971  0.0954  0.0109
  192SAPI  H20R22201   6.683   2.724   4.113 -0.2057  0.4529  1.2509
  192SAPI  H20S22202   6.563   2.852   4.131  0.3215  0.5154 -0.4168
  192SAPI  H20T22203   6.721   2.879   4.031 -0.7411  1.2689 -0.9044
  192SAPI   C3322204   5.989   1.573   2.720 -0.5369 -0.2485  0.3543
  192SAPI   H3X22205   6.092   1.580   2.680 -0.6349 -0.1753  0.1099
  192SAPI   H3Y22206   5.964   1.467   2.745 -0.1540 -0.7596 -1.3305
  192SAPI   C3422207   5.986   1.641   2.863  0.4799 -0.1178 -0.4840
  192SAPI   H4X22208   5.891   1.616   2.915  0.2083  1.6306 -0.0758
  192SAPI   H4Y22209   5.989   1.752   2.859 -1.2285  0.1620  2.7117
  192SAPI   C3522210   6.098   1.587   2.948 -0.0437  0.2551 -0.2769
  192SAPI   H5X22211   6.194   1.625   2.908 -0.1071  0.0972 -0.5840
  192SAPI   H5Y22212   6.111   1.477   2.941 -0.6445  0.2405 -1.4277
  192SAPI   C3622213   6.101   1.638   3.093 -0.5714  0.9628  0.0464
  192SAPI   H6X22214   6.018   1.593   3.152 -0.2545  1.8990  1.2366
  192SAPI   H6Y22215   6.106   1.748   3.105  0.5746  0.7333  2.0474
  192SAPI   C3722216   6.224   1.587   3.173  0.0137 -0.8021 -0.3756
  192SAPI   H7X22217   6.312   1.640   3.131 -0.3133  0.9682  1.0243
  192SAPI   H7Y22218   6.240   1.478   3.185  1.2677 -0.4910  1.0642
  192SAPI   C3822219   6.228   1.638   3.319  0.5127 -0.0595 -0.8188
  192SAPI   H8X22220   6.336   1.623   3.343  0.6695  1.4986 -0.4316
  192SAPI   H8Y22221   6.166   1.585   3.394  1.0265  2.4365  1.5184
  192SAPI   C3922222   6.209   1.791   3.347  0.2431  1.0611  0.0407
  192SAPI   H9X22223   6.103   1.807   3.376 -0.1160 -0.4186 -0.3530
  192SAPI   H9Y22224   6.241   1.849   3.258 -0.3555  1.6812  0.2211
  192SAPI  C31022225   6.302   1.826   3.457 -0.0790  0.3688  0.8147
  192SAPI  H10X22226   6.295   1.937   3.465 -0.8004  0.3220  0.9295
  192SAPI  H10Y22227   6.409   1.806   3.439 -0.3617 -0.5825  0.1331
  192SAPI  C31122228   6.252   1.765   3.594 -0.1999  0.7386 -0.3281
  192SAPI  H11X22229   6.244   1.656   3.575  1.0008  0.7202 -0.7887
  192SAPI  H11Y22230   6.152   1.809   3.614 -0.3520 -0.0144  0.6607
  192SAPI  C31222231   6.339   1.796   3.711  0.1418  0.1583  0.1069
  192SAPI  H12X22232   6.337   1.907   3.724 -1.3935  0.0038  1.5222
  192SAPI  H12Y22233   6.444   1.769   3.688  0.0729 -0.9308  0.9963
  192SAPI  C31322234   6.281   1.751   3.848 -0.1020  0.6085  0.0794
  192SAPI  H13X22235   6.287   1.640   3.840 -0.9897  0.6899 -2.8986
  192SAPI  H13Y22236   6.171   1.766   3.853 -0.1887 -0.3776  3.5705
  192SAPI  C31422237   6.343   1.816   3.963 -0.1682  0.4530  0.5633
  192SAPI  H14X22238   6.329   1.925   3.949 -0.1850  0.3143 -0.6845
  192SAPI  H14Y22239   6.448   1.779   3.955  0.1135  1.3175  0.0361
  192SAPI  C31522240   6.271   1.762   4.086 -0.2408  0.0323 -0.2053
  192SAPI  H15X22241   6.273   1.651   4.094 -1.3922  0.1038  1.7869
  192SAPI  H15Y22242   6.169   1.806   4.094 -0.0043  0.8512 -1.4778
  192SAPI  C31622243   6.336   1.827   4.211 -0.5317 -0.0857 -0.1615
  192SAPI  H16X22244   6.312   1.934   4.196  1.0502  0.0499 -2.1802
  192SAPI  H16Y22245   6.447   1.816   4.206 -0.6383 -1.0978 -0.6233
  192SAPI  C31722246   6.275   1.774   4.350  0.3961  1.1297  0.6351
  192SAPI  H17X22247   6.276   1.664   4.339 -1.5986  0.6680  3.7338
  192SAPI  H17Y22248   6.167   1.800   4.343  0.7819  2.6079 -0.4578
  192SAPI  C31822249   6.346   1.813   4.475 -0.0675  0.0972  0.2792
  192SAPI  H18X22250   6.344   1.922   4.493 -0.8864  0.0778  0.3443
  192SAPI  H18Y22251   6.454   1.789   4.472 -0.4738 -2.1384  1.1997
  192SAPI  H18Z22252   6.315   1.750   4.562 -1.1097  0.5260  0.2312
  193SOD    SOD22253   3.874   3.326   8.548  0.1932 -0.0566  0.0941
  194SOD    SOD22254   4.213   4.645   2.214 -0.9124  0.5558 -0.0524
  195SOD    SOD22255   0.891   5.978   8.193 -0.0779  0.0299 -0.4144
  196SOD    SOD22256   4.364   1.006   8.420 -0.0822 -0.1072  0.2714
  197SOD    SOD22257   1.750   0.819   6.951  0.4991  0.1591 -0.4406
  198SOD    SOD22258   2.523   0.678   8.700 -0.3993 -0.3515  0.3627
  199SOD    SOD22259   3.864   2.519   1.383 -0.2012  0.1622  0.1311
  200SOD    SOD22260   0.129   0.627   6.883  0.2128  0.2826 -0.1068
  201SOD    SOD22261   3.519   3.665   1.895 -0.2993 -0.3721 -0.2878
  202SOD    SOD22262   5.893   2.976   6.240  0.5239 -0.1942  0.4464
  203SOD    SOD22263   5.929   2.773   1.120 -0.2381  0.3621  0.1998
  204SOD    SOD22264   5.726   3.270   0.622 -0.0950  0.5921  0.1859
  205SOD    SOD22265   3.385   1.865   1.345 -0.3660 -0.0518  0.7662
  206SOD    SOD22266   4.628   3.266   2.122 -0.6107 -0.2582  0.3700
  207SOD    SOD22267   3.630   6.307   1.530 -1.1043  0.1614  0.0141
  208SOD    SOD22268   0.306   3.393   2.120 -0.3036  0.1037  0.1666
  209SOD    SOD22269   1.875   2.519   0.344 -0.0530  0.2103  0.2628
  210SOD    SOD22270   1.602   6.664   7.206 -0.0254 -0.1471  0.5149
  211SOD    SOD22271   0.597   5.029   8.344 -0.1841 -0.0654  0.2622
  212SOD    SOD22272   0.585   1.176   7.509  0.1139  0.2870  0.1873
  213SOD    SOD22273   5.770   6.565   0.520  0.2150 -0.0456 -0.1024
  214SOD    SOD22274   0.920   2.789   8.431  0.3952 -0.5537  0.9455
  215SOD    SOD22275   4.195   0.149   6.922  0.6917 -0.1857  0.1579
  216SOD    SOD22276   6.173   5.074   1.189 -0.0672 -0.5723 -0.1556
  217SOD    SOD22277   6.726   6.303   0.550  0.2929 -0.2795 -0.0324
  218SOD    SOD22278   5.527   3.119   7.714 -0.1641 -0.1016  0.0532
  219SOD    SOD22279   4.666   1.176   2.429 -0.1074  0.0484 -0.0782
  220SOD    SOD22280   1.294   3.370   0.133  0.2436  0.0193 -0.0937
  221SOD    SOD22281   4.213   2.046   1.816 -0.2166 -0.3468 -0.3024
  222SOD    SOD22282   2.124   2.128   6.203 -0.0830 -0.7739  0.3659
  223SOD    SOD22283   6.708   2.258   1.753 -0.4807 -0.4079 -0.2853
  224SOD    SOD22284   5.454   2.240   6.613  0.0404  0.0554  0.5113
  225SOD    SOD22285   5.144   4.729   7.668 -0.1911 -0.4198  0.1581
  226SOD    SOD22286   0.959   5.611   2.380  0.0574 -0.4215  0.1008
  227SOD    SOD22287   4.051   2.847   0.775 -0.4848 -0.2073 -0.1030
  228SOD    SOD22288   4.101   0.142   0.363 -0.3049  0.5913  0.1880
  229SOD    SOD22289   0.302   2.668   6.591 -0.4577 -0.0637  0.7074
  230SOD    SOD22290   5.603   5.826   7.170  0.5067  0.1021  0.0007
  231SOD    SOD22291   1.475   1.526   1.630  0.4903 -0.6583  0.1753
  232SOD    SOD22292   2.397   4.711   6.519 -0.0114 -0.5269  0.1850
  233SOD    SOD22293   1.012   4.571   7.890  0.0997  0.0825  0.9937
  234CLA    CLA22294   4.197   4.626   1.182  0.2213 -0.0627 -0.1603
  235CLA    CLA22295   1.027   3.129   7.289  0.0394 -0.0534  0.0853
  236CLA    CLA22296   0.735   5.260   8.371 -0.0028 -0.4318  0.0409
  237CLA    CLA22297   1.932   6.202   8.415 -0.1242  0.1123  0.1763
  238CLA    CLA22298   6.028   5.103   0.170  0.0054 -0.1266  0.0906
  239CLA    CLA22299   0.579   3.530   1.435  0.1868 -0.4681  0.2639
  240CLA    CLA22300   2.793   0.492   8.113 -0.0020  0.0811  0.1742
  241CLA    CLA22301   2.044   1.566   8.224 -0.2065 -0.1249 -0.1159
  242CLA    CLA22302   0.040   3.580   8.423 -0.2791 -0.0287  0.4211
  243CLA    CLA22303   6.299   1.922   0.002 -0.0322 -0.2846 -0.2408
  244CLA    CLA22304   0.039   0.256   8.598  0.0038 -0.2353 -0.5341
  245CLA    CLA22305   4.189   3.619   8.459  0.0005  0.0816  0.1336
  246CLA    CLA22306   4.581   0.244   7.160  0.1761 -0.1992  0.0700
  247CLA    CLA22307   4.626   3.552   8.327 -0.1963  0.0217 -0.5493
  248CLA    CLA22308   4.650   0.643   0.284  0.0568  0.1798  0.3051
  249CLA    CLA22309   5.454   0.235   8.433  0.2538 -0.2666 -0.3224
  250CLA    CLA22310   3.523   1.162   1.197 -0.6667  0.0671 -0.1393
  251TIP3   OH222311   6.676   4.298   1.441 -0.0740 -0.3428  0.1923
  251TIP3    H122312   6.753   4.350   1.465  0.3154 -0.5074 -0.6762
  251TIP3    H222313   6.603   4.360   1.446  0.4043  0.3420 -0.9711
  252TIP3   OH222314   1.070   2.089   0.496 -0.1441  0.0832 -0.1918
  252TIP3    H122315   0.996   2.029   0.492 -2.0763  2.3575 -0.9316
  252TIP3    H222316   1.065   2.127   0.584  0.4483 -0.0896 -0.0774
  253TIP3   OH222317   6.074   1.901   7.548  0.1653 -0.1929 -0.3433
  253TIP3    H122318   6.027   1.869   7.471  1.8093 -2.9506 -0.3131
  253TIP3    H222319   6.122   1.825   7.581 -3.2183 -0.3809  5.6498
  254TIP3   OH222320   5.188   1.661   8.047 -0.1374  0.1879 -0.4251
  254TIP3    H122321   5.207   1.614   8.128  0.0685  0.1480 -0.4951
  254TIP3    H222322   5.252   1.626   7.984  1.0471  1.6459 -0.0865
  255TIP3   OH222323   3.209   3.389   0.396  0.6787 -0.0589 -0.0310
  255TIP3    H122324   3.175   3.313   0.444  0.6011  1.0672  1.8335
  255TIP3    H222325   3.157   3.463   0.429  1.0969  0.8930 -1.4035
  256TIP3   OH222326   4.600   3.843   6.763  0.1573  0.4038 -0.1380
  256TIP3    H122327   4.667   3.907   6.789  0.1171 -0.4139  2.2353
  256TIP3    H222328   4.527   3.897   6.731  0.3495  1.5533  1.2485
  257TIP3   OH222329   4.043   1.388   1.829 -0.3918  0.2519  0.1048
  257TIP3    H122330   4.007   1.476   1.826 -0.9347  0.0134 -1.4216
  257TIP3    H222331   4.086   1.382   1.914  0.6803  2.3800 -0.2130
  258TIP3   OH222332   6.424   0.663   0.293  0.1307 -0.2702  0.0041
  258TIP3    H122333   6.455   0.597   0.355  1.1562 -1.6966 -1.9162
  258TIP3    H222334   6.503   0.690   0.245 -1.0211 -1.9688 -3.1700
  259TIP3   OH222335   0.678   2.697   8.829 -0.1027  0.4536 -0.3171
  259TIP3    H122336   0.607   2.633   8.826 -0.2340  0.2708  2.9452
  259TIP3    H222337   0.740   2.660   8.891  0.0236  3.2185  1.3647
  260TIP3   OH222338   1.838   3.118   7.575  0.1805 -0.0649  0.0085
  260TIP3    H122339   1.843   3.146   7.484 -0.8905 -1.3677 -0.4851
  260TIP3    H222340   1.916   3.155   7.616  0.2015  1.3294 -1.1984
  261TIP3   OH222341   2.250   5.958   7.189 -0.2944  0.2577  0.1775
  261TIP3    H122342   2.329   5.919   7.152 -1.5363 -1.7135 -0.5604
  261TIP3    H222343   2.274   6.049   7.207  1.4055  0.3672 -2.2179
  262TIP3   OH222344   2.136   5.766   7.369 -0.1693  0.0669 -0.3212
  262TIP3    H122345   2.140   5.821   7.447 -2.5039  0.1048 -0.1594
  262TIP3    H222346   2.183   5.816   7.302  0.1492  0.9420  0.5334
  263TIP3   OH222347   5.841   5.240   8.505  0.3418 -0.1986  0.5130
  263TIP3    H122348   5.814   5.298   8.576  0.8220  0.9527 -0.2059
  263TIP3    H222349   5.879   5.299   8.439 -1.4329 -1.0292 -1.3873
  264TIP3   OH222350   1.847   5.120   0.235 -0.1592  0.2214 -0.0730
  264TIP3    H122351   1.873   5.043   0.285 -0.0788  0.3292  0.0556
  264TIP3    H222352   1.769   5.152   0.280 -0.8955 -0.4653 -0.8354
  265TIP3   OH222353   2.773   3.097   7.803  0.2037 -0.3761  0.2690
  265TIP3    H122354   2.837   3.155   7.762  2.0526 -2.3586  0.1778
  265TIP3    H222355   2.781   3.115   7.896 -1.4057  1.5555  0.1067
  266TIP3   OH222356   5.306   0.091   6.109 -0.1974 -0.0152  0.7036
  266TIP3    H122357   5.265   0.154   6.051  0.2931 -0.5789 -0.2749
  266TIP3    H222358   5.252   0.012   6.101 -0.7407  0.2129  1.8331
  267TIP3   OH222359   1.501   3.513   1.425 -0.1030 -0.0109 -0.3706
  267TIP3    H122360   1.466   3.538   1.510  0.0255  0.0884 -0.3465
  267TIP3    H222361   1.490   3.592   1.371 -0.1956 -0.0767 -0.4504
  268TIP3   OH222362   0.046   1.031   6.491 -0.5545 -0.1177  0.2197
  268TIP3    H122363   0.017   0.941   6.502 -1.8697  0.4143  1.5327
  268TIP3    H222364   0.110   1.028   6.420 -0.0554 -2.1694  0.7040
  269TIP3   OH222365   3.337   2.288   7.887  0.8868 -0.2097  0.1787
  269TIP3    H122366   3.316   2.223   7.954 -3.2724  0.0492 -0.6490
  269TIP3    H222367   3.339   2.238   7.806  2.5135  0.0314  0.0318
  270TIP3   OH222368   5.033   0.104   8.352  0.1349 -0.1928 -0.1019
  270TIP3    H122369   4.947   0.062   8.352  0.2275 -0.6743  3.0598
  270TIP3    H222370   5.018   0.188   8.397  1.2001  0.0132 -0.1010
  271TIP3   OH222371   6.033   0.685   0.252 -0.2610 -0.8072  0.3728
  271TIP3    H122372   6.093   0.759   0.262 -1.0056 -0.0697 -0.4745
  271TIP3    H222373   6.084   0.609   0.283  1.6271 -0.4285 -1.5258
  272TIP3   OH222374   4.720   6.571   7.403  0.7765  0.0868  1.1082
  272TIP3    H122375   4.708   6.636   7.334  1.8501  1.0774  1.8071
  272TIP3    H222376   4.733   6.488   7.356 -1.1950  0.2344  0.2171
  273TIP3   OH222377   5.370   5.561   6.837 -0.4416  1.0882 -0.0358
  273TIP3    H122378   5.445   5.515   6.875 -0.1815 -0.0432 -1.8340
  273TIP3    H222379   5.331   5.498   6.777 -2.5970  1.8148  0.5360
  274TIP3   OH222380   4.430   2.185   8.046 -0.3079 -0.2375 -0.4770
  274TIP3    H122381   4.381   2.180   8.129 -0.5140 -0.0049 -0.5844
  274TIP3    H222382   4.373   2.142   7.983 -0.7365  0.7346 -0.7722
  275TIP3   OH222383   4.989   0.951   7.098 -0.0975  0.7813  0.4085
  275TIP3    H122384   5.080   0.958   7.124 -0.8245  3.1772  2.6968
  275TIP3    H222385   4.958   0.872   7.143  1.1662 -1.1292 -1.8468
  276TIP3   OH222386   5.635   0.365   1.270  0.4241  0.1048  0.1152
  276TIP3    H122387   5.730   0.376   1.272  0.4656 -0.2468  1.9567
  276TIP3    H222388   5.621   0.276   1.303 -0.5435 -0.0008 -0.5391
  277TIP3   OH222389   5.283   6.154   8.568 -0.0879  0.0145 -0.3555
  277TIP3    H122390   5.208   6.099   8.591  0.4500 -0.6694 -0.1840
  277TIP3    H222391   5.262   6.191   8.483 -1.1682  0.8450  0.2493
  278TIP3   OH222392   4.095   4.342   1.314  0.2524 -0.3143  0.4414
  278TIP3    H122393   4.132   4.413   1.260  1.1248 -0.4266  0.8644
  278TIP3    H222394   4.093   4.379   1.402 -2.5474  0.3969  0.1598
  279TIP3   OH222395   0.233   1.887   1.140  0.8211  0.2535 -0.5245
  279TIP3    H122396   0.304   1.823   1.137  1.4963  0.8869  0.8897
  279TIP3    H222397   0.191   1.873   1.225 -1.0692 -0.4059 -1.5100
  280TIP3   OH222398   4.358   4.819   7.988 -0.3088 -0.3752  0.2048
  280TIP3    H122399   4.286   4.809   8.051 -1.0563 -0.0371 -0.5692
  280TIP3    H222400   4.349   4.909   7.956 -0.1808 -0.6590 -0.6503
  281TIP3   OH222401   3.102   3.055   0.230 -0.4588 -0.1178  0.2452
  281TIP3    H122402   3.027   3.114   0.232 -0.1374  0.2865  0.4462
  281TIP3    H222403   3.106   3.024   0.139 -1.1267 -0.4836  0.3348
  282TIP3   OH222404   3.922   3.465   1.445 -1.0762 -0.1473 -0.0944
  282TIP3    H122405   3.848   3.525   1.455 -1.4938 -0.3981 -1.3867
  282TIP3    H222406   3.921   3.411   1.524 -1.6261  0.5464  0.3866
  283TIP3   OH222407   6.786   2.426   6.107  0.1273 -0.1022  0.0012
  283TIP3    H122408   6.863   2.438   6.051 -0.0187  1.6508  0.1012
  283TIP3    H222409   6.812   2.464   6.191 -0.7985  0.4281  0.0621
  284TIP3   OH222410   5.877   6.545   1.504  0.3792  0.6139  0.6956
  284TIP3    H122411   5.955   6.560   1.451  0.2318  1.6649  0.7554
  284TIP3    H222412   5.885   6.607   1.577  0.9273 -1.2461  2.3187
  285TIP3   OH222413   2.303   4.823   2.052  0.2776 -0.8023  0.7759
  285TIP3    H122414   2.306   4.750   2.114  0.6889 -1.3009  0.1779
  285TIP3    H222415   2.372   4.804   1.989 -0.7174 -0.7626 -0.3567
  286TIP3   OH222416   5.607   1.694   6.857 -0.1984 -0.4995 -0.0201
  286TIP3    H122417   5.565   1.768   6.812  0.7738 -0.1756 -0.4181
  286TIP3    H222418   5.700   1.715   6.856 -0.2240  0.5785  4.0876
  287TIP3   OH222419   2.454   0.877   0.675 -0.2840 -0.4199 -0.1833
  287TIP3    H122420   2.370   0.891   0.719  0.2905  0.2121  0.7608
  287TIP3    H222421   2.434   0.818   0.603 -1.0501 -2.6247  1.7167
  288TIP3   OH222422   1.907   5.140   2.532  0.6692  0.0877 -0.7302
  288TIP3    H122423   1.903   5.213   2.594  0.5675 -1.3418  1.0351
  288TIP3    H222424   1.990   5.152   2.487  1.5159  0.3408  0.8124
  289TIP3   OH222425   1.519   6.783   0.712  0.2844 -0.2951  0.5077
  289TIP3    H122426   1.586   6.715   0.702  0.0915 -0.4787  0.4659
  289TIP3    H222427   1.506   6.818   0.624  0.0240 -0.5454  0.4476
  290TIP3   OH222428   0.940   1.774   1.394 -0.6190  0.2678  0.3914
  290TIP3    H122429   0.886   1.698   1.371  0.2231 -1.1136  2.6731
  290TIP3    H222430   0.888   1.821   1.460  0.1730 -0.0502  1.2520
  291TIP3   OH222431   6.550   3.937   0.407 -0.2381  0.0513 -0.2317
  291TIP3    H122432   6.557   4.018   0.356  0.1821 -0.3778 -0.8671
  291TIP3    H222433   6.560   3.867   0.343 -0.4153 -0.5095  0.3404
  292TIP3   OH222434   3.130   6.024   0.662 -0.0946 -0.3642 -0.5580
  292TIP3    H122435   3.207   6.043   0.715  0.3054 -0.0611 -1.2380
  292TIP3    H222436   3.103   5.936   0.689 -1.0942  0.5112  1.6003
  293TIP3   OH222437   4.762   0.839   8.422  0.7215 -0.0653 -0.0241
  293TIP3    H122438   4.674   0.805   8.412  0.7028 -0.0962  0.2474
  293TIP3    H222439   4.751   0.932   8.443  0.7013 -0.4189  1.6218
  294TIP3   OH222440   2.449   1.113   6.367 -0.0330  0.0421  0.4962
  294TIP3    H122441   2.473   1.189   6.315 -0.1577  0.6746  1.3429
  294TIP3    H222442   2.405   1.054   6.305 -0.8569  1.1061  0.0401
  295TIP3   OH222443   4.205   2.151   8.209  0.1856  0.3855 -0.0852
  295TIP3    H122444   4.145   2.135   8.281  0.2045 -1.7228 -0.4810
  295TIP3    H222445   4.176   2.233   8.171 -0.6559  0.8463  1.4800
  296TIP3   OH222446   2.209   0.726   7.750  0.3830  0.0378  0.4999
  296TIP3    H122447   2.290   0.736   7.799  0.0964  0.4768  0.8994
  296TIP3    H222448   2.142   0.763   7.808 -0.1430 -0.5884  0.2996
  297TIP3   OH222449   0.997   3.690   8.496 -1.3320  0.3486  0.0925
  297TIP3    H122450   0.947   3.656   8.422 -1.2742  1.5586 -0.5259
  297TIP3    H222451   1.080   3.720   8.458 -0.5769 -0.6177  0.9329
  298TIP3   OH222452   0.553   6.727   0.006  0.5152 -0.2167  0.7964
  298TIP3    H122453   0.566   6.791  -0.064 -2.3083 -1.3491 -0.9692
  298TIP3    H222454   0.633   6.674   0.006  0.8851  0.2706 -1.1278
  299TIP3   OH222455   0.171   4.596   8.028  0.1368  0.1456 -0.0238
  299TIP3    H122456   0.188   4.659   7.958 -0.2237 -0.8066 -1.0091
  299TIP3    H222457   0.091   4.551   8.000  0.4893 -0.8750  0.5447
  300TIP3   OH222458   2.385   2.878   7.423  0.1288 -0.3509 -0.1159
  300TIP3    H122459   2.388   2.971   7.446  3.6669 -0.2953 -0.3751
  300TIP3    H222460   2.424   2.873   7.336  0.3194 -2.1059  0.0250
  301TIP3   OH222461   3.815   0.054   2.501 -0.3868 -0.5104  0.3310
  301TIP3    H122462   3.752  -0.015   2.485  0.5445 -1.5212  0.9002
  301TIP3    H222463   3.888   0.011   2.545  2.1375 -0.0593 -3.0200
  302TIP3   OH222464   1.775   0.314   1.910 -0.3239 -0.3876 -1.0066
  302TIP3    H122465   1.794   0.260   1.834 -1.0479 -1.4467 -0.4625
  302TIP3    H222466   1.806   0.263   1.985 -2.0996 -0.6410 -0.3818
  303TIP3   OH222467   0.982   2.238   0.711  0.4417 -0.0234  0.2379
  303TIP3    H122468   0.971   2.149   0.744 -1.8952  0.3313  0.6054
  303TIP3    H222469   0.989   2.292   0.789 -1.1214  0.3881  0.1369
  304TIP3   OH222470   1.163   5.171   7.053  0.4196  0.1267 -0.4234
  304TIP3    H122471   1.235   5.110   7.069 -0.2896 -0.7699 -0.5559
  304TIP3    H222472   1.199   5.257   7.076  0.2255 -0.7295  4.0152
  305TIP3   OH222473   3.414   4.802   0.338  0.4846 -0.3138 -0.6241
  305TIP3    H122474   3.468   4.872   0.374  0.0036 -1.4892  2.6697
  305TIP3    H222475   3.469   4.761   0.271  2.0115  1.1291 -0.3214
  306TIP3   OH222476   6.212   4.377   7.655 -0.6969 -0.0886  0.0823
  306TIP3    H122477   6.228   4.287   7.683 -1.3211 -0.6256 -1.1805
  306TIP3    H222478   6.156   4.368   7.578 -1.4483  1.4200  0.4132
  307TIP3   OH222479   0.413   1.228   0.033  0.2865 -0.1064  0.1409
  307TIP3    H122480   0.429   1.195  -0.055  2.7697  0.6672  0.2240
  307TIP3    H222481   0.435   1.155   0.091  0.7278  0.0321  0.1567
  308TIP3   OH222482   3.808   4.126   0.643 -0.4055 -0.0519  0.2856
  308TIP3    H122483   3.712   4.131   0.637 -0.3562  0.4378 -0.1290
  308TIP3    H222484   3.835   4.214   0.668 -0.0886 -0.3083  0.8643
  309TIP3   OH222485   0.927   1.326   7.615  0.2374 -0.1134  0.0384
  309TIP3    H122486   1.020   1.339   7.634  0.3810 -1.4546  0.2948
  309TIP3    H222487   0.924   1.307   7.521  0.1993  0.0342  0.0082
  310TIP3   OH222488   2.634   5.318   0.082  0.1383  0.4679 -0.4939
  310TIP3    H122489   2.629   5.237   0.032  0.7352 -0.1380  0.3889
  310TIP3    H222490   2.590   5.383   0.028 -0.5152 -0.4860 -1.1314
  311TIP3   OH222491   1.070   6.442   0.403 -0.0908 -0.0153 -0.1034
  311TIP3    H122492   1.095   6.416   0.492  0.4040 -1.0294 -0.5209
  311TIP3    H222493   0.976   6.426   0.399  0.0977 -1.2451 -0.1552
  312TIP3   OH222494   5.744   3.942   1.662  0.6638  0.0804 -0.4796
  312TIP3    H122495   5.764   4.034   1.641 -0.0910  0.5883  0.8874
  312TIP3    H222496   5.682   3.916   1.594 -0.8483  1.3210  0.3495
  313TIP3   OH222497   3.617   3.357   1.618 -0.0165  0.0977  0.7132
  313TIP3    H122498   3.579   3.302   1.687 -1.1320  0.9449  0.8131
  313TIP3    H222499   3.565   3.337   1.540  0.5102 -0.0356  0.3905
  314TIP3   OH222500   0.530   0.244   7.302 -0.1726  0.6871  0.3768
  314TIP3    H122501   0.577   0.306   7.246  0.3248  1.2818  1.4316
  314TIP3    H222502   0.454   0.293   7.334 -0.2529  0.4720  0.5182
  315TIP3   OH222503   5.232   3.879   8.408  0.2614  0.1544 -0.2663
  315TIP3    H122504   5.288   3.877   8.485  0.3439 -0.1419 -0.3337
  315TIP3    H222505   5.289   3.908   8.337  0.3094 -0.0689 -0.3188
  316TIP3   OH222506   4.338   2.831   8.564 -0.2355  0.2038 -0.2715
  316TIP3    H122507   4.380   2.792   8.487  0.5512 -1.5490  0.9772
  316TIP3    H222508   4.274   2.766   8.592  0.1387  0.3751  1.0771
  317TIP3   OH222509   6.355   4.213   0.591  0.0124 -0.1357  0.0184
  317TIP3    H122510   6.295   4.190   0.662  1.2158 -1.3985  0.6766
  317TIP3    H222511   6.306   4.276   0.538 -2.9489 -3.0794 -1.0572
  318TIP3   OH222512   0.661   2.348   7.795 -0.0708  0.6686 -0.5971
  318TIP3    H122513   0.685   2.424   7.742 -0.3824 -0.2542 -2.1321
  318TIP3    H222514   0.715   2.276   7.760  0.3035  0.1904  0.8916
  319TIP3   OH222515   2.119   6.611   0.919 -0.1236 -0.3257  0.5772
  319TIP3    H122516   2.132   6.704   0.903 -1.2595  0.0634  1.7350
  319TIP3    H222517   2.024   6.599   0.916 -0.0014 -1.4134  0.6390
  320TIP3   OH222518   4.102   0.139   8.023 -0.0400 -0.3061 -0.0398
  320TIP3    H122519   4.064   0.170   8.105 -1.9505 -1.3410 -0.4782
  320TIP3    H222520   4.118   0.046   8.038 -1.4555 -0.7673 -1.1682
  321TIP3   OH222521   5.396   6.038   7.751  0.1270 -0.0984 -0.2582
  321TIP3    H122522   5.411   6.081   7.667 -2.0407  2.0523  0.3283
  321TIP3    H222523   5.476   6.052   7.800  1.8912 -2.3818 -2.2549
  322TIP3   OH222524   5.490   0.863   8.568  0.0175  0.4456  0.3817
  322TIP3    H122525   5.564   0.805   8.554  1.0821  1.5470  1.1806
  322TIP3    H222526   5.525   0.951   8.551 -0.7066  1.1113  2.0515
  323TIP3   OH222527   4.519   6.571   7.046  0.3308 -0.1257 -0.2242
  323TIP3    H122528   4.518   6.481   7.077  0.9884 -0.3291 -0.7645
  323TIP3    H222529   4.473   6.568   6.962 -0.8733  0.3043  0.3992
  324TIP3   OH222530   3.580   5.011   8.365  0.4178  0.2778  0.1996
  324TIP3    H122531   3.549   5.080   8.306 -1.0879 -0.3278  0.2490
  324TIP3    H222532   3.600   4.937   8.308 -1.1612 -0.3515  0.4204
  325TIP3   OH222533   5.443   0.575   0.579 -0.0119 -0.3221  0.2755
  325TIP3    H122534   5.402   0.592   0.663 -1.4183 -1.1871 -0.2101
  325TIP3    H222535   5.376   0.597   0.514  0.0188 -2.3753 -0.5213
  326TIP3   OH222536   2.550   2.467   1.061  0.5152  0.5676  0.2855
  326TIP3    H122537   2.643   2.488   1.072  0.0226  3.6373 -0.5052
  326TIP3    H222538   2.503   2.542   1.097 -1.6173 -0.2026 -0.6836
  327TIP3   OH222539   1.221   2.868   0.362 -0.4166 -0.5389 -0.4231
  327TIP3    H122540   1.175   2.952   0.372 -0.5785 -0.8224  1.6752
  327TIP3    H222541   1.164   2.804   0.404  1.0885 -1.1859  0.7406
  328TIP3   OH222542   6.111   0.633   7.989 -0.8565 -0.6824  0.3178
  328TIP3    H122543   6.100   0.552   7.940  2.4587 -0.4455 -1.0955
  328TIP3    H222544   6.161   0.691   7.930  0.1327  0.9777  2.6166
  329TIP3   OH222545   2.808   0.808   7.752 -0.1598 -0.5244  0.6602
  329TIP3    H122546   2.863   0.775   7.681 -0.2339 -0.8714  0.7596
  329TIP3    H222547   2.775   0.729   7.794 -2.5706 -0.3845 -0.7882
  330TIP3   OH222548   6.347   6.507   2.022 -0.1064  0.1436  0.5534
  330TIP3    H122549   6.356   6.417   2.055  1.2004  0.6554  1.6524
  330TIP3    H222550   6.253   6.519   2.011 -0.2894 -1.5041 -0.0573
  331TIP3   OH222551   4.968   4.699   1.498  0.2300 -0.5068  0.1409
  331TIP3    H122552   5.040   4.706   1.436  0.0859 -0.1364  0.0074
  331TIP3    H222553   4.949   4.790   1.522 -0.3090 -0.5863  0.0329
  332TIP3   OH222554   5.200   0.693   6.346 -0.0019 -0.6479 -0.5939
  332TIP3    H122555   5.233   0.605   6.329  2.2959  0.0650 -0.1273
  332TIP3    H222556   5.142   0.683   6.421 -0.3196 -1.8466 -0.9768
  333TIP3   OH222557   4.459   3.609   8.581 -0.3083  0.4913  0.0614
  333TIP3    H122558   4.365   3.611   8.564 -0.3326  0.5231  0.2051
  333TIP3    H222559   4.498   3.588   8.496 -0.6024 -2.4863  0.5428
  334TIP3   OH222560   0.798   1.861   8.826 -0.5450  0.1976  0.1764
  334TIP3    H122561   0.844   1.895   8.903 -0.7880 -0.6144  0.6848
  334TIP3    H222562   0.867   1.823   8.771 -0.5883 -0.9067  0.8791
  335TIP3   OH222563   5.842   3.698   7.492 -0.1356 -0.0698  0.2732
  335TIP3    H122564   5.881   3.727   7.410  0.3756  1.0557  0.9027
  335TIP3    H222565   5.905   3.723   7.559 -0.6178 -0.8434  1.0362
  336TIP3   OH222566   3.873   5.168   7.350 -0.3236 -0.6663 -0.0676
  336TIP3    H122567   3.872   5.258   7.382  0.0556 -0.0656 -1.6247
  336TIP3    H222568   3.819   5.119   7.412 -1.1181  0.7657  0.4109
  337TIP3   OH222569   6.719   6.779   1.566 -0.3541 -0.1186 -0.3759
  337TIP3    H122570   6.715   6.800   1.659  0.4536 -0.7680 -0.1849
  337TIP3    H222571   6.736   6.685   1.564  0.7550  0.0891 -1.1746
  338TIP3   OH222572   6.632   2.617   7.899  0.2998 -0.2232  0.1934
  338TIP3    H122573   6.637   2.712   7.906  1.4766 -0.2062 -0.4662
  338TIP3    H222574   6.605   2.588   7.986  0.2122  0.6945  0.4864
  339TIP3   OH222575   0.529   6.108   0.506 -0.4033  0.3702  0.5183
  339TIP3    H122576   0.491   6.040   0.561 -1.1080  0.7769  0.5452
  339TIP3    H222577   0.596   6.149   0.560  0.4478 -0.6864  0.2981
  340TIP3   OH222578   5.875   4.936   2.022 -0.3856 -0.3478  0.2271
  340TIP3    H122579   5.935   4.943   2.096 -0.6797 -0.3549  0.4713
  340TIP3    H222580   5.916   4.987   1.952 -0.5230  0.3968  0.6757
  341TIP3   OH222581   0.163   3.457   0.075  0.0861 -0.2196  0.0526
  341TIP3    H122582   0.081   3.501   0.097 -0.0564  0.0426 -0.9619
  341TIP3    H222583   0.216   3.464   0.155  0.8774  3.6238 -0.5777
  342TIP3   OH222584   5.850   2.685   8.197  0.2250 -0.4320  0.5837
  342TIP3    H122585   5.765   2.725   8.181 -0.2432 -1.8744 -0.6736
  342TIP3    H222586   5.905   2.758   8.228 -1.0348  0.8361 -0.0738
  343TIP3   OH222587   0.211   4.073   6.676 -0.1338  0.3901 -0.2556
  343TIP3    H122588   0.253   4.156   6.656  1.6006 -0.3673 -0.0127
  343TIP3    H222589   0.272   4.030   6.737 -1.7713 -0.3757  0.9176
  344TIP3   OH222590   6.708   6.778   8.692 -0.1346  0.5070  0.0220
  344TIP3    H122591   6.617   6.751   8.707 -0.0294  0.8905  1.5123
  344TIP3    H222592   6.701   6.860   8.644 -0.4890 -0.8862 -2.4720
  345TIP3   OH222593   3.363   5.702   1.075  0.0407  0.2881  0.2698
  345TIP3    H122594   3.298   5.771   1.060 -0.1639 -0.1732 -1.1444
  345TIP3    H222595   3.447   5.744   1.059  0.1621  0.9835  2.4603
  346TIP3   OH222596   3.562   2.160   8.086 -0.5484  0.1722 -0.4564
  346TIP3    H122597   3.509   2.216   8.143  1.0562  0.2472  1.0369
  346TIP3    H222598   3.611   2.222   8.032 -1.3307  0.1156 -1.2520
  347TIP3   OH222599   4.429   5.207   8.179 -0.0125 -0.1967 -0.0868
  347TIP3    H122600   4.334   5.217   8.180 -0.1493 -1.2988 -0.5262
  347TIP3    H222601   4.449   5.156   8.258  0.0423 -1.1597 -0.6989
  348TIP3   OH222602   0.478   1.653   1.084  0.0812 -0.3047  0.1078
  348TIP3    H122603   0.540   1.703   1.138 -0.1492  2.0750 -1.6954
  348TIP3    H222604   0.534   1.603   1.024  0.2971  0.1144 -0.0454
  349TIP3   OH222605   3.229   2.424   0.729  0.1534 -0.7546 -0.7375
  349TIP3    H122606   3.184   2.481   0.666  2.8593  2.8267  0.1862
  349TIP3    H222607   3.165   2.410   0.799 -0.4099  2.1704 -0.5325
  350TIP3   OH222608   4.532   2.570   0.596 -0.2135 -0.5995  0.2744
  350TIP3    H122609   4.579   2.624   0.660  0.6703 -0.4010 -0.5111
  350TIP3    H222610   4.494   2.499   0.647 -1.9008  1.0570  1.4368
  351TIP3   OH222611   6.015   3.308   1.648 -0.2249 -0.0142 -0.0224
  351TIP3    H122612   5.959   3.242   1.688  2.3628 -0.8026  2.6658
  351TIP3    H222613   6.069   3.260   1.586  0.4938 -0.1609  0.6954
  352TIP3   OH222614   3.771   6.102   7.069 -0.1895 -0.2658 -0.7857
  352TIP3    H122615   3.794   6.150   6.990 -1.3815  0.8830 -0.4741
  352TIP3    H222616   3.676   6.114   7.078  0.0934  0.8455  1.5456
  353TIP3   OH222617   1.967   5.505   7.823  0.1082  0.1030  0.2216
  353TIP3    H122618   1.947   5.531   7.913 -0.8648  1.2153 -0.2926
  353TIP3    H222619   1.966   5.409   7.825 -0.5108  0.1199  1.2592
  354TIP3   OH222620   3.149   0.777   0.552 -0.0600  0.2777  0.1197
  354TIP3    H122621   3.116   0.867   0.552 -0.7361  0.0414  0.7244
  354TIP3    H222622   3.087   0.730   0.496  0.3079  0.1928 -0.2154
  355TIP3   OH222623   2.031   1.339   7.796 -0.0877 -0.2385  0.4073
  355TIP3    H122624   2.082   1.419   7.811 -0.6488  0.1394  0.3627
  355TIP3    H222625   2.003   1.312   7.884  0.0326 -0.3410  0.4144
  356TIP3   OH222626   1.814   4.543   8.149 -0.7631 -0.3547  0.4306
  356TIP3    H122627   1.827   4.635   8.126 -1.6184 -0.2979  0.1280
  356TIP3    H222628   1.870   4.494   8.089 -0.1664 -0.0287  0.7138
  357TIP3   OH222629   6.647   3.104   0.570  0.3242  0.2415  0.0243
  357TIP3    H122630   6.683   3.016   0.573  0.4487  0.3112  1.0263
  357TIP3    H222631   6.591   3.105   0.492  1.9308 -0.0750 -1.1880
  358TIP3   OH222632   0.271   4.126   8.441  0.0744  0.1455  0.0279
  358TIP3    H122633   0.251   4.040   8.478  1.4505 -0.1164  0.2385
  358TIP3    H222634   0.367   4.127   8.434 -0.0174  0.9318 -1.7514
  359TIP3   OH222635   4.106   1.469   7.777  0.1265 -0.4896 -0.6963
  359TIP3    H122636   4.012   1.469   7.760  0.0190 -2.2800 -0.2679
  359TIP3    H222637   4.144   1.428   7.699  0.2231 -2.6703  0.4206
  360TIP3   OH222638   3.392   1.454   1.578  0.2790 -0.3763  0.4398
  360TIP3    H122639   3.387   1.550   1.576 -0.2204 -0.4000 -1.5016
  360TIP3    H222640   3.309   1.426   1.618 -2.0855 -0.0310 -3.7062
  361TIP3   OH222641   3.697   6.439   1.341  0.4926  0.6149 -0.0577
  361TIP3    H122642   3.615   6.489   1.340  0.7765  1.0866 -0.4906
  361TIP3    H222643   3.705   6.405   1.252  0.1061 -0.5518  0.3296
  362TIP3   OH222644   5.523   4.349   8.063 -0.3595 -0.4036  0.1814
  362TIP3    H122645   5.510   4.258   8.038  1.7870 -0.6763 -0.1280
  362TIP3    H222646   5.608   4.350   8.107 -2.0862  0.7582  3.9532
  363TIP3   OH222647   2.880   2.710   6.443 -0.5932  0.0970 -0.1747
  363TIP3    H122648   2.794   2.688   6.479 -0.8182  0.0232 -0.7431
  363TIP3    H222649   2.900   2.795   6.481 -0.3560 -0.4294  0.9296
  364TIP3   OH222650   4.047   5.702   6.406 -0.2933 -0.2164  0.0783
  364TIP3    H122651   3.985   5.633   6.426  0.1226 -1.2073 -1.8269
  364TIP3    H222652   4.133   5.660   6.413 -0.0164  0.1963 -0.7081
  365TIP3   OH222653   1.451   4.293   6.748  0.7564 -0.7733  0.2274
  365TIP3    H122654   1.499   4.353   6.690 -1.3156 -0.3103 -1.0939
  365TIP3    H222655   1.429   4.219   6.692  1.3702 -1.7871  1.2800
  366TIP3   OH222656   1.431   0.687   8.625  0.5707 -0.1038 -0.4278
  366TIP3    H122657   1.481   0.681   8.543  0.1646 -1.9111 -0.5818
  366TIP3    H222658   1.438   0.779   8.651  0.3469  0.6227 -2.7223
  367TIP3   OH222659   0.011   4.188   1.688  0.1524  0.0292  0.4504
  367TIP3    H122660   0.093   4.185   1.737 -0.0350 -1.4358  0.7193
  367TIP3    H222661   0.039   4.183   1.596  0.3800 -0.1313  0.5266
  368TIP3   OH222662   2.409   3.457   0.586  0.2308 -0.1498  0.4702
  368TIP3    H122663   2.352   3.529   0.557  0.1489 -0.0712  0.8321
  368TIP3    H222664   2.405   3.394   0.514 -0.1885 -0.0722  0.4205
  369TIP3   OH222665   3.779   0.219   0.086  0.5035 -0.5174 -0.0918
  369TIP3    H122666   3.853   0.224   0.146  1.9810 -0.7959 -1.8060
  369TIP3    H222667   3.777   0.304   0.042  0.4619 -0.8776 -0.7948
  370TIP3   OH222668   5.163   3.122   7.271  0.3989  0.0169  0.0866
  370TIP3    H122669   5.198   3.201   7.311  0.2746  0.7042 -1.1331
  370TIP3    H222670   5.161   3.141   7.178 -1.0699 -0.8670 -0.0839
  371TIP3   OH222671   5.944   1.582   0.318 -0.3121 -0.2918 -0.2443
  371TIP3    H122672   6.011   1.514   0.325  1.3962  1.2344 -0.7072
  371TIP3    H222673   5.975   1.638   0.246 -2.0743  0.5100 -0.4188
  372TIP3   OH222674   1.347   2.607   8.199  0.2414  0.3754  0.7632
  372TIP3    H122675   1.342   2.702   8.197  1.9863  0.4802 -0.3501
  372TIP3    H222676   1.343   2.580   8.107 -0.3212 -0.6590  1.0638
  373TIP3   OH222677   1.857   3.667   8.037  0.1076 -0.3678  0.3398
  373TIP3    H122678   1.854   3.583   7.990  1.5654 -0.2394 -0.0386
  373TIP3    H222679   1.842   3.644   8.128  0.7150 -1.0861  0.2702
  374TIP3   OH222680   2.459   4.842   8.679  0.1680  0.6986 -0.1338
  374TIP3    H122681   2.375   4.885   8.661 -0.4713 -0.1042  0.8257
  374TIP3    H222682   2.456   4.822   8.772  1.0295 -0.1881 -0.2847
  375TIP3   OH222683   1.108   6.144   7.196  0.4124 -0.2649 -0.7270
  375TIP3    H122684   1.118   6.239   7.186  0.4196 -0.4098 -2.3543
  375TIP3    H222685   1.052   6.118   7.122  0.3851 -1.5244 -0.2792
  376TIP3   OH222686   4.480   5.672   7.614 -0.7439  0.2251  0.2648
  376TIP3    H122687   4.555   5.682   7.556 -0.3113  0.0632  0.7842
  376TIP3    H222688   4.424   5.608   7.572 -1.9585  2.3152 -1.5154
  377TIP3   OH222689   0.817   2.087   8.091 -0.1960 -0.7045 -0.0894
  377TIP3    H122690   0.765   2.134   8.157 -2.6334 -0.6696 -1.9005
  377TIP3    H222691   0.887   2.148   8.067 -1.3601  0.6937 -0.0373
  378TIP3   OH222692   5.634   1.347   8.700  0.3941 -0.4689 -0.1198
  378TIP3    H122693   5.555   1.398   8.682 -0.5761 -1.8584  0.0387
  378TIP3    H222694   5.665   1.380   8.784  0.4710  0.6530 -0.5714
  379TIP3   OH222695   1.062   6.438   6.880 -0.4958  0.3527 -0.2782
  379TIP3    H122696   1.035   6.346   6.879  0.5759  0.0271 -1.4056
  379TIP3    H222697   0.993   6.483   6.832 -0.4838 -0.0406 -0.6758
  380TIP3   OH222698   4.834   1.585   8.393 -0.4134 -0.1179 -0.3291
  380TIP3    H122699   4.908   1.526   8.382 -1.1343 -0.9472 -0.9002
  380TIP3    H222700   4.814   1.615   8.305 -0.5911  0.3164 -0.1441
  381TIP3   OH222701   5.621   4.237   1.689  0.4290 -0.6119 -0.3978
  381TIP3    H122702   5.591   4.237   1.598 -0.3845  1.1515 -0.1696
  381TIP3    H222703   5.716   4.233   1.683  0.3798 -0.5917 -1.3343
  382TIP3   OH222704   3.021   0.113   7.857  0.0886 -0.0511 -0.3298
  382TIP3    H122705   2.989   0.200   7.835 -0.0063 -0.1207 -0.4639
  382TIP3    H222706   3.091   0.096   7.794  0.0804 -0.0893 -0.3289
  383TIP3   OH222707   2.448   5.989   6.718 -0.2389  0.3180  0.1034
  383TIP3    H122708   2.527   5.958   6.675 -0.4720 -1.4153  0.8348
  383TIP3    H222709   2.478   6.021   6.803 -0.1167  1.2618 -0.2891
  384TIP3   OH222710   6.640   0.745   7.563  0.1292 -0.2828 -0.5438
  384TIP3    H122711   6.601   0.832   7.558  1.1346  0.1830 -0.4913
  384TIP3    H222712   6.701   0.742   7.489  0.9623 -0.4930  0.1264
  385TIP3   OH222713   3.473   3.948   1.609 -0.2545  0.1341  0.1693
  385TIP3    H122714   3.400   3.912   1.559  0.3981 -1.5424  0.3595
  385TIP3    H222715   3.456   3.919   1.699 -0.1706  1.0991  0.5119
  386TIP3   OH222716   1.906   1.313   0.784  0.2499 -0.4129  0.1765
  386TIP3    H122717   1.897   1.348   0.873  2.8073  1.6782 -0.2776
  386TIP3    H222718   2.000   1.311   0.768  0.0667 -3.6337 -1.4757
  387TIP3   OH222719   6.130   2.234   6.822  0.0740  0.1325  0.1153
  387TIP3    H122720   6.125   2.223   6.917  1.9882  1.1934  0.4008
  387TIP3    H222721   6.056   2.291   6.800  0.1265  0.6066  1.1145
  388TIP3   OH222722   4.597   4.844   1.964  0.4384  0.2926 -0.4990
  388TIP3    H122723   4.545   4.924   1.954 -2.2115 -1.0656  0.9997
  388TIP3    H222724   4.535   4.773   1.948  2.1830 -1.4762  0.1230
  389TIP3   OH222725   0.458   2.853   1.119 -0.3931 -0.2896  0.3918
  389TIP3    H122726   0.395   2.840   1.190 -0.9067 -0.5876 -0.1120
  389TIP3    H222727   0.467   2.948   1.112 -0.7439 -0.2474  0.5055
  390TIP3   OH222728   2.428   0.059   1.761 -0.1396 -0.3904 -0.1327
  390TIP3    H122729   2.489   0.115   1.807  0.1313 -0.3214 -0.5729
  390TIP3    H222730   2.372   0.119   1.711 -2.8310 -0.1374  2.8143
  391TIP3   OH222731   5.429   5.544   1.354  0.3656  0.7582 -0.0397
  391TIP3    H122732   5.379   5.626   1.349 -1.3859 -0.2194  0.6002
  391TIP3    H222733   5.400   5.504   1.436  0.5368 -0.8942 -0.7581
  392TIP3   OH222734   0.380   1.801   8.172  0.2386 -0.2510 -0.2170
  392TIP3    H122735   0.412   1.782   8.260  0.0617  2.2692  0.4522
  392TIP3    H222736   0.302   1.854   8.185  0.2136  0.1931 -1.8923
  393TIP3   OH222737   5.166   1.550   1.106  0.0719  0.6254 -0.3366
  393TIP3    H122738   5.131   1.462   1.118 -1.6034  1.3178  0.2263
  393TIP3    H222739   5.227   1.562   1.179  0.9847 -0.3489 -0.9134
  394TIP3   OH222740   2.537   3.989   8.308  0.1029 -0.0167  0.2296
  394TIP3    H122741   2.482   4.048   8.256 -1.3909 -0.3967  1.2913
  394TIP3    H222742   2.541   4.030   8.394 -0.7644 -1.3029  0.9164
  395TIP3   OH222743   3.063   3.887   8.803 -0.8437  0.2873 -0.4816
  395TIP3    H122744   3.026   3.804   8.835  1.0894 -0.8161 -0.9288
  395TIP3    H222745   3.040   3.889   8.710  1.0133 -0.9374 -1.0192
  396TIP3   OH222746   4.576   2.919   7.211 -0.2272 -0.1050 -0.7261
  396TIP3    H122747   4.504   2.876   7.165 -0.4075  1.5042 -2.0391
  396TIP3    H222748   4.541   3.004   7.235  0.3006 -0.4247  1.3189
  397TIP3   OH222749   0.922   6.428   1.732  0.1961  0.2095  0.0770
  397TIP3    H122750   0.869   6.365   1.781 -0.5455 -0.1996 -1.2173
  397TIP3    H222751   0.992   6.452   1.793 -0.2485 -0.8725  1.0608
  398TIP3   OH222752   2.074   5.391   0.396 -0.7444  0.3139  0.0050
  398TIP3    H122753   2.048   5.429   0.312  0.7307  0.5359 -0.3815
  398TIP3    H222754   2.129   5.458   0.437 -0.9285 -0.0452  0.8818
  399TIP3   OH222755   6.535   4.557   8.466  0.0285  0.7100  0.1777
  399TIP3    H122756   6.468   4.612   8.506 -1.2915 -1.3006  0.9161
  399TIP3    H222757   6.563   4.498   8.536 -0.5059 -1.2234 -1.1371
  400TIP3   OH222758   4.140   1.032   6.918  0.5027 -0.3001  0.0625
  400TIP3    H122759   4.067   0.982   6.955 -0.9538 -0.5847 -2.9126
  400TIP3    H222760   4.100   1.112   6.885  1.9607  0.5445  0.2282
  401TIP3   OH222761   1.041   1.020   8.262  0.1104  0.6076  0.1423
  401TIP3    H122762   1.126   0.978   8.275  0.3334  0.9787 -0.0957
  401TIP3    H222763   1.019   1.055   8.348  0.7476  1.5115 -0.0452
  402TIP3   OH222764   5.879   6.084   7.799  0.1192  0.2321  0.1497
  402TIP3    H122765   5.938   6.033   7.743  1.3844  0.6549  1.0339
  402TIP3    H222766   5.805   6.026   7.816  0.5594 -0.5422 -0.5299
  403TIP3   OH222767   1.669   2.245   1.019 -0.5841 -0.1675 -0.0780
  403TIP3    H122768   1.654   2.321   1.075 -2.4783 -0.6111  0.0564
  403TIP3    H222769   1.675   2.171   1.080 -1.0524 -0.4372 -0.3571
  404TIP3   OH222770   4.885   0.310   1.421 -0.7148 -0.3327  0.2872
  404TIP3    H122771   4.899   0.334   1.329  1.3357 -0.8719  0.4102
  404TIP3    H222772   4.930   0.227   1.431 -0.0918  0.1737  2.0073
  405TIP3   OH222773   4.103   1.414   8.035  0.3098 -0.2087  0.2403
  405TIP3    H122774   4.021   1.456   8.062 -0.3035 -0.9472 -0.3866
  405TIP3    H222775   4.116   1.442   7.945  0.7407 -0.1035  0.3356
  406TIP3   OH222776   1.523   4.398   0.642  0.1069 -0.4565  0.6973
  406TIP3    H122777   1.600   4.375   0.693 -0.9114  0.4809  2.7615
  406TIP3    H222778   1.517   4.493   0.647 -0.6102 -0.4210 -0.3422
  407TIP3   OH222779   3.734   4.422   1.489  0.0657 -0.5607 -0.5080
  407TIP3    H122780   3.793   4.493   1.462 -0.1895 -0.1919 -0.1005
  407TIP3    H222781   3.764   4.399   1.577 -2.4445  1.8988  1.1294
  408TIP3   OH222782   1.013   2.606   7.828  0.3178 -0.3992  0.0707
  408TIP3    H122783   1.048   2.683   7.782  0.7049 -0.3136  0.5085
  408TIP3    H222784   0.933   2.584   7.779 -0.3949  0.9363  0.5883
  409TIP3   OH222785   2.433   6.458   1.424  0.0826  0.4945  0.3784
  409TIP3    H122786   2.422   6.474   1.518  1.6403  0.0134  0.6762
  409TIP3    H222787   2.368   6.515   1.383 -0.9214  0.4108  1.7517
  410TIP3   OH222788   2.878   6.178   0.325  0.2203  0.1332  0.3230
  410TIP3    H122789   2.922   6.224   0.253 -1.0144  0.0353 -0.5366
  410TIP3    H222790   2.799   6.229   0.341 -1.1355 -1.5768 -0.5852
  411TIP3   OH222791   3.305   5.592   8.256  0.2835 -0.4898 -0.1065
  411TIP3    H122792   3.326   5.616   8.347  0.5772 -0.1633 -0.2606
  411TIP3    H222793   3.383   5.615   8.206 -0.6276  1.2604 -0.7845
  412TIP3   OH222794   1.027   3.332   1.519 -0.0607 -0.2056 -1.2033
  412TIP3    H122795   0.936   3.344   1.546  0.0296 -0.4882 -0.7585
  412TIP3    H222796   1.077   3.337   1.601  0.3708  0.3714 -1.4934
  413TIP3   OH222797   4.541   4.522   7.416  0.0130  0.5178  0.4781
  413TIP3    H122798   4.550   4.469   7.337 -1.1517 -0.4311  0.9545
  413TIP3    H222799   4.452   4.505   7.447 -0.1547  2.2275  1.0377
  414TIP3   OH222800   5.910   0.235   8.610 -0.2883 -0.1103  0.0294
  414TIP3    H122801   5.850   0.193   8.548  1.3090 -0.4397 -1.3878
  414TIP3    H222802   5.898   0.188   8.692 -0.2950 -1.7269 -0.8673
  415TIP3   OH222803   2.755   3.955   8.737  0.0114  0.3140 -0.0359
  415TIP3    H122804   2.799   3.872   8.750 -1.4592 -0.5472 -0.3267
  415TIP3    H222805   2.694   3.963   8.811 -0.7876  0.4941 -0.6963
  416TIP3   OH222806   4.092   6.752   7.002  0.4367 -0.2563  0.2090
  416TIP3    H122807   4.097   6.660   6.976  2.7221 -0.3242  0.7363
  416TIP3    H222808   4.066   6.749   7.094  0.1431 -0.3293  0.1278
  417TIP3   OH222809   3.077   4.667   1.499 -0.6752 -0.1388 -0.2864
  417TIP3    H122810   3.018   4.629   1.564 -1.9832  1.5036 -0.4577
  417TIP3    H222811   3.120   4.591   1.459 -2.0140 -1.3369  0.4486
  418TIP3   OH222812   6.311   6.679   0.988  0.1733 -0.0661 -0.6410
  418TIP3    H122813   6.395   6.711   0.955 -0.0426  1.1498 -0.0972
  418TIP3    H222814   6.333   6.599   1.035  0.9327 -0.1274 -1.0836
  419TIP3   OH222815   5.830   5.755   7.617  0.0897  0.5362 -0.3352
  419TIP3    H122816   5.871   5.759   7.704  0.1024  2.4581 -0.3890
  419TIP3    H222817   5.889   5.805   7.561 -1.5391  2.1074 -0.7268
  420TIP3   OH222818   0.425   1.592   0.580  0.6916 -0.1923 -1.1166
  420TIP3    H122819   0.488   1.661   0.561  2.2577 -1.4651 -0.7338
  420TIP3    H222820   0.380   1.577   0.497  0.9436  0.6665 -1.4164
  421TIP3   OH222821   3.731   5.882   1.478 -0.2645  0.0198  0.0678
  421TIP3    H122822   3.700   5.961   1.433 -0.3356 -0.0179  0.0505
  421TIP3    H222823   3.654   5.849   1.524 -0.4911 -0.5997 -0.7386
  422TIP3   OH222824   1.236   0.560   6.478 -0.0214 -0.6328  0.0603
  422TIP3    H122825   1.316   0.507   6.474 -0.2641 -0.9785 -0.3523
  422TIP3    H222826   1.178   0.510   6.535 -1.0779 -1.9866 -2.0931
  423TIP3   OH222827   5.801   0.764   8.208  0.1643  1.0476 -0.5041
  423TIP3    H122828   5.818   0.676   8.241  0.2475  0.4934 -1.9583
  423TIP3    H222829   5.709   0.780   8.228  0.1594  0.6447 -0.1956
  424TIP3   OH222830   1.955   6.336   8.142  0.5717 -0.2335  0.0824
  424TIP3    H122831   2.045   6.349   8.171  0.8905 -1.1401 -0.4507
  424TIP3    H222832   1.905   6.321   8.222  0.7871  0.7866  0.4226
  425TIP3   OH222833   1.177   5.683   0.028  0.3033  0.9138  0.1570
  425TIP3    H122834   1.186   5.676   0.124  0.4396  0.2153  0.0973
  425TIP3    H222835   1.257   5.729   0.001 -0.1250  1.8591  0.4574
  426TIP3   OH222836   1.067   3.316   6.308  0.1164 -0.0706 -0.2411
  426TIP3    H122837   1.041   3.406   6.285 -2.4307  0.0794  2.6413
  426TIP3    H222838   1.159   3.323   6.333  0.1512  1.5674 -0.7044
  427TIP3   OH222839   5.262   0.072   7.435  0.2375 -0.2921  0.9635
  427TIP3    H122840   5.292   0.080   7.526  0.2887 -1.1005  1.0263
  427TIP3    H222841   5.337   0.098   7.383  0.3875 -0.3533  1.1476
  428TIP3   OH222842   4.127   1.248   8.839 -0.3738  0.5471  0.2175
  428TIP3    H122843   4.202   1.189   8.842  0.9567  1.9426 -2.2110
  428TIP3    H222844   4.141   1.310   8.910  0.1453  0.1266  0.4874
  429TIP3   OH222845   1.377   2.866   8.142 -0.0472 -0.2470 -0.0708
  429TIP3    H122846   1.443   2.870   8.074  0.6992  3.4209  0.6574
  429TIP3    H222847   1.296   2.892   8.098 -0.2439 -0.9544 -0.1479
  430TIP3   OH222848   0.233   4.397   8.302  0.1294  0.5425 -0.1147
  430TIP3    H122849   0.313   4.400   8.249  0.5228 -1.2107  0.3092
  430TIP3    H222850   0.229   4.307   8.333 -1.9497  0.6391  0.0028
  431TIP3   OH222851   1.175   6.715   0.414  0.6512 -0.2833 -0.0563
  431TIP3    H122852   1.115   6.771   0.365  2.3138 -0.1776 -2.1302
  431TIP3    H222853   1.129   6.631   0.422 -1.0419  0.7096  1.3150
  432TIP3   OH222854   0.886   4.966   0.222  0.6577  0.0358 -0.7171
  432TIP3    H122855   0.853   4.919   0.145 -0.8981 -1.4570  0.7981
  432TIP3    H222856   0.939   4.901   0.268  1.1605  0.7663 -0.2551
  433TIP3   OH222857   4.927   4.575   7.697 -0.7430 -0.0058 -0.2254
  433TIP3    H122858   4.867   4.587   7.770  0.1287 -0.4458  0.5912
  433TIP3    H222859   4.873   4.587   7.619 -1.5461  1.1732  0.4831
  434TIP3   OH222860   6.751   6.504   1.595  0.0199  0.0358 -0.6454
  434TIP3    H122861   6.681   6.543   1.648  0.3699  0.8092 -0.7288
  434TIP3    H222862   6.726   6.412   1.586  0.1866 -0.2354  1.2406
  435TIP3   OH222863   5.972   4.169   2.077 -0.2271  0.1705  0.0953
  435TIP3    H122864   6.023   4.216   2.010 -1.7655  1.0967 -0.4740
  435TIP3    H222865   6.034   4.106   2.114  1.4132  1.4485 -0.3529
  436TIP3   OH222866   5.778   5.398   2.198  0.1428  0.1475 -0.3287
  436TIP3    H122867   5.857   5.343   2.204  0.2756  0.1645 -1.5450
  436TIP3    H222868   5.781   5.452   2.277  0.4717 -0.9790  0.4699
  437TIP3   OH222869   5.481   1.664   1.962  0.2679 -0.5918 -0.3463
  437TIP3    H122870   5.506   1.667   2.054 -0.3521  0.9988 -0.2003
  437TIP3    H222871   5.414   1.596   1.958  1.9376 -2.3472 -0.0990
  438TIP3   OH222872   6.683   5.871   6.924  0.0330  0.5732  0.2346
  438TIP3    H122873   6.756   5.905   6.872  2.5302 -0.6091  2.6979
  438TIP3    H222874   6.638   5.810   6.865  0.7001  1.6811 -1.5098
  439TIP3   OH222875   2.783   3.918   8.359  0.0131 -1.1191  0.1846
  439TIP3    H122876   2.688   3.925   8.356 -0.1340  1.0671  3.7721
  439TIP3    H222877   2.814   3.983   8.296 -0.8563 -1.3302 -0.4763
  440TIP3   OH222878   3.200   6.128   6.724  0.7743 -0.1990 -0.0413
  440TIP3    H122879   3.126   6.158   6.778 -0.3330  0.0992 -1.6451
  440TIP3    H222880   3.249   6.069   6.781 -0.3791  0.0580  1.2650
  441TIP3   OH222881   0.366   6.798   0.469  0.1111  0.3328  0.0583
  441TIP3    H122882   0.412   6.762   0.393  0.5638  1.1416 -0.0654
  441TIP3    H222883   0.274   6.777   0.454 -0.0412  1.8726 -1.5694
  442TIP3   OH222884   1.847   1.509   6.922  0.4019 -0.5420 -0.4412
  442TIP3    H122885   1.752   1.516   6.935  0.6031  0.2247  0.7735
  442TIP3    H222886   1.878   1.599   6.930  1.5385 -1.0813  1.9624
  443TIP3   OH222887   3.293   6.571   8.020  0.1043  0.6101 -0.0710
  443TIP3    H122888   3.220   6.631   8.033 -0.4841  0.3673 -2.0246
  443TIP3    H222889   3.254   6.484   8.028  0.4464  0.4753  0.1625
  444TIP3   OH222890   1.766   5.522   0.486  0.6380 -0.1834  0.0928
  444TIP3    H122891   1.802   5.434   0.478 -0.9186 -0.7326 -1.5641
  444TIP3    H222892   1.742   5.530   0.578  0.6448 -1.5447  0.2361
  445TIP3   OH222893   1.949   2.973   0.218  0.2780  0.3658  0.1990
  445TIP3    H122894   1.863   2.972   0.260  0.4186 -1.6420  0.5390
  445TIP3    H222895   1.983   2.884   0.231  3.8364  1.8915  3.0177
  446TIP3   OH222896   4.602   6.491   7.778 -0.1490 -0.0042  0.0398
  446TIP3    H122897   4.688   6.451   7.769  2.0618  4.0801  0.7772
  446TIP3    H222898   4.578   6.518   7.690  0.0569  0.1881  0.0423
  447TIP3   OH222899   0.619   1.382   6.068 -0.4500  0.1135 -0.7989
  447TIP3    H122900   0.588   1.472   6.059 -0.6356  0.5886  3.1407
  447TIP3    H222901   0.704   1.389   6.110  0.9210 -1.5774 -3.0108
  448TIP3   OH222902   1.594   5.151   0.359  0.4869  0.2348 -0.7365
  448TIP3    H122903   1.566   5.240   0.382 -1.2668 -0.7169  1.1000
  448TIP3    H222904   1.601   5.106   0.443 -0.6717 -1.9020 -1.7096
  449TIP3   OH222905   2.836   1.830   7.313 -0.0036 -0.0042  0.1320
  449TIP3    H122906   2.885   1.875   7.244  0.5158 -0.0309  0.4747
  449TIP3    H222907   2.902   1.810   7.379  0.1213 -2.6620 -0.6851
  450TIP3   OH222908   5.668   5.030   8.474 -0.0459  0.4283  0.0295
  450TIP3    H122909   5.740   5.088   8.450 -0.4742  1.1724  0.4955
  450TIP3    H222910   5.709   4.959   8.522  0.5041  0.2694 -0.6651
  451TIP3   OH222911   4.185   5.737   1.813  0.2923  0.5639  0.4726
  451TIP3    H122912   4.249   5.784   1.759  0.6887 -0.3629  0.1005
  451TIP3    H222913   4.211   5.645   1.806 -2.1511 -0.1083 -1.2205
  452TIP3   OH222914   3.395   0.405   1.489 -0.4250 -0.7251 -1.1066
  452TIP3    H122915   3.423   0.494   1.467  3.0260 -1.2712  0.5746
  452TIP3    H222916   3.308   0.417   1.528  0.5038  2.0847  0.3655
  453TIP3   OH222917   2.434   2.284   6.385 -0.1951  0.1276 -0.5085
  453TIP3    H122918   2.509   2.229   6.410 -1.6156 -2.4504 -1.5109
  453TIP3    H222919   2.380   2.287   6.464 -0.7998 -1.2114 -0.8419
  454TIP3   OH222920   3.126   4.197   1.552 -0.2249 -0.0211  0.1811
  454TIP3    H122921   3.197   4.233   1.606  2.0152  0.6487 -2.8856
  454TIP3    H222922   3.102   4.115   1.595  1.6896  0.2571  1.9528
  455TIP3   OH222923   6.713   5.548   0.297  0.1246  0.4642  0.5556
  455TIP3    H122924   6.804   5.569   0.319  0.0977  1.8841 -0.5447
  455TIP3    H222925   6.716   5.524   0.204 -0.5989  0.2949  0.5749
  456TIP3   OH222926   3.855   1.218   0.135  0.0761 -0.3829 -0.4237
  456TIP3    H122927   3.878   1.157   0.204 -0.9298 -1.3683 -0.9200
  456TIP3    H222928   3.935   1.227   0.083  1.0301  0.8605  1.1722
  457TIP3   OH222929   1.070   3.759   1.188 -0.6487  0.1941 -0.1448
  457TIP3    H122930   0.975   3.771   1.177 -0.4927  0.1847 -1.8847
  457TIP3    H222931   1.102   3.844   1.216 -0.8902  0.9772 -2.0612
  458TIP3   OH222932   2.577   5.158   2.471 -0.0955 -0.4642  0.1314
  458TIP3    H122933   2.505   5.148   2.409 -1.8197 -0.5264  2.0383
  458TIP3    H222934   2.634   5.082   2.454 -1.6330 -1.6336  0.0287
  459TIP3   OH222935   5.711   5.192   6.726  0.2856 -0.0099  0.1152
  459TIP3    H122936   5.736   5.100   6.736 -0.9618 -0.5407 -1.3153
  459TIP3    H222937   5.643   5.206   6.793 -0.6287 -0.5817 -0.6816
  460TIP3   OH222938   0.193   2.587   0.489 -0.0234  0.2979 -0.2125
  460TIP3    H122939   0.248   2.647   0.539  3.0187 -2.0466 -0.4851
  460TIP3    H222940   0.179   2.631   0.405  2.2536  0.6552 -0.4698
  461TIP3   OH222941   3.051   4.752   8.673  0.3811  0.2174 -0.1537
  461TIP3    H122942   3.124   4.712   8.626 -0.7733  0.5247 -2.3699
  461TIP3    H222943   3.010   4.679   8.720  1.2293 -0.2308 -0.0875
  462TIP3   OH222944   1.455   3.722   8.215 -0.0032  0.1749  0.0868
  462TIP3    H122945   1.512   3.790   8.252  0.7299  0.0495 -0.7730
  462TIP3    H222946   1.513   3.648   8.200 -0.2915  0.1668 -1.1382
  463TIP3   OH222947   1.204   2.871   1.771  0.0681  0.2080 -0.2707
  463TIP3    H122948   1.271   2.803   1.783 -0.8153 -0.3533  2.0089
  463TIP3    H222949   1.253   2.947   1.738  1.5034 -0.7774 -0.4948
  464TIP3   OH222950   6.480   2.767   6.222  0.1063 -0.2673 -0.3669
  464TIP3    H122951   6.516   2.848   6.187 -0.3494  0.5241  0.9284
  464TIP3    H222952   6.454   2.717   6.145  1.1495  0.4471 -1.2100
  465TIP3   OH222953   1.658   6.427   6.895  0.3566 -0.4922 -0.0800
  465TIP3    H122954   1.707   6.419   6.814  1.2439  0.5013  0.3400
  465TIP3    H222955   1.610   6.344   6.902  0.7652 -0.8532 -1.2752
  466TIP3   OH222956   2.647   5.833   2.214 -0.6892  0.1494 -0.5044
  466TIP3    H122957   2.737   5.861   2.228 -0.8538  1.1140 -1.2294
  466TIP3    H222958   2.630   5.770   2.284  0.6659 -0.3482 -0.5940
  467TIP3   OH222959   6.587   0.420   8.462  0.8204  0.4124 -0.2315
  467TIP3    H122960   6.643   0.371   8.522 -0.6493 -0.6161  0.3719
  467TIP3    H222961   6.499   0.387   8.480  0.1751  1.0590 -2.0300
  468TIP3   OH222962   5.278   6.313   1.432 -0.6712 -0.4131  0.6854
  468TIP3    H122963   5.236   6.353   1.508  0.0113  2.0345 -0.1211
  468TIP3    H222964   5.222   6.338   1.358  0.4046  0.0800  0.0095
  469TIP3   OH222965   2.475   5.418   1.809 -0.3008 -0.4565 -0.2481
  469TIP3    H122966   2.530   5.341   1.800 -0.9098 -0.6870 -2.5355
  469TIP3    H222967   2.415   5.397   1.881 -1.2956 -2.6754 -1.6203
  470TIP3   OH222968   2.818   4.686   7.318  0.6241  0.1091  0.0288
  470TIP3    H122969   2.833   4.624   7.389 -1.3337 -1.9678 -1.2630
  470TIP3    H222970   2.756   4.749   7.354  0.0990 -0.5927  0.3719
  471TIP3   OH222971   4.257   1.899   8.097 -0.0212  0.0713 -0.1473
  471TIP3    H122972   4.215   1.976   8.134 -0.9110 -1.2542  1.7747
  471TIP3    H222973   4.189   1.831   8.099  1.0444 -1.0616 -0.7575
  472TIP3   OH222974   5.635   2.853   7.660  0.0595 -0.4666 -0.1813
  472TIP3    H122975   5.602   2.804   7.585 -1.9678  2.0546 -1.0873
  472TIP3    H222976   5.588   2.815   7.735 -1.2811 -0.1672 -0.8292
  473TIP3   OH222977   0.557   2.972   0.525  0.5386 -0.3492 -0.1782
  473TIP3    H122978   0.547   2.997   0.433  0.5968  0.1813 -0.0400
  473TIP3    H222979   0.603   2.888   0.522 -1.5477 -1.5436 -0.7242
  474TIP3   OH222980   6.700   0.067   8.387 -0.5327  0.0993  0.0933
  474TIP3    H122981   6.762   0.111   8.445  0.2685 -0.4144 -0.3543
  474TIP3    H222982   6.716  -0.026   8.401 -0.0569 -0.0336 -1.2199
  475TIP3   OH222983   2.330   4.141   0.410  0.4098 -0.0879 -0.2984
  475TIP3    H122984   2.358   4.097   0.330  2.7320 -0.3537  0.5485
  475TIP3    H222985   2.324   4.070   0.475 -0.1348  0.2920  0.0727
  476TIP3   OH222986   3.929   1.099   8.285  0.5154  0.2971  0.2073
  476TIP3    H122987   3.894   1.183   8.317 -1.0300  0.3159 -1.3499
  476TIP3    H222988   3.965   1.120   8.199 -1.4827 -0.8923 -0.9950
  477TIP3   OH222989   4.370   0.867   8.195 -0.1381  0.3182  0.0715
  477TIP3    H122990   4.400   0.887   8.107 -0.1971  0.1744  0.0177
  477TIP3    H222991   4.399   0.777   8.211 -0.0189  0.3878  0.2459
  478TIP3   OH222992   4.038   4.571   8.637 -0.4029  0.8803 -0.7421
  478TIP3    H122993   3.985   4.518   8.695 -1.8184  2.2658 -0.6962
  478TIP3    H222994   4.013   4.544   8.549 -0.9411  1.2726 -0.7156
  479TIP3   OH222995   1.741   1.639   0.884 -0.6763  0.0687 -0.0154
  479TIP3    H122996   1.743   1.622   0.790 -1.6376 -0.1696 -0.0115
  479TIP3    H222997   1.796   1.571   0.922  1.2437  1.2678 -0.5161
  480TIP3   OH222998   0.254   1.096   0.652 -0.4471 -0.4191 -0.1465
  480TIP3    H122999   0.296   1.081   0.737 -0.5458 -1.0225 -0.2006
  480TIP3    H223000   0.263   1.190   0.637  0.8078 -0.5158 -0.1213
  481TIP3   OH223001   5.318   6.268   2.030  0.1253 -0.2954 -0.0839
  481TIP3    H123002   5.344   6.356   2.002 -1.0242 -0.2965 -1.2375
  481TIP3    H223003   5.243   6.283   2.088 -2.2689 -0.5833 -2.8964
  482TIP3   OH223004   2.582   4.915   7.018 -0.3046  0.8521  0.4759
  482TIP3    H123005   2.583   4.831   6.973 -1.2647  1.2205 -0.2567
  482TIP3    H223006   2.673   4.945   7.015 -0.0767  0.1336  0.1791
  483TIP3   OH223007   1.499   0.867   2.036  0.6105 -0.2214  0.2096
  483TIP3    H123008   1.571   0.804   2.040  0.8444  0.0363  0.0508
  483TIP3    H223009   1.537   0.945   1.997  0.0712 -0.3193 -0.5326
  484TIP3   OH223010   6.667   5.295   8.814  0.3006  0.1947  0.0145
  484TIP3    H123011   6.688   5.309   8.907  0.7434  2.6936 -0.4033
  484TIP3    H223012   6.582   5.338   8.802  1.4254  2.2404 -1.2298
  485TIP3   OH223013   5.944   0.414   7.902  0.0099  0.0838 -0.5750
  485TIP3    H123014   5.972   0.380   7.817  0.8825  1.9078 -1.0753
  485TIP3    H223015   5.848   0.406   7.901  0.1381 -1.9328 -0.7821
  486TIP3   OH223016   5.609   4.784   7.571 -0.5200  0.3464  0.2692
  486TIP3    H123017   5.632   4.704   7.523 -0.5029  0.4822  0.0494
  486TIP3    H223018   5.635   4.855   7.512 -0.7119  0.5098  0.3837
  487TIP3   OH223019   5.068   5.177   1.495  0.0443 -0.3232 -0.8190
  487TIP3    H123020   5.018   5.238   1.549  1.2173  1.1709 -1.3521
  487TIP3    H223021   5.045   5.090   1.530 -0.3708  0.4959  1.0917
  488TIP3   OH223022   0.604   4.520   0.483  0.2010  0.4241  0.0254
  488TIP3    H123023   0.619   4.591   0.421 -1.3020 -0.1732 -1.0844
  488TIP3    H223024   0.660   4.449   0.453  0.3528  0.5322  0.0531
  489TIP3   OH223025   3.313   4.798   6.993 -0.5020  0.1657  0.5750
  489TIP3    H123026   3.394   4.820   7.038  0.0953  1.5784 -1.1084
  489TIP3    H223027   3.334   4.805   6.900 -2.8888  1.9615  0.0812
  490TIP3   OH223028   2.696   2.251   0.115 -0.1742 -0.8814  0.0011
  490TIP3    H123029   2.747   2.309   0.059 -1.1181 -0.1165 -0.0942
  490TIP3    H223030   2.711   2.164   0.078 -0.0182 -0.5067 -0.8557
  491TIP3   OH223031   5.470   4.398   0.651  0.6791  0.2045  0.1391
  491TIP3    H123032   5.448   4.318   0.603  0.2989 -0.7756  1.8935
  491TIP3    H223033   5.453   4.377   0.743  0.0482  2.4707  0.6060
  492TIP3   OH223034   0.668   0.682   2.092  0.2779  0.1324  0.1921
  492TIP3    H123035   0.733   0.638   2.146 -1.0386  0.3382  2.0181
  492TIP3    H223036   0.678   0.775   2.113  0.4545  0.3320 -0.7267
  493TIP3   OH223037   0.543   0.027   7.500  0.4799  0.2395  0.6705
  493TIP3    H123038   0.480   0.016   7.571 -0.9450  0.6040 -0.4807
  493TIP3    H223039   0.507   0.098   7.447  1.4566 -0.0778 -0.4641
  494TIP3   OH223040   0.464   5.743   1.307 -0.2626 -0.6021 -0.3747
  494TIP3    H123041   0.509   5.775   1.229  0.5783 -0.5264  0.1287
  494TIP3    H223042   0.513   5.781   1.380 -1.8918  0.5084  0.1999
  495TIP3   OH223043   2.365   2.745   8.004 -0.3689 -0.5429 -0.3133
  495TIP3    H123044   2.347   2.679   7.937  1.7028 -0.2598 -1.2280
  495TIP3    H223045   2.404   2.817   7.956  1.7085 -0.5509  1.2480
  496TIP3   OH223046   1.287   3.702   1.906  0.2160 -0.2168  0.2707
  496TIP3    H123047   1.211   3.730   1.856  0.2326 -2.1275 -0.9520
  496TIP3    H223048   1.288   3.759   1.983 -0.5593  1.9944 -1.2473
  497TIP3   OH223049   3.362   0.442   7.394  0.6313 -0.1522 -0.1417
  497TIP3    H123050   3.413   0.363   7.415 -0.0138 -0.8129 -0.9803
  497TIP3    H223051   3.308   0.416   7.320 -0.7344  0.6130  0.5514
  498TIP3   OH223052   5.744   1.755   7.125  0.0553 -0.0861 -0.3746
  498TIP3    H123053   5.694   1.761   7.044  0.3141 -0.7121 -0.5842
  498TIP3    H223054   5.755   1.846   7.153 -1.3193  0.0586 -0.2439
  499TIP3   OH223055   4.865   3.061   7.154 -0.8286  0.6643 -0.0513
  499TIP3    H123056   4.892   3.020   7.237  0.0252  1.3424  0.0160
  499TIP3    H223057   4.938   3.044   7.095 -1.2342  0.5959 -0.5353
  500TIP3   OH223058   6.112   6.122   8.389 -0.1921  0.1127 -0.6240
  500TIP3    H123059   6.129   6.065   8.463 -1.0214  1.9924  1.1261
  500TIP3    H223060   6.197   6.161   8.368  0.0825 -0.5790 -0.8119
  501TIP3   OH223061   1.914   1.978   2.092 -0.0579 -0.3930 -0.0670
  501TIP3    H123062   1.935   2.071   2.083  0.6043 -0.5297  0.0158
  501TIP3    H223063   1.898   1.948   2.003 -0.9046 -0.0619 -0.0376
  502TIP3   OH223064   2.642   4.124   6.797 -0.4487  0.9242 -0.1495
  502TIP3    H123065   2.715   4.139   6.857 -0.0888  1.9569 -0.8167
  502TIP3    H223066   2.565   4.153   6.845 -0.1554  1.8031 -0.1884
  503TIP3   OH223067   3.372   6.588   7.747 -0.3158 -0.9916 -0.1162
  503TIP3    H123068   3.396   6.583   7.839  0.0573 -1.5874 -0.2389
  503TIP3    H223069   3.325   6.506   7.730  1.0764 -1.6744 -0.8500
  504TIP3   OH223070   3.647   1.467   1.263 -0.2385 -0.3453  0.2432
  504TIP3    H123071   3.652   1.532   1.192 -0.4069  1.4282  1.7814
  504TIP3    H223072   3.582   1.403   1.232  0.3005 -0.0812 -1.5351
  505TIP3   OH223073   0.243   2.911   8.294  0.2035 -0.0311 -0.2266
  505TIP3    H123074   0.149   2.904   8.276 -0.2878  1.1492  1.6398
  505TIP3    H223075   0.274   2.976   8.231 -0.3390  0.0103 -0.4623
  506TIP3   OH223076   3.362   2.882   0.850 -0.5312 -0.1484 -0.1280
  506TIP3    H123077   3.302   2.885   0.925  0.4392 -1.6908  0.7628
  506TIP3    H223078   3.393   2.972   0.841 -1.1610  0.1966  0.9015
  507TIP3   OH223079   4.358   2.786   7.077  0.4047  0.1356 -0.6833
  507TIP3    H123080   4.359   2.781   6.981 -1.7276  1.1069 -0.8170
  507TIP3    H223081   4.266   2.778   7.100  1.0251 -2.2538  1.4786
  508TIP3   OH223082   6.384   5.459   7.269  0.1478  0.2372 -0.6953
  508TIP3    H123083   6.360   5.460   7.177 -0.8593 -1.7311 -0.4870
  508TIP3    H223084   6.326   5.523   7.310  0.9267  1.4803 -1.4537
  509TIP3   OH223085   2.417   2.077   7.303 -0.3790  0.7870 -0.6440
  509TIP3    H123086   2.351   2.033   7.357  1.7316 -0.1251  1.3442
  509TIP3    H223087   2.437   2.013   7.234 -0.8080  0.6380 -0.6350
  510TIP3   OH223088   5.447   0.723   6.914  0.1170 -0.4051  0.6952
  510TIP3    H123089   5.399   0.641   6.914  0.0175 -0.3556 -0.2828
  510TIP3    H223090   5.483   0.731   6.826  1.0540  0.0687  1.0978
  511TIP3   OH223091   6.108   0.873   7.569  0.0783 -0.3193  0.2655
  511TIP3    H123092   6.154   0.840   7.491  1.2284  0.4216  0.6205
  511TIP3    H223093   6.077   0.794   7.613 -0.2300 -0.7674 -0.7203
  512TIP3   OH223094   0.482   4.221   7.794  0.4208  0.5579 -0.3828
  512TIP3    H123095   0.543   4.275   7.744 -0.1194  2.0980  0.5548
  512TIP3    H223096   0.402   4.273   7.799 -0.6528 -0.9841 -0.7106
  513TIP3   OH223097   3.673   6.554   0.204 -0.0809 -0.2854  0.4017
  513TIP3    H123098   3.614   6.478   0.203 -0.7909  0.2425  1.1043
  513TIP3    H223099   3.743   6.530   0.143 -1.1238 -0.8407 -0.6275
  514TIP3   OH223100   2.961   0.039   0.617 -0.9205  0.2119  0.2388
  514TIP3    H123101   2.962   0.077   0.529 -0.9050  1.2243  0.6651
  514TIP3    H223102   3.030   0.087   0.664 -1.2997  0.0624  0.9549
  515TIP3   OH223103   4.746   2.031   6.826 -0.4853  0.1263  0.6421
  515TIP3    H123104   4.759   1.998   6.737 -0.8371 -0.4428  0.7949
  515TIP3    H223105   4.679   1.974   6.863  1.1645 -1.0114  2.0068
  516TIP3   OH223106   6.147   4.750   0.206 -0.4318 -0.0014 -1.0332
  516TIP3    H123107   6.086   4.770   0.135 -2.4900 -3.2314 -0.4058
  516TIP3    H223108   6.093   4.752   0.285  1.1663  0.6647  0.0898
  517TIP3   OH223109   0.254   1.291   1.413 -0.1000 -0.6186 -0.3266
  517TIP3    H123110   0.272   1.225   1.346  1.5170  0.9876 -1.5797
  517TIP3    H223111   0.167   1.324   1.392 -0.6215 -1.8351 -0.1134
  518TIP3   OH223112   0.047   0.085   0.705  0.3850 -0.0216 -0.4579
  518TIP3    H123113   0.088   0.171   0.719  0.1305 -0.1068  0.9998
  518TIP3    H223114   0.038   0.078   0.610  3.1587  0.2761 -0.8347
  519TIP3   OH223115   5.683   5.248   7.629 -0.0031 -0.3993  0.5296
  519TIP3    H123116   5.755   5.245   7.566  0.3146 -2.6644  0.9326
  519TIP3    H223117   5.657   5.340   7.631  1.8236  0.1953 -0.8020
  520TIP3   OH223118   3.172   1.610   0.023  0.2516  0.5549 -0.3791
  520TIP3    H123119   3.199   1.700   0.006  1.6319 -0.0169 -1.3742
  520TIP3    H223120   3.160   1.607   0.118 -2.8157  2.5315 -0.5586
  521TIP3   OH223121   0.359   5.084   1.065  0.0665 -0.0923 -0.0771
  521TIP3    H123122   0.339   5.167   1.108 -1.3318 -0.4473  0.0127
  521TIP3    H223123   0.453   5.087   1.051  0.2666  0.8769  1.2365
  522TIP3   OH223124   0.476   2.373   7.339 -0.2465  0.5133  0.1655
  522TIP3    H123125   0.531   2.298   7.317 -1.7217 -0.5636  0.0050
  522TIP3    H223126   0.538   2.444   7.354  1.1456 -0.4590 -0.7074
  523TIP3   OH223127   4.271   1.850   1.940 -0.3435  0.0159  0.2330
  523TIP3    H123128   4.327   1.789   1.893 -1.3337  0.3501 -1.4662
  523TIP3    H223129   4.314   1.862   2.025  1.2495 -0.9877 -0.3911
  524TIP3   OH223130   2.101   3.300   1.992 -0.7440 -0.3320  0.1491
  524TIP3    H123131   2.146   3.373   2.035 -2.2271  0.3606  0.5769
  524TIP3    H223132   2.059   3.252   2.064  0.6113 -1.9405 -0.0630
  525TIP3   OH223133   1.162   6.213   7.744 -0.8230  0.0403 -0.5148
  525TIP3    H123134   1.158   6.238   7.652 -1.9329  0.6021 -0.3338
  525TIP3    H223135   1.077   6.237   7.779 -0.1759  0.4895  0.8254
  526TIP3   OH223136   5.822   3.138   8.549 -0.1136 -0.6008 -0.8222
  526TIP3    H123137   5.822   3.050   8.587 -0.7145 -1.4638 -2.6952
  526TIP3    H223138   5.908   3.147   8.509 -0.2430 -0.5819 -1.1034
  527TIP3   OH223139   0.822   6.621   8.821  0.2084  0.0462 -0.6571
  527TIP3    H123140   0.867   6.686   8.875  1.6638 -0.9133 -0.6572
  527TIP3    H223141   0.884   6.548   8.814 -1.2875 -1.2663 -0.8368
  528TIP3   OH223142   5.437   3.417   0.978 -0.2441  0.2764  0.0795
  528TIP3    H123143   5.516   3.428   1.032 -0.9635 -1.5955  1.6633
  528TIP3    H223144   5.382   3.491   1.001  0.3129  0.6044  0.3772
  529TIP3   OH223145   5.813   6.555   1.012 -0.4769  0.6520 -0.3386
  529TIP3    H123146   5.897   6.601   1.009 -0.1284  0.2065  1.2769
  529TIP3    H223147   5.817   6.504   1.094 -1.3676 -1.2198 -1.3863
  530TIP3   OH223148   4.981   1.164   6.520  0.0395  0.0802 -0.4260
  530TIP3    H123149   4.898   1.184   6.476  0.6143  0.3834 -1.3916
  530TIP3    H223150   5.013   1.085   6.477  0.7652  0.5577 -0.7629
  531TIP3   OH223151   0.926   4.995   6.703 -0.5560 -0.2071  0.3670
  531TIP3    H123152   0.998   5.033   6.654  0.9976 -0.0856  2.5718
  531TIP3    H223153   0.929   4.901   6.682 -0.1029 -0.1223  0.0568
  532TIP3   OH223154   4.086   2.901   6.754  0.1829  0.0797 -0.2229
  532TIP3    H123155   4.166   2.851   6.771  0.9615  1.7576  1.3670
  532TIP3    H223156   4.040   2.903   6.838 -0.2228  1.3068 -0.4543
  533TIP3   OH223157   5.732   4.772   8.051  0.0174  0.4958  0.2855
  533TIP3    H123158   5.664   4.758   7.985 -0.5462 -2.2215  1.2837
  533TIP3    H223159   5.814   4.749   8.005  0.1275  2.2745 -0.4762
  534TIP3   OH223160   5.260   1.488   8.249  0.0077  0.5110  0.0797
  534TIP3    H123161   5.308   1.561   8.287  0.8295 -0.5882  1.2360
  534TIP3    H223162   5.323   1.416   8.246 -0.6820 -0.0827 -1.3266
  535TIP3   OH223163   0.832   0.902   7.941 -0.3840  0.2219  0.1761
  535TIP3    H123164   0.800   0.975   7.888  1.3861  0.7098 -0.3152
  535TIP3    H223165   0.927   0.916   7.945 -0.2519 -0.9030  1.8483
  536TIP3   OH223166   0.668   1.037   8.157  0.0588  0.0933 -0.0428
  536TIP3    H123167   0.758   1.005   8.151 -0.2009 -0.7255  0.3074
  536TIP3    H223168   0.630   0.989   8.231 -1.5157 -1.7285 -1.8898
  537TIP3   OH223169   6.730   1.610   0.268 -0.7401  0.0595  0.7334
  537TIP3    H123170   6.715   1.525   0.226 -0.0077  0.3756 -0.2094
  537TIP3    H223171   6.704   1.674   0.202 -3.1202  0.6278  2.1004
  538TIP3   OH223172   3.477   2.032   0.409 -0.0883  0.1018 -0.1157
  538TIP3    H123173   3.473   1.965   0.341 -1.4547 -0.0614  0.0966
  538TIP3    H223174   3.426   1.996   0.482 -0.9467  1.3957 -0.0451
  539TIP3   OH223175   5.133   2.452   7.365 -0.2174 -0.1748  0.1648
  539TIP3    H123176   5.158   2.387   7.431  0.0691  0.5025  0.7314
  539TIP3    H223177   5.109   2.400   7.288 -1.0164 -0.9981  0.9503
  540TIP3   OH223178   5.783   4.400   8.366 -0.4862 -0.0669  0.3686
  540TIP3    H123179   5.793   4.479   8.313 -0.7623 -1.4019 -1.7898
  540TIP3    H223180   5.817   4.424   8.452  0.0009  2.2028 -0.4015
  541TIP3   OH223181   3.268   4.716   0.546 -0.4366  0.7469  0.2571
  541TIP3    H123182   3.190   4.765   0.520  0.0343  2.4712  1.8886
  541TIP3    H223183   3.335   4.742   0.483 -0.4606  1.4584  0.5142
  542TIP3   OH223184   6.548   5.770   6.665  0.4254 -0.0613 -0.7990
  542TIP3    H123185   6.642   5.778   6.650  0.4283 -0.5617 -1.0759
  542TIP3    H223186   6.510   5.850   6.629  0.7859  0.3559 -0.2712
  543TIP3   OH223187   5.815   6.412   1.255 -0.0763  0.5620 -0.2647
  543TIP3    H123188   5.817   6.489   1.311  1.7575  0.9570 -0.7903
  543TIP3    H223189   5.749   6.355   1.294 -0.8405  2.0127  0.6351
  544TIP3   OH223190   5.818   6.155   0.404  0.1467 -0.0460  0.8094
  544TIP3    H123191   5.751   6.091   0.429 -0.0059 -0.6656 -1.0265
  544TIP3    H223192   5.876   6.107   0.345  1.0527  1.0387  0.7889
  545TIP3   OH223193   2.797   4.728   0.879 -0.8082  0.4648 -0.2242
  545TIP3    H123194   2.801   4.645   0.927 -1.2682  0.9024  0.6065
  545TIP3    H223195   2.888   4.752   0.865 -0.6722 -0.2339 -0.5633
  546TIP3   OH223196   4.208   5.420   6.699  0.1483 -0.2983 -0.2614
  546TIP3    H123197   4.120   5.384   6.689  0.1830  0.1289 -2.5178
  546TIP3    H223198   4.217   5.481   6.626  2.3342 -0.3401 -0.0782
  547TIP3   OH223199   2.778   1.880   1.380  0.1004 -0.4719  0.1543
  547TIP3    H123200   2.873   1.868   1.381  0.4680  1.9264 -0.6996
  547TIP3    H223201   2.752   1.864   1.471  0.9764 -3.0218  0.0553
  548TIP3   OH223202   1.667   3.313   7.784  0.5767  0.0669 -0.8586
  548TIP3    H123203   1.730   3.356   7.725  1.4296 -0.8064 -0.6071
  548TIP3    H223204   1.663   3.223   7.754 -0.9422  0.2061 -1.1570
  549TIP3   OH223205   0.485   5.563   1.520  0.4859 -0.0055 -0.7451
  549TIP3    H123206   0.463   5.599   1.434  0.2294  1.0683 -0.2341
  549TIP3    H223207   0.440   5.619   1.583 -0.3022 -1.4812  0.0658
  550TIP3   OH223208   5.186   5.104   8.655 -0.1756 -0.0091  0.5851
  550TIP3    H123209   5.190   5.015   8.620  0.1268 -0.5535  1.9375
  550TIP3    H223210   5.136   5.096   8.737 -1.6513  1.3716 -0.1328
  551TIP3   OH223211   0.084   2.331   0.948 -0.0780  0.3440 -0.4169
  551TIP3    H123212   0.166   2.361   0.987  0.1043 -0.5503 -0.0779
  551TIP3    H223213   0.092   2.351   0.855 -0.5970  2.6940 -0.0200
  552TIP3   OH223214   5.898   1.017   0.390 -0.3318 -0.0304 -0.3319
  552TIP3    H123215   5.843   0.956   0.439 -2.3707  1.1495 -1.0246
  552TIP3    H223216   5.863   1.014   0.300  0.3413  1.2054 -0.6512
  553TIP3   OH223217   0.597   4.833   6.582  0.2468 -0.0106 -0.7838
  553TIP3    H123218   0.595   4.900   6.650 -0.5688 -1.6092  0.8873
  553TIP3    H223219   0.677   4.784   6.600  0.3264 -0.0862 -1.3454
  554TIP3   OH223220   1.000   5.605   2.145  0.0480 -0.3804 -0.5859
  554TIP3    H123221   1.084   5.560   2.147  0.2141 -0.0750 -0.8452
  554TIP3    H223222   1.015   5.685   2.096 -0.6373 -0.8224 -1.5672
  555TIP3   OH223223   4.066   2.011   2.207  0.8857 -0.3663 -0.4712
  555TIP3    H123224   4.019   1.945   2.156 -1.3987  1.1047 -0.4041
  555TIP3    H223225   4.126   2.051   2.145  2.7384 -2.7679 -0.3937
  556TIP3   OH223226   5.224   0.744   7.653  0.0570 -0.1440  0.2774
  556TIP3    H123227   5.273   0.664   7.634  1.3331  0.6869 -0.0417
  556TIP3    H223228   5.252   0.769   7.741 -2.5273 -1.5719  1.6307
  557TIP3   OH223229   4.801   1.383   8.152  0.1971  0.1749 -0.7437
  557TIP3    H123230   4.840   1.358   8.235 -0.9102 -2.0850 -0.8440
  557TIP3    H223231   4.843   1.467   8.131  0.0661  1.1466  2.3469
  558TIP3   OH223232   3.248   4.370   1.080  0.2558  1.1732  0.2139
  558TIP3    H123233   3.319   4.419   1.122  0.9465  0.4967 -0.1227
  558TIP3    H223234   3.248   4.286   1.126 -1.0730  1.5504  0.9524
  559TIP3   OH223235   2.751   4.574   6.243  0.4276 -0.4361  0.4999
  559TIP3    H123236   2.842   4.559   6.266  0.4681 -1.7345 -0.3996
  559TIP3    H223237   2.725   4.496   6.194 -1.0081  0.1445  0.2723
  560TIP3   OH223238   2.157   0.033   7.321  0.3534 -0.1806  1.0311
  560TIP3    H123239   2.151  -0.014   7.238  2.4031  1.9964 -0.4763
  560TIP3    H223240   2.068   0.030   7.356 -0.8139 -0.4322 -1.6965
  561TIP3   OH223241   2.021   5.835   2.394  0.0559 -0.5058  0.0431
  561TIP3    H123242   2.070   5.917   2.394  0.5486 -0.7701  1.5822
  561TIP3    H223243   1.930   5.862   2.384  0.2224  0.2360  0.4377
  562TIP3   OH223244   3.965   1.108   1.858  0.2838  0.5187 -0.3308
  562TIP3    H123245   4.005   1.093   1.772  0.8720  2.7980 -0.5219
  562TIP3    H223246   4.039   1.111   1.919 -0.0701 -0.4192  0.1580
  563TIP3   OH223247   4.789   4.155   0.691  0.0372  0.3069  0.3848
  563TIP3    H123248   4.795   4.174   0.785  1.6152 -2.0173  0.8367
  563TIP3    H223249   4.738   4.074   0.686 -2.1024  1.6435 -1.0135
  564TIP3   OH223250   1.044   3.149   0.974 -0.0468  0.3421 -0.1539
  564TIP3    H123251   1.034   3.158   1.069  0.1621  0.4553 -0.1413
  564TIP3    H223252   1.133   3.116   0.962 -0.1522  0.1034 -0.3002
  565TIP3   OH223253   1.746   3.419   1.248  0.0229  0.3117 -0.0375
  565TIP3    H123254   1.657   3.440   1.220 -0.2707  1.1316  1.3934
  565TIP3    H223255   1.773   3.495   1.301  1.1809 -0.3797  0.4085
  566TIP3   OH223256   4.876   2.360   6.852  0.4085 -0.4632 -0.1090
  566TIP3    H123257   4.952   2.308   6.826  2.3857  1.3142  1.6862
  566TIP3    H223258   4.850   2.323   6.937  0.1428 -0.1964 -0.0735
  567TIP3   OH223259   3.993   3.964   8.550  0.4327  0.1533 -0.0859
  567TIP3    H123260   4.081   3.962   8.512  0.0743  2.7526 -1.2511
  567TIP3    H223261   3.997   3.900   8.621  3.0966 -0.2065 -0.4369
  568TIP3   OH223262   6.304   2.072   6.706  0.4646 -1.1745  0.4679
  568TIP3    H123263   6.226   2.116   6.739 -0.1220 -1.8799  0.0497
  568TIP3    H223264   6.365   2.072   6.780  0.3379 -0.0308  0.5958
  569TIP3   OH223265   2.996   0.511   8.577 -0.3540 -0.5918 -0.8654
  569TIP3    H123266   2.961   0.472   8.658  0.2363  0.5854 -0.0186
  569TIP3    H223267   3.073   0.559   8.605 -0.5376  0.4283 -2.0299
  570TIP3   OH223268   5.534   1.214   0.172 -0.3441  0.2444  0.2425
  570TIP3    H123269   5.603   1.273   0.141 -0.6940 -1.0227 -3.5254
  570TIP3    H223270   5.554   1.199   0.264  2.7940  2.0583 -0.0124
  571TIP3   OH223271   3.605   5.748   1.840 -0.1956  0.2486  0.1064
  571TIP3    H123272   3.623   5.665   1.796  0.5132 -0.0478  0.9354
  571TIP3    H223273   3.582   5.723   1.929 -0.1552  0.9406  0.3124
  572TIP3   OH223274   1.157   6.804   0.045  0.5499  0.6020 -0.5138
  572TIP3    H123275   1.230   6.766  -0.005  0.4800  0.9823 -0.9085
  572TIP3    H223276   1.161   6.897   0.027 -1.0496  0.4510 -1.9275
  573TIP3   OH223277   6.279   3.046   6.270 -0.1520 -0.8032 -0.2103
  573TIP3    H123278   6.359   3.081   6.310 -1.2310  1.2220  0.2932
  573TIP3    H223279   6.253   2.974   6.328  0.8696 -0.9697  0.0581
  574TIP3   OH223280   6.243   4.643   0.869 -0.1205  0.8840 -0.0122
  574TIP3    H123281   6.231   4.630   0.775 -1.6922  1.7822  0.0284
  574TIP3    H223282   6.293   4.567   0.898 -0.7979 -0.1076 -1.3523
  575TIP3   OH223283   2.763   2.149   1.806  0.6838 -0.3229  0.3141
  575TIP3    H123284   2.747   2.240   1.831  1.7490  0.3412 -1.2511
  575TIP3    H223285   2.849   2.128   1.842  0.9968 -0.2792 -0.3939
  576TIP3   OH223286   0.714   2.706   0.553  0.0363 -1.0391 -0.4460
  576TIP3    H123287   0.711   2.664   0.467 -0.8524 -0.7977 -0.5373
  576TIP3    H223288   0.674   2.643   0.612 -2.2803  0.0207 -0.7544
  577TIP3   OH223289   2.348   0.953   6.903  0.5120 -0.0851  0.4995
  577TIP3    H123290   2.258   0.921   6.898  0.6496 -0.7196  1.7272
  577TIP3    H223291   2.389   0.920   6.823 -0.3122  0.1305 -0.0262
  578TIP3   OH223292   6.226   3.345   7.257 -0.4787 -0.1299  0.6589
  578TIP3    H123293   6.198   3.437   7.263 -0.6347 -0.2697  3.8165
  578TIP3    H223294   6.301   3.339   7.317  1.1185 -1.6095 -1.3207
  579TIP3   OH223295   4.077   4.805   8.798 -0.6797 -0.2982 -0.5709
  579TIP3    H123296   4.080   4.889   8.752 -0.6874 -0.6314 -1.1910
  579TIP3    H223297   4.092   4.740   8.730  0.1981 -0.7632  0.0468
  580TIP3   OH223298   6.792   4.463   6.174 -0.1245  0.0732 -0.3120
  580TIP3    H123299   6.795   4.520   6.097 -0.0958 -0.6648 -0.8795
  580TIP3    H223300   6.711   4.413   6.163  0.4978 -0.9329 -0.5505
  581TIP3   OH223301   4.743   5.998   7.552  1.0691  0.3128  0.1017
  581TIP3    H123302   4.731   5.964   7.641  1.4806  0.7674  0.3323
  581TIP3    H223303   4.656   5.994   7.513  0.9039  0.0237  0.4930
  582TIP3   OH223304   5.065   4.128   2.051  0.2635  0.0895  0.5520
  582TIP3    H123305   5.153   4.150   2.019 -0.5382  0.5011 -1.5409
  582TIP3    H223306   5.022   4.213   2.062 -0.9631 -0.1337 -1.9012
  583TIP3   OH223307   1.059   4.361   1.205 -0.0797  0.2353 -0.3361
  583TIP3    H123308   0.992   4.294   1.190 -0.0443 -0.0401  0.6154
  583TIP3    H223309   1.056   4.376   1.300 -1.4886  3.0428 -0.7092
  584TIP3   OH223310   0.250   5.800   7.003 -0.0283 -0.1935  0.1333
  584TIP3    H123311   0.338   5.770   6.981 -0.7081 -3.2015  0.9701
  584TIP3    H223312   0.192   5.729   6.975 -1.9680  0.6961  1.5888
  585TIP3   OH223313   4.535   0.219   1.407  0.1288  0.3913 -0.3942
  585TIP3    H123314   4.558   0.174   1.488 -1.3190  2.2942  1.1755
  585TIP3    H223315   4.581   0.303   1.412 -0.3752  0.7400 -1.2979
  586TIP3   OH223316   6.281   0.963   0.576  0.4762 -0.0746  0.0435
  586TIP3    H123317   6.281   0.909   0.655 -0.3379 -0.7810 -0.4133
  586TIP3    H223318   6.261   1.051   0.607  0.5178 -0.2799  0.6661
  587TIP3   OH223319   0.795   0.954   8.717  0.2202 -0.2564  0.1634
  587TIP3    H123320   0.728   0.936   8.651 -0.0557 -1.4392  0.7322
  587TIP3    H223321   0.878   0.943   8.671  0.0522  1.0900 -0.5167
  588TIP3   OH223322   4.092   1.360   2.101 -0.3037 -0.2427 -0.5447
  588TIP3    H123323   4.006   1.335   2.136 -0.5792  2.4727  0.9800
  588TIP3    H223324   4.153   1.300   2.143 -1.1916 -0.4534  0.4862
  589TIP3   OH223325   1.364   4.714   8.274  0.0693  0.5349 -0.1084
  589TIP3    H123326   1.278   4.691   8.240  0.6119  1.5060 -2.3183
  589TIP3    H223327   1.360   4.809   8.289  0.7683  0.6193 -0.3774
  590TIP3   OH223328   1.605   4.444   6.572  0.5769  0.5172 -0.1406
  590TIP3    H123329   1.694   4.410   6.571 -0.4823 -2.6211  0.3779
  590TIP3    H223330   1.602   4.500   6.649  2.0068  0.3708  0.0508
  591TIP3   OH223331   4.697   1.911   0.374  0.2520 -0.1953  0.5726
  591TIP3    H123332   4.722   1.891   0.283 -0.7916 -0.8917  0.4109
  591TIP3    H223333   4.735   1.839   0.425  1.1215  0.3758  0.7400
  592TIP3   OH223334   0.173   1.977   8.255  0.7217 -0.2421  0.6066
  592TIP3    H123335   0.087   1.979   8.295  0.7024 -1.5406  0.6725
  592TIP3    H223336   0.230   2.021   8.318  0.2652 -0.1597  0.9663
  593TIP3   OH223337   4.244   0.384   6.594 -0.3350 -0.0791  0.0021
  593TIP3    H123338   4.189   0.333   6.655 -0.7182 -0.3759 -0.5814
  593TIP3    H223339   4.291   0.318   6.544  0.3857  0.1734  0.3318
  594TIP3   OH223340   5.453   4.102   7.888 -0.1868  0.0946  0.3361
  594TIP3    H123341   5.458   4.052   7.806  0.6792 -0.7133  0.8547
  594TIP3    H223342   5.537   4.086   7.931  0.3390  2.3899  0.3209
  595TIP3   OH223343   4.455   4.730   7.739 -0.1856 -0.3493 -1.0656
  595TIP3    H123344   4.447   4.799   7.673  0.0393 -0.2546 -0.9942
  595TIP3    H223345   4.416   4.767   7.818  1.8860  0.5441 -0.3914
  596TIP3   OH223346   6.577   3.969   1.888  0.0964  0.1022  0.2602
  596TIP3    H123347   6.653   3.925   1.926 -0.4241 -0.5202  0.5898
  596TIP3    H223348   6.570   3.933   1.799 -0.3357 -0.5001  0.5333
  597TIP3   OH223349   3.064   1.498   7.973 -0.0925  0.5378  0.1455
  597TIP3    H123350   3.050   1.505   8.067  1.8829 -2.4317  0.7991
  597TIP3    H223351   3.020   1.417   7.948  2.7140 -0.9087 -0.5733
  598TIP3   OH223352   3.726   4.849   7.772 -0.6435 -0.1355  0.2584
  598TIP3    H123353   3.765   4.762   7.779 -1.2517 -0.3765  0.7201
  598TIP3    H223354   3.800   4.907   7.755 -0.1951 -0.7001  0.2642
  599TIP3   OH223355   1.578   1.259   7.411 -0.3780  0.0616  1.2730
  599TIP3    H123356   1.605   1.247   7.319 -2.4106  2.2603  0.2943
  599TIP3    H223357   1.593   1.173   7.451  1.4757 -0.7180 -0.8262
  600TIP3   OH223358   0.125   2.192   7.591 -0.0066 -0.2287 -0.4232
  600TIP3    H123359   0.127   2.098   7.605  0.6055 -0.4043 -1.5817
  600TIP3    H223360   0.062   2.225   7.656  1.8525 -1.0595  1.9159
  601TIP3   OH223361   1.269   1.984   2.078  0.5120 -0.3416  0.6980
  601TIP3    H123362   1.361   1.958   2.088  0.7751 -0.3610 -1.3604
  601TIP3    H223363   1.263   2.069   2.121  1.8209  0.2351 -0.1764
  602TIP3   OH223364   2.557   3.228   8.820  0.6914 -0.3999  0.0751
  602TIP3    H123365   2.648   3.213   8.847  0.0411 -1.2116  2.0346
  602TIP3    H223366   2.505   3.174   8.880 -1.1474  0.7174 -0.4271
  603TIP3   OH223367   6.788   0.329   1.689  0.1208  0.4828  0.4123
  603TIP3    H123368   6.724   0.259   1.699  0.5257 -0.0557 -0.6566
  603TIP3    H223369   6.759   0.397   1.750  0.5922 -1.2330  2.7061
  604TIP3   OH223370   2.287   4.319   0.783  0.6437 -0.0957  0.0932
  604TIP3    H123371   2.191   4.315   0.787  0.1871  2.0067 -3.7890
  604TIP3    H223372   2.309   4.398   0.831  0.3803 -0.1880  0.3746
  605TIP3   OH223373   6.655   6.005   8.299 -0.3782 -0.4112  0.0927
  605TIP3    H123374   6.597   5.931   8.318 -0.2723 -0.7676 -0.8854
  605TIP3    H223375   6.737   5.983   8.343 -0.3929 -0.8127 -0.0728
  606TIP3   OH223376   1.649   5.056   0.887  0.4453 -0.0246  0.4568
  606TIP3    H123377   1.563   5.079   0.922  0.7190  2.2896 -0.2627
  606TIP3    H223378   1.697   5.021   0.962 -0.5561  0.2552  1.2449
  607TIP3   OH223379   1.149   6.706   1.302 -0.8312  0.7044  0.1546
  607TIP3    H123380   1.083   6.730   1.368 -2.1472 -1.4537 -0.3038
  607TIP3    H223381   1.196   6.632   1.341 -1.4408 -0.4172 -1.2154
  608TIP3   OH223382   0.280   3.281   7.168  0.1337 -0.5405  0.1678
  608TIP3    H123383   0.355   3.223   7.178  0.1893 -0.2784  1.5088
  608TIP3    H223384   0.206   3.223   7.152  0.4613 -0.8612 -0.1802
  609TIP3   OH223385   5.764   4.670   8.297  0.0422 -0.1727 -0.2009
  609TIP3    H123386   5.782   4.721   8.218  2.0364 -0.7034 -0.1312
  609TIP3    H223387   5.798   4.723   8.369 -1.5556  0.1998  0.3229
  610TIP3   OH223388   4.062   6.526   8.676 -0.1736  0.0887 -0.0529
  610TIP3    H123389   4.144   6.489   8.646 -0.6343 -1.2568  0.2501
  610TIP3    H223390   4.044   6.598   8.616  1.8637  1.2877  0.6783
  611TIP3   OH223391   4.566   2.796   1.553 -0.0842  0.5187  0.0129
  611TIP3    H123392   4.523   2.712   1.534  1.9943 -0.5958  0.0064
  611TIP3    H223393   4.501   2.845   1.604 -1.7635 -0.6296 -0.9146
  612TIP3   OH223394   0.061   1.368   8.468 -0.7304 -0.0934  0.2061
  612TIP3    H123395   0.041   1.278   8.494 -0.1695 -1.6150 -3.9316
  612TIP3    H223396  -0.014   1.397   8.417 -0.2697  1.2621  0.2456
  613TIP3   OH223397   2.933   5.712   8.194  0.6037 -0.2025 -0.3112
  613TIP3    H123398   2.968   5.632   8.234  0.2148 -0.4744 -0.5024
  613TIP3    H223399   2.978   5.719   8.110 -0.2301 -0.8965 -0.8373
  614TIP3   OH223400   1.990   2.968   0.726  0.2398  0.4449  0.6949
  614TIP3    H123401   2.067   2.971   0.669 -0.2502 -0.2056 -0.0380
  614TIP3    H223402   2.008   2.896   0.787  0.0354 -0.0211  0.2236
  615TIP3   OH223403   1.192   0.356   7.864 -0.3063  0.2198 -0.4543
  615TIP3    H123404   1.267   0.319   7.818 -1.8757 -2.8088 -0.8288
  615TIP3    H223405   1.138   0.395   7.795 -0.3625  0.0119 -0.5261
  616TIP3   OH223406   5.784   5.880   1.387 -0.0364  0.4643  0.4764
  616TIP3    H123407   5.851   5.818   1.358 -3.0104 -2.9266 -0.0147
  616TIP3    H223408   5.760   5.850   1.474 -1.3553  1.1224  0.3657
  617TIP3   OH223409   4.347   2.816   1.339 -0.2212 -0.3842  0.0734
  617TIP3    H123410   4.392   2.748   1.389  2.3219  0.5751 -0.7515
  617TIP3    H223411   4.373   2.898   1.383 -2.4495  0.1604  0.4745
  618TIP3   OH223412   0.315   4.546   1.588 -0.3108 -0.0362 -0.1098
  618TIP3    H123413   0.299   4.520   1.679 -0.4851 -1.1707 -0.4537
  618TIP3    H223414   0.410   4.539   1.577  0.2039  3.3585  0.9204
  619TIP3   OH223415   2.398   0.428   7.786  0.9947  0.2667  0.0064
  619TIP3    H123416   2.486   0.465   7.798  1.0791  0.0549  0.0560
  619TIP3    H223417   2.394   0.404   7.694  0.5685  1.3308 -0.2643
  620TIP3   OH223418   3.449   5.720   7.102  0.2984 -0.0658 -0.7601
  620TIP3    H123419   3.391   5.647   7.124  1.0599 -0.2650  0.7367
  620TIP3    H223420   3.493   5.692   7.021 -0.0876 -0.8600 -0.7077
  621TIP3   OH223421   4.382   2.091   6.911  0.1650 -0.1956 -0.2488
  621TIP3    H123422   4.433   2.051   6.842  0.9253 -0.0869  0.2421
  621TIP3    H223423   4.366   2.020   6.974  0.9844  0.1081  0.3173
  622TIP3   OH223424   6.114   1.832   0.944  0.4108 -0.0263  0.6881
  622TIP3    H123425   6.076   1.824   0.856  0.9345  2.4833  0.1529
  622TIP3    H223426   6.151   1.745   0.962 -0.8466 -0.9664 -1.0110
  623TIP3   OH223427   0.602   3.848   6.926 -0.3136 -0.2558 -0.6767
  623TIP3    H123428   0.603   3.936   6.889 -0.6950  0.1588  0.2572
  623TIP3    H223429   0.695   3.823   6.933 -0.2318 -0.5397 -2.2827
  624TIP3   OH223430   5.385   4.120   0.647  0.4690 -0.3645  0.1777
  624TIP3    H123431   5.375   4.035   0.604  0.3870  0.1573 -0.8821
  624TIP3    H223432   5.329   4.115   0.724  0.3555 -1.2194  0.0476
  625TIP3   OH223433   1.010   3.585   6.398  0.1601  0.3171 -0.9321
  625TIP3    H123434   1.051   3.670   6.383  1.3488 -0.1377 -0.4182
  625TIP3    H223435   0.918   3.605   6.415  0.3429  1.4582 -1.2232
  626TIP3   OH223436   3.825   3.138   0.532  0.3120  0.2852 -0.6081
  626TIP3    H123437   3.841   3.218   0.582 -1.5564 -0.9878  2.2172
  626TIP3    H223438   3.740   3.152   0.491 -0.9540 -0.8958  1.4753
  627TIP3   OH223439   5.951   4.864   0.662  0.0937 -0.4688 -0.0393
  627TIP3    H123440   5.996   4.888   0.743 -0.1568 -0.3738  0.0725
  627TIP3    H223441   5.937   4.948   0.617  1.6949 -0.6590 -0.9613
  628TIP3   OH223442   2.956   1.772   0.787  0.0885  0.3028 -0.0857
  628TIP3    H123443   2.864   1.799   0.780  0.2106  0.9697  0.6439
  628TIP3    H223444   2.985   1.762   0.697 -0.7311 -0.0214 -0.3262
  629TIP3   OH223445   2.424   1.185   1.624  0.4148  0.4143 -0.4404
  629TIP3    H123446   2.475   1.255   1.663  1.8541  0.0621 -1.6115
  629TIP3    H223447   2.338   1.191   1.666  1.5475  0.6826  1.9762
  630TIP3   OH223448   3.990   6.290   6.986  0.8198 -0.3824 -0.8327
  630TIP3    H123449   4.003   6.384   6.977  0.0239  0.0754  1.9754
  630TIP3    H223450   3.937   6.265   6.910  0.4882  1.5330 -1.2667
  631TIP3   OH223451   3.924   2.017   1.280  0.0448  0.1376  0.5664
  631TIP3    H123452   4.006   2.025   1.230  0.4232  0.4667  1.2272
  631TIP3    H223453   3.856   2.008   1.213  0.3514  2.1200 -0.0865
  632TIP3   OH223454   5.273   0.907   0.064  0.2962  0.5536  0.5329
  632TIP3    H123455   5.296   0.821   0.099 -2.2189 -0.7862 -0.8433
  632TIP3    H223456   5.231   0.951   0.137  1.3782  0.5581  1.1786
  633TIP3   OH223457   1.326   4.480   8.699 -0.5138 -0.3473  0.7120
  633TIP3    H123458   1.320   4.423   8.776  0.5000 -1.8121 -0.2561
  633TIP3    H223459   1.364   4.425   8.631 -1.1519  0.9877 -0.7874
  634TIP3   OH223460   2.656   4.242   2.236  0.3970 -0.4886  0.2344
  634TIP3    H123461   2.634   4.152   2.261 -0.9978 -1.0061 -2.4128
  634TIP3    H223462   2.656   4.240   2.140 -0.6422  2.5715  0.0756
  635TIP3   OH223463   1.917   0.079   7.428  0.3934 -0.3919 -0.0061
  635TIP3    H123464   1.830   0.052   7.396  1.1262 -2.8023 -0.1349
  635TIP3    H223465   1.910   0.076   7.523  0.1855  0.0078 -0.0052
  636TIP3   OH223466   0.848   3.989   6.018 -0.0766  0.0361  0.6399
  636TIP3    H123467   0.888   3.919   6.070  0.4216 -0.3034 -0.1791
  636TIP3    H223468   0.798   3.943   5.950  1.5127  0.4165 -0.8705
  637TIP3   OH223469   6.539   0.375   2.141  0.1587  0.1643 -0.1408
  637TIP3    H123470   6.548   0.280   2.138  0.8529  0.2501 -1.3316
  637TIP3    H223471   6.624   0.408   2.113  0.1526  1.1552  0.9284
  638TIP3   OH223472   6.121   5.424   0.897  0.1758 -0.0584 -0.0771
  638TIP3    H123473   6.072   5.416   0.815  0.1409 -2.1210  0.1013
  638TIP3    H223474   6.209   5.448   0.869  0.0635 -0.3303 -0.7030
  639TIP3   OH223475   4.347   1.842   7.052 -0.1247  0.8582  0.4304
  639TIP3    H123476   4.422   1.831   6.992 -1.3134  0.8677 -1.1177
  639TIP3    H223477   4.362   1.777   7.121  0.4648 -0.3162 -0.7469
  640TIP3   OH223478   3.722   0.917   7.803 -0.6768 -0.4124  0.3563
  640TIP3    H123479   3.697   0.952   7.718 -0.2457 -0.7354  0.0955
  640TIP3    H223480   3.676   0.832   7.808  0.2219 -0.9374 -0.0598
  641TIP3   OH223481   0.182   0.785   8.261 -0.4019 -0.5191  0.0587
  641TIP3    H123482   0.187   0.741   8.176 -0.6187  0.1592 -0.3118
  641TIP3    H223483   0.208   0.718   8.325 -1.1334 -1.3030 -0.4561
  642TIP3   OH223484   1.875   5.996   8.762 -0.1988  0.5583  0.3567
  642TIP3    H123485   1.935   6.053   8.811  0.1740  1.0095 -0.5863
  642TIP3    H223486   1.930   5.924   8.732 -0.5357  0.0195  1.0253
  643TIP3   OH223487   0.719   6.111   8.233  0.1185  0.2667  0.7165
  643TIP3    H123488   0.655   6.081   8.297 -0.6535  2.3798  1.0303
  643TIP3    H223489   0.667   6.148   8.162  0.9669  1.3499  0.6294
  644TIP3   OH223490   5.367   5.218   0.913 -0.1552 -0.5149  0.1687
  644TIP3    H123491   5.402   5.278   0.979 -0.6154  1.8997 -1.6287
  644TIP3    H223492   5.430   5.224   0.841 -1.3064 -0.5555 -0.8654
  645TIP3   OH223493   5.329   1.329   8.522  0.6922  0.3283 -0.0897
  645TIP3    H123494   5.369   1.400   8.571  1.3096 -0.3991  0.4701
  645TIP3    H223495   5.369   1.334   8.435  0.9789  0.4598  0.0493
  646TIP3   OH223496   3.175   0.242   1.401  0.5250 -0.0392  0.1405
  646TIP3    H123497   3.111   0.309   1.377  1.9095  1.2280 -0.1750
  646TIP3    H223498   3.259   0.280   1.378  1.3514 -2.1208 -0.5699
  647TIP3   OH223499   5.407   6.076   1.463  0.7673 -0.5451 -0.2775
  647TIP3    H123500   5.402   6.060   1.557  2.3948  1.4288  0.2026
  647TIP3    H223501   5.379   6.167   1.452  2.2748 -0.1776 -1.4661
  648TIP3   OH223502   5.203   3.133   8.319  0.1420  0.4493  0.3358
  648TIP3    H123503   5.222   3.059   8.376  1.3863  1.7017  1.6398
  648TIP3    H223504   5.149   3.191   8.374  0.4041  1.1588 -0.1498
  649TIP3   OH223505   6.454   5.587   2.581 -0.1013  0.5105 -0.1295
  649TIP3    H123506   6.485   5.660   2.633 -1.0869  0.7949  0.0785
  649TIP3    H223507   6.515   5.582   2.507  0.2275  1.2626  0.0857
  650TIP3   OH223508   3.864   0.083   1.184 -0.0477  0.1333 -0.2680
  650TIP3    H123509   3.833   0.046   1.267 -1.9650  0.0261 -0.9762
  650TIP3    H223510   3.877   0.007   1.127  0.0571  0.2860 -0.4494
  651TIP3   OH223511   0.050   6.450   7.515 -0.1769  0.2097  0.0052
  651TIP3    H123512   0.006   6.379   7.561 -1.0697  0.8928  0.2235
  651TIP3    H223513   0.086   6.409   7.436 -1.3395 -0.3413 -0.2523
  652TIP3   OH223514   4.607   6.755   2.355 -0.3501 -0.6624 -0.2585
  652TIP3    H123515   4.623   6.703   2.276 -1.9075  0.2014 -1.1973
  652TIP3    H223516   4.665   6.717   2.421  3.1487  0.3681 -2.4763
  653TIP3   OH223517   3.810   5.739   8.356 -0.1266 -0.2171  0.2426
  653TIP3    H123518   3.878   5.676   8.331 -0.3403  0.6770 -3.1371
  653TIP3    H223519   3.858   5.814   8.392  0.5991 -0.2001 -0.7198
  654TIP3   OH223520   4.196   6.099   0.001 -0.6766 -0.3261 -0.1133
  654TIP3    H123521   4.151   6.014   0.012  0.1840 -0.5747  1.9915
  654TIP3    H223522   4.279   6.077  -0.040 -1.5536 -0.1136 -2.1155
  655TIP3   OH223523   3.257   0.503   8.730 -0.1604 -0.0560 -0.1181
  655TIP3    H123524   3.339   0.525   8.687 -0.1034 -1.6952 -0.9180
  655TIP3    H223525   3.231   0.419   8.691 -2.0109  0.2326  0.3961
  656TIP3   OH223526   4.682   0.393   0.486 -0.0649 -0.0429  0.5351
  656TIP3    H123527   4.713   0.422   0.400  0.8516 -0.6820  0.6386
  656TIP3    H223528   4.675   0.474   0.537 -2.8570  0.6491 -0.7900
  657TIP3   OH223529   5.183   3.340   7.460 -0.3421 -0.1990  0.8036
  657TIP3    H123530   5.098   3.380   7.440  1.0160  2.5168 -0.0885
  657TIP3    H223531   5.184   3.333   7.555 -1.4582 -0.0301  0.8458
  658TIP3   OH223532   4.270   0.145   1.350 -0.3371 -0.1705 -0.4418
  658TIP3    H123533   4.214   0.223   1.350 -0.1961  0.0771  3.1184
  658TIP3    H223534   4.359   0.180   1.354 -0.2901 -0.4472  1.6953
  659TIP3   OH223535   1.416   3.634   6.942 -0.3460 -0.1890  0.3183
  659TIP3    H123536   1.462   3.560   6.903  1.4827  0.7421  0.6079
  659TIP3    H223537   1.439   3.708   6.886  1.6390  1.0161  2.5631
  660TIP3   OH223538   3.710   0.831   0.480 -0.0905  0.1270 -0.0013
  660TIP3    H123539   3.781   0.841   0.417  0.8347  0.9075  1.1291
  660TIP3    H223540   3.638   0.794   0.429  1.5707 -2.1509 -0.8672
  661TIP3   OH223541   6.484   6.090   1.106  0.2129  0.2860 -0.2784
  661TIP3    H123542   6.496   6.085   1.012  1.3152 -0.5671 -0.1143
  661TIP3    H223543   6.554   6.148   1.136 -0.3619  0.8537 -0.0194
  662TIP3   OH223544   5.360   4.139   1.128  0.6043  0.2263 -0.6830
  662TIP3    H123545   5.295   4.080   1.167 -1.0912  1.1241 -2.0053
  662TIP3    H223546   5.329   4.227   1.150  2.1411  0.6807 -0.2202
  663TIP3   OH223547   4.199   2.669   0.739  0.3978 -0.1469  0.2588
  663TIP3    H123548   4.280   2.645   0.782 -0.2022  0.7496  1.9734
  663TIP3    H223549   4.211   2.642   0.648  2.3109 -0.6831  0.6356
  664TIP3   OH223550   6.219   4.319   1.196  0.0555  0.1492 -0.1011
  664TIP3    H123551   6.304   4.361   1.208  0.2315 -0.3630  0.5681
  664TIP3    H223552   6.239   4.237   1.151 -0.4218  1.2945 -2.5282
  665TIP3   OH223553   2.333   3.134   7.503 -0.6143  0.1136  0.1748
  665TIP3    H123554   2.417   3.171   7.528 -1.6718  0.3000  4.1089
  665TIP3    H223555   2.296   3.196   7.440  0.7889  1.7763  0.9359
  666TIP3   OH223556   1.590   3.807   0.069  0.2290  0.3922 -0.0940
  666TIP3    H123557   1.648   3.881   0.083  0.3190  0.4367 -0.6579
  666TIP3    H223558   1.544   3.827  -0.013 -0.4718  0.2867  0.2626
  667TIP3   OH223559   0.918   2.096   6.877  0.4233  0.6925 -0.4554
  667TIP3    H123560   0.860   2.168   6.853 -1.3616 -0.8380 -0.8795
  667TIP3    H223561   0.893   2.024   6.820  0.4766 -1.0477  1.5870
  668TIP3   OH223562   5.396   0.493   1.950 -0.0834  0.3876  0.3318
  668TIP3    H123563   5.356   0.568   1.994  0.4968  0.1736  1.2448
  668TIP3    H223564   5.345   0.483   1.869  0.9024  2.8539 -0.7159
  669TIP3   OH223565   2.072   4.145   8.483  0.3762  0.9451  0.6154
  669TIP3    H123566   2.148   4.167   8.428 -0.8003  0.2463 -1.4038
  669TIP3    H223567   2.080   4.203   8.558  1.6788  2.5232 -0.6451
  670TIP3   OH223568   3.563   5.402   0.207 -0.4971 -0.0556 -0.3391
  670TIP3    H123569   3.485   5.418   0.259 -1.1237 -2.2001 -0.5291
  670TIP3    H223570   3.591   5.489   0.178 -1.4057  0.9794  1.7015
  671TIP3   OH223571   1.787   2.588   8.426 -0.1989  0.3929 -0.2977
  671TIP3    H123572   1.857   2.552   8.372  0.5259 -0.1446  0.9558
  671TIP3    H223573   1.767   2.673   8.387  2.7404  1.6189  0.6012
  672TIP3   OH223574   3.659   4.131   1.483  0.2950  0.6580  0.5113
  672TIP3    H123575   3.573   4.089   1.488  1.3926 -1.5967  1.5847
  672TIP3    H223576   3.640   4.225   1.480 -2.2684  0.1904 -1.5845
  673TIP3   OH223577   0.125   5.948   1.149 -0.2106  0.4508 -0.3631
  673TIP3    H123578   0.187   6.012   1.115  1.2467 -0.5885  0.2429
  673TIP3    H223579   0.164   5.863   1.128 -1.1792 -0.2287  0.4835
  674TIP3   OH223580   5.928   2.158   7.484 -0.2802  0.4966 -0.1976
  674TIP3    H123581   5.873   2.230   7.513 -0.7659 -0.4319  1.2902
  674TIP3    H223582   5.987   2.141   7.558  0.1286 -0.3410 -0.6983
  675TIP3   OH223583   3.284   2.131   1.978  0.2209 -0.0915  0.4458
  675TIP3    H123584   3.352   2.156   2.041 -0.6971  0.0058  1.4262
  675TIP3    H223585   3.202   2.157   2.020 -0.3979  0.3015 -0.9684
  676TIP3   OH223586   4.990   4.721   6.558  0.0622 -0.0390  0.2985
  676TIP3    H123587   5.018   4.723   6.467  0.4032 -0.7600  0.3815
  676TIP3    H223588   4.940   4.802   6.569 -1.4879 -0.7496 -1.0144
  677TIP3   OH223589   3.293   0.771   6.966 -0.0202 -0.0473  0.3480
  677TIP3    H123590   3.229   0.717   6.920  0.0204  0.3093 -0.1326
  677TIP3    H223591   3.318   0.839   6.903  2.7651 -1.6503 -0.4373
  678TIP3   OH223592   2.152   0.359   1.835  0.0891  0.0011  0.5591
  678TIP3    H123593   2.117   0.443   1.863  1.2407  1.2118 -1.4405
  678TIP3    H223594   2.210   0.379   1.762  1.3334 -2.4114  0.7595
  679TIP3   OH223595   0.599   3.263   6.828 -0.4035  0.5224 -0.4493
  679TIP3    H123596   0.659   3.331   6.860 -0.7227  0.2719  0.7317
  679TIP3    H223597   0.645   3.181   6.844 -1.2689  0.2838  1.0478
  680TIP3   OH223598   2.519   4.310   0.489  0.1437 -0.2314  0.1205
  680TIP3    H123599   2.467   4.239   0.453  0.9742 -1.1208  0.6465
  680TIP3    H223600   2.471   4.337   0.568  0.1894 -0.6840  0.3070
  681TIP3   OH223601   2.015   6.159   7.916  0.0084  0.9135  0.5495
  681TIP3    H123602   1.973   6.201   7.991 -0.6720  0.4412  0.4359
  681TIP3    H223603   2.107   6.151   7.943 -0.4350 -0.3391  1.8493
  682TIP3   OH223604   0.012   3.591   0.310  0.5484 -0.5015  0.0874
  682TIP3    H123605   0.076   3.620   0.376 -0.2396 -0.7831  0.9936
  682TIP3    H223606  -0.008   3.501   0.333 -1.5637  0.1287  0.9850
  683TIP3   OH223607   1.292   1.717   7.356  0.1522 -0.1946  0.4933
  683TIP3    H123608   1.211   1.685   7.397 -0.2288 -0.1461 -0.2005
  683TIP3    H223609   1.261   1.777   7.287  0.7385 -0.9043 -0.4118
  684TIP3   OH223610   4.430   3.175   8.238 -0.6020  0.6188  0.0707
  684TIP3    H123611   4.516   3.166   8.197 -1.3494  0.1671 -1.4538
  684TIP3    H223612   4.396   3.258   8.206 -1.0192  0.4720  0.1231
  685TIP3   OH223613   4.778   5.682   8.656 -0.0394  1.0393 -0.2059
  685TIP3    H123614   4.805   5.726   8.576  1.1575  0.3629 -0.2115
  685TIP3    H223615   4.785   5.588   8.635 -1.5056  0.8447  0.1188
  686TIP3   OH223616   2.150   4.564   8.757  0.1679  0.2197 -0.3899
  686TIP3    H123617   2.113   4.649   8.732 -1.9787 -0.7217 -0.6195
  686TIP3    H223618   2.187   4.579   8.844  0.6466  1.5824 -0.7853
  687TIP3   OH223619   2.576   1.973   8.456 -0.6558  0.6468 -0.2402
  687TIP3    H123620   2.650   1.922   8.490 -0.6869  1.5680  1.2980
  687TIP3    H223621   2.501   1.912   8.460 -0.2719  0.1546 -0.4564
  688TIP3   OH223622   0.419   1.960   8.444 -0.0336 -0.0139 -0.4604
  688TIP3    H123623   0.501   1.929   8.482 -0.4871  0.3457  0.8438
  688TIP3    H223624   0.351   1.925   8.501 -0.7459  0.3263 -1.0901
  689TIP3   OH223625   1.562   1.021   7.528 -0.7361 -0.0124 -0.3333
  689TIP3    H123626   1.554   0.980   7.613 -0.3479 -0.2903 -0.4283
  689TIP3    H223627   1.510   0.966   7.469 -2.3400  1.0759  0.0136
  690TIP3   OH223628   5.243   1.939   2.649  0.0705 -0.3547 -0.6982
  690TIP3    H123629   5.307   2.008   2.630  0.3430 -0.4605 -0.1891
  690TIP3    H223630   5.284   1.887   2.719 -1.6364  1.0882  1.4891
  691TIP3   OH223631   0.074   2.542   7.380  0.4005  0.2460  0.2456
  691TIP3    H123632   0.063   2.599   7.303 -0.7303  1.6987  1.4211
  691TIP3    H223633   0.030   2.589   7.451  1.2075 -1.1727  1.7439
  692TIP3   OH223634   3.669   1.670   1.037  0.1063 -0.7881 -0.1663
  692TIP3    H123635   3.696   1.652   0.946 -0.6863  1.2191 -0.8499
  692TIP3    H223636   3.707   1.755   1.056 -1.7483 -0.0865  0.5234
  693TIP3   OH223637   0.215   3.065   1.232  0.0172 -0.3713  0.4101
  693TIP3    H123638   0.159   2.987   1.228 -0.5797  0.0746 -0.3885
  693TIP3    H223639   0.231   3.078   1.325 -2.0374  0.0384  0.7573
  694TIP3   OH223640   0.306   4.133   1.111  0.9768 -0.9832 -0.0232
  694TIP3    H123641   0.242   4.196   1.078  2.0551  0.7283  0.9759
  694TIP3    H223642   0.258   4.050   1.116 -1.6292  0.4686  1.9464
  695TIP3   OH223643   1.028   5.909   7.452  0.2771  0.4367 -0.7112
  695TIP3    H123644   1.118   5.928   7.478  0.1464 -0.5121  0.5330
  695TIP3    H223645   1.032   5.897   7.357  1.2806  1.3357 -0.7899
  696TIP3   OH223646   0.314   2.400   8.066  0.1899  0.0214 -0.3210
  696TIP3    H123647   0.349   2.325   8.017 -0.1447 -1.6588  1.8241
  696TIP3    H223648   0.390   2.457   8.079  0.9019 -0.8692 -0.4342
  697TIP3   OH223649   4.604   3.633   0.838  0.7181 -0.4363 -0.2933
  697TIP3    H123650   4.569   3.708   0.790 -1.2161  0.1604  1.8466
  697TIP3    H223651   4.572   3.557   0.790  0.0350  0.1300 -0.7685
  698TIP3   OH223652   3.218   6.710   0.281 -0.5641 -0.3798 -0.2708
  698TIP3    H123653   3.312   6.715   0.263 -0.7850  1.0428 -1.2336
  698TIP3    H223654   3.179   6.685   0.197 -1.0774 -0.6330  0.0372
  699TIP3   OH223655   1.986   6.120   1.347  0.0595  0.0648  0.0713
  699TIP3    H123656   2.053   6.122   1.279  0.0164 -2.2980 -0.1528
  699TIP3    H223657   2.014   6.049   1.406 -0.8539  0.8364  1.4989
  700TIP3   OH223658   5.044   3.698   6.752  0.6646  0.2551 -0.0399
  700TIP3    H123659   5.059   3.748   6.673  1.1703  0.8512  0.4212
  700TIP3    H223660   5.034   3.764   6.821  1.2852 -0.2622  0.5669
  701TIP3   OH223661   1.579   5.151   6.731  0.2079  0.2999 -0.1739
  701TIP3    H123662   1.500   5.098   6.729 -0.2479  0.8813  1.3335
  701TIP3    H223663   1.628   5.118   6.807 -0.9250  3.1431  1.9178
  702TIP3   OH223664   2.058   2.805   7.482  0.0954 -0.0435 -0.3590
  702TIP3    H123665   2.081   2.855   7.403  0.5767  1.2541  0.5725
  702TIP3    H223666   1.962   2.801   7.480  0.0433  0.9212 -0.4774
  703TIP3   OH223667   3.377   3.801   0.787  0.5103 -0.1460 -0.3711
  703TIP3    H123668   3.378   3.867   0.856 -0.9358 -0.4463 -0.0235
  703TIP3    H223669   3.434   3.836   0.719 -0.7062  1.7869 -0.4737
  704TIP3   OH223670   6.731   0.968   7.147  0.6755 -0.0588  0.4450
  704TIP3    H123671   6.780   0.953   7.067 -1.9009 -0.5451 -1.1732
  704TIP3    H223672   6.683   1.049   7.132  0.6643  0.2166  1.7869
  705TIP3   OH223673   5.826   5.668   0.005  0.1560  0.0633 -0.0764
  705TIP3    H123674   5.815   5.599   0.069 -0.5578  0.5848  0.3693
  705TIP3    H223675   5.764   5.737   0.031 -1.6172 -0.5096 -2.4233
  706TIP3   OH223676   6.475   0.697   1.026  0.3476 -0.7717  0.4549
  706TIP3    H123677   6.464   0.609   0.988 -0.1716 -1.2309  1.6291
  706TIP3    H223678   6.471   0.683   1.120 -0.1022  0.5677  0.6547
  707TIP3   OH223679   2.286   2.268   0.095  0.1798  0.5294 -0.6080
  707TIP3    H123680   2.311   2.197   0.037  0.0762 -0.8268  0.9170
  707TIP3    H223681   2.262   2.224   0.177 -0.0061  2.3221  0.3469
  708TIP3   OH223682   1.741   2.251   6.373 -0.3115  0.0937 -0.0955
  708TIP3    H123683   1.681   2.237   6.299  0.6840  2.0247 -1.3530
  708TIP3    H223684   1.684   2.285   6.442 -0.9227  0.5360 -0.7876
  709TIP3   OH223685   6.161   5.904   1.878 -0.5613 -0.1674  0.0861
  709TIP3    H123686   6.171   5.885   1.972 -0.7908  2.6816  0.7887
  709TIP3    H223687   6.067   5.897   1.862 -0.5492 -0.4166  0.1165
  710TIP3   OH223688   1.255   4.719   0.531 -0.3304 -0.0297 -0.1639
  710TIP3    H123689   1.172   4.679   0.554 -0.0633 -1.0194 -0.8614
  710TIP3    H223690   1.277   4.683   0.445  1.6296 -1.1388  0.7213
  711TIP3   OH223691   5.076   5.640   1.407 -0.6447 -0.3839 -0.0530
  711TIP3    H123692   5.139   5.712   1.409 -0.1506 -0.8056 -0.2412
  711TIP3    H223693   5.091   5.593   1.489 -0.0973 -1.0010 -0.5014
  712TIP3   OH223694   6.330   2.985   7.453  0.0863  0.1171 -0.1924
  712TIP3    H123695   6.273   3.060   7.441  1.0301  0.6905 -1.2551
  712TIP3    H223696   6.350   2.955   7.364  1.0064 -0.4001  0.1711
  713TIP3   OH223697   2.975   0.229   0.062 -0.4980 -0.0086  0.0607
  713TIP3    H123698   2.916   0.282   0.008  0.7896  0.4611 -0.9402
  713TIP3    H223699   3.037   0.190  -0.000  2.1647  1.9770  1.2746
  714TIP3   OH223700   4.116   5.582   7.265  0.0576  0.1226  0.1683
  714TIP3    H123701   4.066   5.608   7.188  0.2158  0.4816  0.1840
  714TIP3    H223702   4.091   5.491   7.281  1.5670 -0.6471 -1.5350
  715TIP3   OH223703   1.233   6.141   8.732  0.7830  0.2120  0.5731
  715TIP3    H123704   1.212   6.096   8.814  2.1214 -0.4145  0.5890
  715TIP3    H223705   1.192   6.087   8.664  1.5926 -0.5248  0.6631
  716TIP3   OH223706   3.315   4.229   1.755 -0.3048  0.3495  0.0002
  716TIP3    H123707   3.315   4.260   1.845  0.9658 -0.5861  0.3455
  716TIP3    H223708   3.406   4.207   1.737 -0.6360 -0.0293 -1.3287
  717TIP3   OH223709   0.723   2.293   1.355 -0.2707  0.3676  0.3088
  717TIP3    H123710   0.746   2.290   1.448  0.4048  1.5042  0.2054
  717TIP3    H223711   0.629   2.278   1.353  0.0189 -1.9382  0.9606
  718TIP3   OH223712   1.945   1.348   0.506  0.2566  0.2478 -0.2078
  718TIP3    H123713   1.894   1.347   0.586  1.3783  1.5497  0.5822
  718TIP3    H223714   2.023   1.296   0.527 -0.0081 -0.4334 -0.8778
  719TIP3   OH223715   6.189   6.208   6.577  0.6805 -0.1207 -0.5990
  719TIP3    H123716   6.165   6.147   6.646  1.7625 -1.4427 -1.3460
  719TIP3    H223717   6.123   6.194   6.509 -0.3460  1.1347  0.0794
  720TIP3   OH223718   0.075   0.971   7.924  0.1158 -0.1455 -0.4367
  720TIP3    H123719  -0.021   0.969   7.921  0.1285 -0.5024 -0.6793
  720TIP3    H223720   0.095   1.034   7.992 -0.3153 -1.9749  1.4756
  721TIP3   OH223721   3.481   0.884   8.693 -0.1798 -0.5156 -0.0035
  721TIP3    H123722   3.494   0.817   8.625  0.5200  0.1523 -0.5493
  721TIP3    H223723   3.566   0.927   8.700 -0.3076 -0.4306  1.1599
  722TIP3   OH223724   5.065   6.410   7.314 -0.2824  0.7043  0.0797
  722TIP3    H123725   5.042   6.416   7.221  2.2303 -1.0553 -0.7508
  722TIP3    H223726   5.013   6.337   7.346 -0.4311  0.6843 -0.2007
  723TIP3   OH223727   2.441   4.005   6.657  0.2521  0.0707 -0.1114
  723TIP3    H123728   2.432   3.930   6.716 -0.6395  0.1330 -0.1575
  723TIP3    H223729   2.511   4.058   6.697 -0.5594  0.2830  1.0949
  724TIP3   OH223730   6.741   4.162   7.948 -0.4806  0.3168 -0.1110
  724TIP3    H123731   6.821   4.141   7.997 -0.1348 -2.7909 -1.7966
  724TIP3    H223732   6.741   4.258   7.942  1.2539  0.6255  2.8699
  725TIP3   OH223733   4.120   1.207   0.881  0.1672 -0.0999  0.5658
  725TIP3    H123734   4.036   1.199   0.837  0.8433 -0.3009 -0.7161
  725TIP3    H223735   4.103   1.178   0.971 -0.2210 -4.3730 -0.6814
  726TIP3   OH223736   5.769   3.599   8.427 -0.2700  0.0173 -0.1940
  726TIP3    H123737   5.757   3.504   8.420 -0.6526  0.1424 -1.5144
  726TIP3    H223738   5.770   3.616   8.521 -1.4350 -1.1506  0.0635
  727TIP3   OH223739   0.046   4.046   0.529  0.3825 -0.7213  0.3228
  727TIP3    H123740  -0.002   3.996   0.463 -0.4276  0.3435  0.0870
  727TIP3    H223741  -0.018   4.063   0.598  0.0812  1.5627 -0.4344
  728TIP3   OH223742   5.418   3.935   0.190  0.2395 -0.2256  0.1756
  728TIP3    H123743   5.372   3.992   0.129 -1.8164 -1.2445  0.6848
  728TIP3    H223744   5.433   3.854   0.141  0.1317 -0.4318  0.4798
  729TIP3   OH223745   1.550   2.775   7.222 -0.0148  0.1989 -0.2076
  729TIP3    H123746   1.642   2.761   7.201  0.4739  2.4937  0.1953
  729TIP3    H223747   1.550   2.839   7.293 -1.8996 -1.1098  1.1142
  730TIP3   OH223748   6.141   2.059   8.075 -0.1093  0.4518 -0.2352
  730TIP3    H123749   6.144   2.005   7.997 -1.1459 -0.5597  0.3950
  730TIP3    H223750   6.167   2.000   8.146  1.3583  1.4932  0.1415
  731TIP3   OH223751   5.978   5.973   8.811 -0.0859  0.4679 -0.1237
  731TIP3    H123752   5.912   5.929   8.864  0.5606 -1.8907 -1.1233
  731TIP3    H223753   5.952   5.955   8.721  2.5796 -1.8624 -0.5869
  732TIP3   OH223754   6.221   3.732   7.608 -0.3455  1.1327 -0.0397
  732TIP3    H123755   6.205   3.638   7.598 -0.6680  1.1759  0.0605
  732TIP3    H223756   6.134   3.770   7.616 -0.3084  1.6616 -1.8854
  733TIP3   OH223757   2.257   0.250   7.189  0.3001 -0.0189  0.2837
  733TIP3    H123758   2.245   0.198   7.268  2.2266 -0.6719  0.1961
  733TIP3    H223759   2.194   0.322   7.197 -1.8201 -1.8224  0.8412
  734TIP3   OH223760   4.772   3.444   8.074  0.0995 -0.3781 -0.2262
  734TIP3    H123761   4.745   3.468   8.163 -0.9314 -1.4994 -0.2157
  734TIP3    H223762   4.819   3.521   8.042 -3.6088  2.0526 -0.4326
  735TIP3   OH223763   4.571   6.508   0.342  0.0508 -0.4042  0.0871
  735TIP3    H123764   4.522   6.444   0.290 -0.9506  0.1508  0.3288
  735TIP3    H223765   4.594   6.577   0.280  2.3690 -1.6065 -0.5073
  736TIP3   OH223766   1.296   3.413   2.865  0.2251 -0.5875  0.2176
  736TIP3    H123767   1.276   3.417   2.772  0.9602  1.3131  0.0817
  736TIP3    H223768   1.348   3.334   2.876  1.8480  0.2041 -1.3778
  737TIP3   OH223769   0.250   1.262   0.342  1.0527 -0.2641 -0.5700
  737TIP3    H123770   0.312   1.189   0.355 -1.4599 -2.6572 -1.0281
  737TIP3    H223771   0.207   1.242   0.259 -2.2411 -0.3624  0.9995
  738TIP3   OH223772   4.571   1.584   8.098 -0.2917 -0.4936  0.3802
  738TIP3    H123773   4.639   1.523   8.125  0.6657 -0.1003 -1.0462
  738TIP3    H223774   4.500   1.529   8.064  0.1134 -0.8386  0.0969
  739TIP3   OH223775   2.002   6.617   8.246  0.5903  0.0652  0.1540
  739TIP3    H123776   1.986   6.523   8.238 -2.5004  0.5998 -1.7921
  739TIP3    H223777   2.061   6.638   8.174  0.7784 -0.2724  0.2086
  740TIP3   OH223778   1.189   6.416   2.296 -0.2662  0.3096 -0.6796
  740TIP3    H123779   1.166   6.493   2.243 -0.0302 -0.0521 -1.3219
  740TIP3    H223780   1.258   6.372   2.245  0.8835  0.6393  0.5433
  741TIP3   OH223781   3.242   0.081   0.649 -0.0539 -0.2070  0.4647
  741TIP3    H123782   3.265   0.080   0.556  1.5054 -0.0959  0.8112
  741TIP3    H223783   3.274  -0.004   0.681 -2.9171 -1.4158  0.4340
  742TIP3   OH223784   2.347   6.354   1.098  0.0653  0.1339  0.3948
  742TIP3    H123785   2.315   6.427   1.152  1.9094  0.9525  0.4647
  742TIP3    H223786   2.314   6.374   1.010  1.5416  1.7741  0.1554
  743TIP3   OH223787   2.602   5.408   8.136  0.3261  0.3727  0.0545
  743TIP3    H123788   2.546   5.481   8.109  0.6234  0.4535 -0.3453
  743TIP3    H223789   2.692   5.440   8.123  0.4584 -0.3955 -1.0316
  744TIP3   OH223790   1.810   5.578   1.538  0.1229  0.3037  0.2567
  744TIP3    H123791   1.793   5.635   1.463  1.9099  1.8777  0.9568
  744TIP3    H223792   1.803   5.636   1.614 -1.9427 -1.3145  1.4024
  745TIP3   OH223793   2.612   3.827   7.681 -1.0606  0.0342 -0.1371
  745TIP3    H123794   2.675   3.768   7.724  0.5467  0.7757 -1.3865
  745TIP3    H223795   2.568   3.871   7.754  0.5208  0.1637  0.7978
  746TIP3   OH223796   0.037   3.699   1.535 -0.1955 -0.6301 -0.0849
  746TIP3    H123797   0.078   3.613   1.546  0.5679 -0.2001  0.5931
  746TIP3    H223798  -0.018   3.709   1.612  0.6969 -0.0043  0.4965
  747TIP3   OH223799   5.439   2.676   1.351 -0.5459 -0.3410  0.1321
  747TIP3    H123800   5.480   2.758   1.378 -1.1787  0.2966 -0.8067
  747TIP3    H223801   5.349   2.682   1.383 -0.7646 -0.4049 -0.4624
  748TIP3   OH223802   0.775   6.205   7.112 -0.5833 -0.0679  0.3651
  748TIP3    H123803   0.756   6.169   7.199  0.7368 -2.3021 -0.1916
  748TIP3    H223804   0.820   6.287   7.130 -1.8799  0.3970  1.7378
  749TIP3   OH223805   5.086   5.040   0.362 -1.0281  0.4642  0.0854
  749TIP3    H123806   5.108   5.060   0.453  1.2756  1.3238 -0.5829
  749TIP3    H223807   5.140   4.964   0.340  2.1630  2.9611 -1.7717
  750TIP3   OH223808   6.263   2.979   1.719  0.1685 -0.1587  0.7972
  750TIP3    H123809   6.168   2.974   1.704  0.0927 -0.6813  1.3930
  750TIP3    H223810   6.273   3.041   1.792  0.1939 -0.8838  1.4280
  751TIP3   OH223811   1.563   0.965   6.969 -0.3759 -0.2315 -0.1556
  751TIP3    H123812   1.537   1.054   6.949 -1.5610 -0.2433  1.1652
  751TIP3    H223813   1.505   0.938   7.041  2.4930 -0.6522  2.2125
  752TIP3   OH223814   4.418   6.239   6.978 -0.0748 -0.3428  0.6473
  752TIP3    H123815   4.449   6.153   6.950  0.9478  0.1814  0.0924
  752TIP3    H223816   4.342   6.257   6.922  0.5893 -0.2697 -0.2584
  753TIP3   OH223817   2.532   0.841   6.212  0.0959 -0.1876 -0.7500
  753TIP3    H123818   2.546   0.922   6.163  0.3857  0.3559  0.2157
  753TIP3    H223819   2.582   0.852   6.293 -3.6166  0.7875  1.6937
  754TIP3   OH223820   1.676   2.127   0.088 -0.1020  0.1971  0.0482
  754TIP3    H123821   1.663   2.202   0.030  1.3916 -1.3701 -2.5309
  754TIP3    H223822   1.770   2.127   0.105  0.0482 -1.4475 -0.6287
  755TIP3   OH223823   5.974   2.266   2.176  0.0727  0.1260  0.4845
  755TIP3    H123824   5.952   2.180   2.142  0.5188  0.1656  0.0898
  755TIP3    H223825   5.897   2.292   2.227 -0.7199  0.1961 -0.7196
  756TIP3   OH223826   3.958   5.911   7.078  0.4304 -0.5254  0.2338
  756TIP3    H123827   4.039   5.956   7.100  0.7898 -0.5650 -0.9470
  756TIP3    H223828   3.892   5.980   7.075  0.2185 -0.6066  2.0462
  757TIP3   OH223829   6.259   6.022   7.721  0.6064  0.3599  0.2854
  757TIP3    H123830   6.308   6.020   7.803  0.4317  1.5277  0.4250
  757TIP3    H223831   6.217   6.108   7.720  1.9585  1.0485 -1.8214
  758TIP3   OH223832   6.792   1.304   1.034 -0.2473  0.3991  0.1846
  758TIP3    H123833   6.846   1.320   0.956 -2.2372  2.8283 -0.8415
  758TIP3    H223834   6.735   1.232   1.009  0.7099 -0.4205  0.3085
  759TIP3   OH223835   4.467   1.394   7.232  0.5664 -0.4951 -0.1818
  759TIP3    H123836   4.470   1.355   7.319  1.3990 -0.5017 -0.2102
  759TIP3    H223837   4.512   1.331   7.176 -1.1895 -1.1842 -0.9100
  760TIP3   OH223838   0.688   6.752   0.391  0.3212  0.3861  0.2974
  760TIP3    H123839   0.750   6.757   0.319 -2.8419  1.7257 -2.6004
  760TIP3    H223840   0.643   6.668   0.378 -2.4199  1.9564 -1.4787
  761TIP3   OH223841   4.136   2.330   0.140 -0.1002 -0.3552  0.4124
  761TIP3    H123842   4.090   2.315   0.057 -0.5480  0.8714  0.4148
  761TIP3    H223843   4.198   2.400   0.121  2.5122 -2.5642  0.1777
  762TIP3   OH223844   0.634   6.447   0.446 -0.0572  0.0592  0.0618
  762TIP3    H123845   0.568   6.428   0.379 -1.7622  1.9486  1.0905
  762TIP3    H223846   0.594   6.416   0.527 -0.7588  3.1809  1.0309
  763TIP3   OH223847   2.056   3.683   1.428 -0.6277 -0.9471 -0.1278
  763TIP3    H123848   2.106   3.639   1.497  0.7364  1.4050  0.4819
  763TIP3    H223849   2.015   3.757   1.471  0.3261  0.6443 -1.8311
  764TIP3   OH223850   3.822   1.488   7.151  0.3393  0.5067 -0.2163
  764TIP3    H123851   3.781   1.402   7.162 -0.1500  0.3693 -2.5157
  764TIP3    H223852   3.749   1.546   7.126  1.1238  0.8009 -1.9871
  765TIP3   OH223853   6.700   1.285   6.221  0.2130  0.7715  0.5907
  765TIP3    H123854   6.791   1.311   6.211  0.6639 -0.2421  1.7875
  765TIP3    H223855   6.655   1.365   6.249  0.9790  0.9980  1.2030
  766TIP3   OH223856   2.907   4.158   0.260  0.5588  0.5919  0.2258
  766TIP3    H123857   2.857   4.227   0.216  0.0580  1.1419  1.6129
  766TIP3    H223858   2.993   4.161   0.219  0.1683  1.2075 -0.5881
  767TIP3   OH223859   3.865   2.562   1.146  0.0358  0.0563  1.0434
  767TIP3    H123860   3.888   2.654   1.136 -1.4618  0.2691 -0.9701
  767TIP3    H223861   3.784   2.552   1.096  0.7458 -2.5941  0.3012
  768TIP3   OH223862   6.107   3.028   6.854 -0.1821  0.5701 -0.5154
  768TIP3    H123863   6.147   3.017   6.940  0.1584  2.3553 -0.4056
  768TIP3    H223864   6.052   3.106   6.863  0.0036  0.8979 -1.9551
  769TIP3   OH223865   3.486   2.523   0.505 -0.6551 -0.1846 -0.3038
  769TIP3    H123866   3.438   2.442   0.518 -0.5221 -0.1302  0.5628
  769TIP3    H223867   3.544   2.505   0.431 -1.3286 -0.5475 -0.7538
  770TIP3   OH223868   4.894   0.739   7.256 -0.6388  0.3804 -0.3657
  770TIP3    H123869   4.838   0.665   7.278  0.6722 -0.4950  0.1647
  770TIP3    H223870   4.915   0.778   7.340 -0.2935  0.5847 -0.5470
  771TIP3   OH223871   5.129   4.898   8.074 -0.0620  0.7855 -0.2478
  771TIP3    H123872   5.165   4.811   8.090  0.8173  1.3713  1.2221
  771TIP3    H223873   5.205   4.954   8.062 -0.5761  1.5702  0.0486
  772TIP3   OH223874   0.552   6.215   1.057 -0.2151  0.4387 -0.0991
  772TIP3    H123875   0.572   6.252   0.971  1.1508  1.1910  0.5093
  772TIP3    H223876   0.479   6.267   1.089 -1.1202 -0.2177 -1.0179
  773TIP3   OH223877   1.775   5.928   0.325  0.2301  0.1436  0.0228
  773TIP3    H123878   1.771   5.900   0.417 -0.3529 -0.7025 -0.2548
  773TIP3    H223879   1.684   5.936   0.298  0.3758 -1.2288 -0.9565
  774TIP3   OH223880   5.382   4.999   7.990 -0.3547 -0.4831 -0.1079
  774TIP3    H123881   5.463   5.017   8.037 -0.1276 -0.6840 -0.4214
  774TIP3    H223882   5.395   4.912   7.952 -1.2496 -1.1087  0.9846
  775TIP3   OH223883   5.403   4.383   0.912  0.1323  0.3682 -0.4478
  775TIP3    H123884   5.313   4.387   0.879 -0.3912  0.8642  0.9586
  775TIP3    H223885   5.393   4.382   1.007  1.6716  2.4258 -0.2115
  776TIP3   OH223886   5.846   4.583   0.039  0.0784 -0.1421  0.4123
  776TIP3    H123887   5.874   4.672   0.020 -0.0182 -0.5656 -1.9266
  776TIP3    H223888   5.762   4.593   0.084  1.3947  0.9677  2.7830
  777TIP3   OH223889   5.641   1.479   6.671 -0.0955  0.5607  0.2947
  777TIP3    H123890   5.637   1.562   6.718 -1.4466  0.6015  0.1363
  777TIP3    H223891   5.664   1.503   6.581  2.3102  0.4964  0.8354
  778TIP3   OH223892   5.416   0.691   1.651  0.5420 -0.0728 -0.0266
  778TIP3    H123893   5.489   0.654   1.701  1.4882  0.7240 -0.7736
  778TIP3    H223894   5.343   0.631   1.666  1.5236 -1.2375  0.2295
  779TIP3   OH223895   1.127   1.741   0.000 -0.3698  0.0342 -0.5103
  779TIP3    H123896   1.169   1.656  -0.009  1.5172  1.0157 -1.4940
  779TIP3    H223897   1.133   1.761   0.094 -0.5724 -0.7652 -0.3210
  780TIP3   OH223898   0.423   2.477   0.352 -0.1479 -0.0619  0.0349
  780TIP3    H123899   0.406   2.385   0.373  0.5113 -0.5980 -1.6087
  780TIP3    H223900   0.364   2.526   0.410 -1.1467 -1.5306  0.3295
  781TIP3   OH223901   5.440   2.967   6.928  0.2239  0.7578  0.0898
  781TIP3    H123902   5.508   2.979   6.994 -0.6696 -1.1641  1.4134
  781TIP3    H223903   5.462   3.032   6.860  0.9107  3.1104  2.4101
  782TIP3   OH223904   4.461   3.412   7.046 -0.5005 -0.0802 -0.2051
  782TIP3    H123905   4.387   3.472   7.058  0.7955  1.3288  1.2963
  782TIP3    H223906   4.505   3.444   6.967 -1.5318 -1.0156 -1.1906
  783TIP3   OH223907   1.410   0.900   1.763 -0.2330 -0.4273  0.5432
  783TIP3    H123908   1.446   0.935   1.844 -0.9845 -0.9350  1.1042
  783TIP3    H223909   1.458   0.818   1.749 -1.2439 -1.1887  1.3795
  784TIP3   OH223910   6.719   4.966   7.633  0.4843  0.0370  0.3583
  784TIP3    H123911   6.627   4.951   7.655  0.5152 -0.3991  0.2149
  784TIP3    H223912   6.735   4.907   7.558  0.7494  0.4682  0.0729
  785TIP3   OH223913   3.978   3.767   1.905  0.0659  0.2002  0.0932
  785TIP3    H123914   3.938   3.735   1.985 -0.9566  0.0963 -0.4371
  785TIP3    H223915   4.070   3.778   1.926 -0.5131  2.1349  1.8993
  786TIP3   OH223916   6.263   6.118   1.576 -0.0709 -0.3462 -0.4989
  786TIP3    H123917   6.228   6.079   1.496 -0.3336 -0.6656 -0.2255
  786TIP3    H223918   6.219   6.203   1.582 -0.9026 -0.7965 -0.0883
  787TIP3   OH223919   6.466   3.995   6.471  0.2812 -0.1687 -0.2137
  787TIP3    H123920   6.377   4.028   6.481 -0.0567 -0.7447 -1.1794
  787TIP3    H223921   6.477   3.931   6.541  0.1137  0.2743  0.2172
  788TIP3   OH223922   2.212   6.425   8.131  0.1047  0.5786  0.2441
  788TIP3    H123923   2.242   6.449   8.218  3.6272  0.2319 -0.7239
  788TIP3    H223924   2.290   6.394   8.086 -2.2501 -3.1202 -1.8398
  789TIP3   OH223925   5.308   4.414   1.173 -0.4227 -0.0902  0.1224
  789TIP3    H123926   5.353   4.498   1.174  1.1718 -0.9113  0.2313
  789TIP3    H223927   5.263   4.410   1.258  0.9497 -0.0924  0.8774
  790TIP3   OH223928   2.849   4.922   6.986  0.5396 -0.5554 -0.3695
  790TIP3    H123929   2.911   4.975   6.935  0.9370 -0.5706  0.0910
  790TIP3    H223930   2.905   4.866   7.040  0.1406  0.4493  1.1412
  791TIP3   OH223931   4.128   0.370   8.739 -0.3873  0.3178 -0.0779
  791TIP3    H123932   4.051   0.358   8.682 -1.0874 -1.8365  1.1920
  791TIP3    H223933   4.200   0.335   8.688 -0.6405  0.3066 -0.4363
  792TIP3   OH223934   1.227   0.631   0.995 -0.3431 -0.2493  0.2271
  792TIP3    H123935   1.305   0.583   0.969 -0.7522 -0.7531 -0.0745
  792TIP3    H223936   1.247   0.665   1.082  1.2844  1.9549 -0.9010
  793TIP3   OH223937   2.061   4.134   1.220  0.1521 -0.3359 -0.3167
  793TIP3    H123938   2.156   4.131   1.212  0.0947 -2.8632 -0.8008
  793TIP3    H223939   2.031   4.160   1.132  0.3523  0.2452 -0.2236
  794TIP3   OH223940   5.560   4.038   8.690  0.1968  0.1788  0.2236
  794TIP3    H123941   5.466   4.049   8.677  0.2297  0.6212  0.3193
  794TIP3    H223942   5.590   3.989   8.614 -0.0235  0.5245 -0.0876
  795TIP3   OH223943   1.966   3.877   1.570 -0.6932 -0.0287 -0.1066
  795TIP3    H123944   2.005   3.958   1.539 -1.4962  0.2108 -0.5208
  795TIP3    H223945   1.981   3.876   1.664 -0.6325  0.5754 -0.1107
  796TIP3   OH223946   6.789   6.135   0.726 -0.0333  0.0369  0.1400
  796TIP3    H123947   6.792   6.167   0.816  2.0899  1.9244 -0.5118
  796TIP3    H223948   6.854   6.065   0.723  1.1442  1.1063 -0.2591
  797TIP3   OH223949   3.888   4.051   0.325 -0.2383 -0.1987 -0.2525
  797TIP3    H123950   3.925   4.109   0.391  0.1805 -1.1415  0.3600
  797TIP3    H223951   3.800   4.087   0.308  0.3187  1.0861 -0.5155
  798TIP3   OH223952   4.717   6.803   7.800  0.7415  0.0083  0.2968
  798TIP3    H123953   4.769   6.774   7.874  0.6086 -2.2613 -0.4090
  798TIP3    H223954   4.733   6.737   7.732 -3.2105 -1.0403  0.1390
  799TIP3   OH223955   1.428   4.779   7.877 -0.4128  0.1656 -0.2909
  799TIP3    H123956   1.412   4.856   7.932  0.9586  0.9012 -0.8617
  799TIP3    H223957   1.488   4.725   7.929 -1.0247 -0.3288 -0.0795
  800TIP3   OH223958   1.224   1.205   6.874 -0.0580  0.3403 -0.3442
  800TIP3    H123959   1.160   1.204   6.946 -0.0100  0.6736 -0.2939
  800TIP3    H223960   1.230   1.114   6.846  1.2221 -0.1142  1.2422
  801TIP3   OH223961   3.036   0.537   8.318 -0.3444 -0.5925  0.0630
  801TIP3    H123962   2.961   0.515   8.262  0.6344  0.8797 -1.9429
  801TIP3    H223963   3.013   0.502   8.404 -2.8982 -1.0112 -0.7169
  802TIP3   OH223964   1.571   4.085   8.121  0.3134 -0.3391  0.2659
  802TIP3    H123965   1.574   4.085   8.026  2.2914  0.3229  0.2744
  802TIP3    H223966   1.499   4.145   8.143  0.1792 -0.0853 -0.8028
  803TIP3   OH223967   4.904   5.129   7.887 -0.3770 -0.2756 -0.5000
  803TIP3    H123968   4.939   5.123   7.976 -3.2252  4.1507  1.2489
  803TIP3    H223969   4.829   5.069   7.886  0.6612 -1.6221 -0.6086
  804TIP3   OH223970   1.128   0.970   7.744 -0.0543  0.4975  0.0371
  804TIP3    H123971   1.114   0.935   7.832  1.8172 -1.7224 -0.4515
  804TIP3    H223972   1.056   0.933   7.692 -0.6411  1.0817  0.4077
  805TIP3   OH223973   5.161   2.965   8.523 -0.4476 -0.1381 -0.1789
  805TIP3    H123974   5.137   2.879   8.559  0.2284  0.0267  0.6995
  805TIP3    H223975   5.188   3.016   8.599 -0.0071  0.5782 -0.8058
  806TIP3   OH223976   6.019   2.972   1.105 -0.2959 -0.0368 -0.5741
  806TIP3    H123977   6.079   3.002   1.036  1.5621  0.9771  1.3962
  806TIP3    H223978   5.966   3.049   1.126 -1.8855 -0.7403 -1.8127
  807TIP3   OH223979   0.937   1.926   6.053 -0.0812 -0.4703 -0.5320
  807TIP3    H123980   1.021   1.931   6.099 -0.0531 -0.6972 -0.5595
  807TIP3    H223981   0.950   1.859   5.986 -0.5241 -1.0652 -0.0344
  808TIP3   OH223982   1.682   4.694   0.482 -0.5420  0.2313 -0.0688
  808TIP3    H123983   1.760   4.742   0.507 -0.8629  1.1243 -0.7154
  808TIP3    H223984   1.613   4.728   0.539 -0.0908 -2.0820  2.0254
  809TIP3   OH223985   0.787   1.995   1.517 -0.2843 -0.1262  0.1648
  809TIP3    H123986   0.780   2.080   1.559 -1.6437 -0.7019  1.2214
  809TIP3    H223987   0.724   1.999   1.444  0.6584  0.2218 -0.6436
  810TIP3   OH223988   3.603   5.541   8.169  0.7890 -0.4365  0.2453
  810TIP3    H123989   3.583   5.460   8.123  1.2774 -1.0653  1.1116
  810TIP3    H223990   3.693   5.561   8.143  0.5960 -0.0515 -0.1339
  811TIP3   OH223991   3.044   2.520   6.305 -0.6968  0.5724  0.9485
  811TIP3    H123992   2.980   2.583   6.337 -0.5710  0.8101  0.7408
  811TIP3    H223993   3.022   2.508   6.213  0.8610  2.3190  0.2891
  812TIP3   OH223994   3.844   6.334   7.779  0.5770  0.3914  0.4077
  812TIP3    H123995   3.825   6.332   7.873 -0.9240  0.5916  0.1473
  812TIP3    H223996   3.757   6.328   7.738  1.3061 -1.6763 -1.0015
  813TIP3   OH223997   3.815   1.488   0.534  0.0019 -0.2759 -0.2726
  813TIP3    H123998   3.903   1.477   0.568 -0.5187 -0.4831  1.0849
  813TIP3    H223999   3.815   1.573   0.491 -0.0238  1.3705  2.7496
  814TIP3   OH224000   3.409   0.755   0.755 -0.1019  0.0056 -0.3460
  814TIP3    H124001   3.496   0.795   0.762 -0.1182 -0.0557  0.3528
  814TIP3    H224002   3.349   0.821   0.790 -0.4197  0.2989 -1.4297
  815TIP3   OH224003   3.319   2.137   8.449 -0.1061 -0.8290 -0.1805
  815TIP3    H124004   3.261   2.064   8.472  0.0861 -0.6665  0.8885
  815TIP3    H224005   3.406   2.098   8.442 -0.2877 -1.0388 -1.5975
  816TIP3   OH224006   2.658   1.871   1.131  0.3660  0.1850  0.0562
  816TIP3    H124007   2.563   1.885   1.133  0.2256 -0.7404  0.6456
  816TIP3    H224008   2.685   1.878   1.223  1.0979  1.8205 -0.2496
  817TIP3   OH224009   3.015   0.583   7.133 -0.3066 -0.3314  0.4190
  817TIP3    H124010   2.928   0.618   7.148 -0.0157  0.2477  0.7505
  817TIP3    H224011   3.023   0.579   7.037 -1.0249 -1.2314  0.3809
  818TIP3   OH224012   2.056   1.198   8.564 -0.6240  0.4172 -0.4843
  818TIP3    H124013   2.077   1.145   8.488 -3.5733 -0.4105 -0.8325
  818TIP3    H224014   1.976   1.245   8.540 -2.1066 -0.4538  2.3026
  819TIP3   OH224015   0.219   2.842   1.657 -0.4887  0.1212 -0.2848
  819TIP3    H124016   0.307   2.815   1.685  0.0204  0.9931 -0.9807
  819TIP3    H224017   0.189   2.770   1.601  0.5883  0.6455 -1.6007
  820TIP3   OH224018   2.993   2.144   0.311 -0.0040  0.5023 -0.2183
  820TIP3    H124019   3.045   2.094   0.373 -1.0814  0.7472  0.9066
  820TIP3    H224020   2.923   2.183   0.363 -1.9789 -0.6846 -1.8403
  821TIP3   OH224021   4.373   5.612   7.877  0.3476 -0.2263 -0.3099
  821TIP3    H124022   4.454   5.633   7.923  0.8684 -1.6094 -0.5470
  821TIP3    H224023   4.398   5.611   7.785 -0.3389  1.0031 -0.5242
  822TIP3   OH224024   3.952   4.745   6.348  0.1723 -0.4314  0.0327
  822TIP3    H124025   3.935   4.836   6.326 -0.1942 -0.3318  0.7046
  822TIP3    H224026   4.002   4.749   6.430  1.6356 -0.7884 -0.8028
  823TIP3   OH224027   0.204   0.522   8.097  0.2197 -0.5054  0.4748
  823TIP3    H124028   0.202   0.454   8.164  0.6530 -4.0532 -2.7798
  823TIP3    H224029   0.276   0.497   8.040 -1.0734  1.3758 -2.1899
  824TIP3   OH224030   5.535   1.297   7.975 -0.5237  0.0974  0.3068
  824TIP3    H124031   5.505   1.232   8.038  0.9644  0.6597  1.6641
  824TIP3    H224032   5.617   1.261   7.939 -1.4175 -0.2864 -1.4840
  825TIP3   OH224033   0.799   6.430   7.466  0.3371 -0.2958  0.0111
  825TIP3    H124034   0.777   6.509   7.415 -1.4266 -0.0027  1.1250
  825TIP3    H224035   0.810   6.462   7.555 -0.8887 -1.3543  0.5625
  826TIP3   OH224036   5.577   4.647   0.573  0.3174 -0.0076 -0.9744
  826TIP3    H124037   5.567   4.552   0.574 -0.1450  0.0154  0.8837
  826TIP3    H224038   5.619   4.667   0.490  3.0398 -2.1222 -0.2339
  827TIP3   OH224039   0.373   2.679   8.659  0.5561 -0.4944  0.1698
  827TIP3    H124040   0.326   2.681   8.742  2.0760  0.3864  1.0653
  827TIP3    H224041   0.387   2.771   8.637  2.1509 -0.7040  0.1569
  828TIP3   OH224042   4.038   1.816   2.650  0.3494  0.5643 -0.4586
  828TIP3    H124043   3.969   1.877   2.626 -0.1492 -0.0639 -0.6435
  828TIP3    H224044   3.994   1.732   2.660  0.8236  0.4590  0.9679
  829TIP3   OH224045   3.922   1.661   6.961 -0.1951 -0.3571 -0.4354
  829TIP3    H124046   3.845   1.605   6.975  0.4070 -1.8127 -2.4001
  829TIP3    H224047   3.997   1.603   6.974  0.5444  0.7077  0.1623
  830TIP3   OH224048   5.714   3.502   7.620 -0.0647 -0.4810 -0.0443
  830TIP3    H124049   5.633   3.546   7.644 -0.8588 -1.7496 -0.3401
  830TIP3    H224050   5.761   3.566   7.566 -2.2054 -0.7823 -2.4131
  831TIP3   OH224051   0.223   3.082   6.259 -0.0507  0.5460 -0.0873
  831TIP3    H124052   0.169   3.158   6.237  0.4073  0.6633 -0.8733
  831TIP3    H224053   0.306   3.099   6.215  0.8256  0.6295  1.5521
  832TIP3   OH224054   6.764   4.765   7.459 -0.4551  0.1644  0.7533
  832TIP3    H124055   6.804   4.812   7.386 -2.3951 -0.9516 -1.1608
  832TIP3    H224056   6.812   4.683   7.463 -2.5263 -1.3706 -1.8394
  833TIP3   OH224057   0.030   3.120   7.240 -0.2464  0.2938 -0.3631
  833TIP3    H124058  -0.043   3.058   7.246 -0.0098 -0.0212 -0.6790
  833TIP3    H224059   0.072   3.115   7.326 -2.3779  2.7568  0.9847
  834TIP3   OH224060   5.287   1.062   1.862  0.0790  0.5404  0.3120
  834TIP3    H124061   5.272   1.082   1.770 -0.6074 -1.3052 -0.0121
  834TIP3    H224062   5.383   1.058   1.870  0.1585 -1.8449 -0.9642
  835TIP3   OH224063   0.037   6.162   0.426 -0.5488 -1.0028  0.1817
  835TIP3    H124064   0.026   6.154   0.331  0.5064 -0.4581  0.0048
  835TIP3    H224065   0.010   6.077   0.461 -2.5138 -0.6993 -0.4463
  836TIP3   OH224066   0.520   4.238   0.460  0.0566  0.2774  0.3138
  836TIP3    H124067   0.500   4.156   0.414 -0.6811  0.2037  0.7582
  836TIP3    H224068   0.581   4.211   0.529  0.9351  0.3423 -0.4091
  837TIP3   OH224069   3.162   3.211   7.705  0.0975 -0.3018  0.2211
  837TIP3    H124070   3.158   3.118   7.683  0.7311 -0.3682  0.3684
  837TIP3    H224071   3.180   3.213   7.799 -2.4046 -0.0120  0.7716
  838TIP3   OH224072   2.246   2.411   0.652 -0.0862 -0.7648 -0.1016
  838TIP3    H124073   2.286   2.414   0.739  0.0783 -1.4854 -0.1443
  838TIP3    H224074   2.157   2.444   0.665 -0.2057 -1.2807  0.4234
  839TIP3   OH224075   4.707   3.396   6.730  0.0529  0.3955 -0.0499
  839TIP3    H124076   4.758   3.400   6.812 -0.9102 -0.7363  0.6293
  839TIP3    H224077   4.657   3.477   6.729 -1.5215 -0.4769  1.5964
  840TIP3   OH224078   6.694   5.279   7.023  0.4975 -0.0178  0.1106
  840TIP3    H124079   6.608   5.258   7.058 -0.1961 -0.5186 -1.8260
  840TIP3    H224080   6.705   5.373   7.040 -0.5365  0.1031  0.1196
  841TIP3   OH224081   3.766   3.173   7.593  0.3150 -0.2277 -0.1426
  841TIP3    H124082   3.766   3.085   7.630 -1.4210  0.4124  1.5085
  841TIP3    H224083   3.846   3.213   7.627 -0.0811 -0.4185  1.0577
  842TIP3   OH224084   6.222   0.538   0.779 -0.4054  0.0205 -0.1197
  842TIP3    H124085   6.165   0.463   0.798 -0.2019  0.0673  0.7166
  842TIP3    H224086   6.282   0.541   0.853  0.0116  0.6151 -0.4784
  843TIP3   OH224087   0.837   5.208   1.002  0.0196 -0.3637 -0.1075
  843TIP3    H124088   0.850   5.300   1.026  0.9133 -0.2554 -0.9685
  843TIP3    H224089   0.921   5.179   0.967  0.2728 -2.0013  1.6612
  844TIP3   OH224090   6.404   4.723   7.955  0.5816 -0.5983  0.1800
  844TIP3    H124091   6.387   4.629   7.942  2.4302 -0.6969 -2.2349
  844TIP3    H224092   6.499   4.729   7.966  0.4415  0.9791  0.8444
  845TIP3   OH224093   0.133   4.004   0.058  0.7103 -0.2564 -0.5321
  845TIP3    H124094   0.121   3.919   0.017 -0.3876 -0.1022 -0.5627
  845TIP3    H224095   0.073   4.062   0.012  0.8153  0.3418  0.0626
  846TIP3   OH224096   1.227   4.989   0.318 -0.2866  0.2364 -0.1946
  846TIP3    H124097   1.182   5.030   0.392 -0.7319  1.7136 -1.2433
  846TIP3    H224098   1.174   4.911   0.298 -0.7191  0.3620  0.4328
  847TIP3   OH224099   3.028   4.933   1.540  0.8901  0.2475  0.7785
  847TIP3    H124100   3.004   4.936   1.633  2.6108  0.5558  1.2463
  847TIP3    H224101   3.059   4.843   1.527  0.3552  0.1140  0.4167
  848TIP3   OH224102   1.941   2.358   1.267 -0.4064 -0.5205 -0.3678
  848TIP3    H124103   2.001   2.333   1.197  2.8230 -1.8723  2.6032
  848TIP3    H224104   1.988   2.426   1.315 -2.1876 -0.1542  0.9517
  849TIP3   OH224105   0.190   4.514   1.095  0.2098 -0.8090 -0.0402
  849TIP3    H124106   0.223   4.551   1.177  0.4976 -2.1406  0.4598
  849TIP3    H224107   0.111   4.564   1.077 -0.3745 -1.1078  1.5506
  850TIP3   OH224108   6.563   0.514   1.471 -0.6021  0.1499 -0.4107
  850TIP3    H124109   6.649   0.537   1.434 -0.0288  1.5573  1.6289
  850TIP3    H224110   6.573   0.423   1.500  0.0560  0.1556 -0.6002
  851TIP3   OH224111   3.558   4.048   0.555  0.1178  0.1451  0.6335
  851TIP3    H124112   3.602   4.089   0.480  0.3278  0.7967  1.1048
  851TIP3    H224113   3.543   3.958   0.527  1.5144 -0.0201  0.3587
  852TIP3   OH224114   4.634   2.875   0.146 -0.1416 -0.3044  0.8246
  852TIP3    H124115   4.581   2.953   0.160 -0.4696 -0.1963 -0.7853
  852TIP3    H224116   4.622   2.854   0.053 -0.6001 -2.6712  1.3539
  853TIP3   OH224117   2.969   3.632   8.792  0.4960 -0.2418  0.3926
  853TIP3    H124118   2.916   3.602   8.866  1.7896 -1.8788  0.7182
  853TIP3    H224119   2.917   3.611   8.715 -1.2096  2.1650  0.7740
  854TIP3   OH224120   5.823   2.679   0.216  0.7771 -0.0081  0.3016
  854TIP3    H124121   5.903   2.690   0.164  1.3677  1.7337  1.5309
  854TIP3    H224122   5.760   2.738   0.176  0.1495 -1.1418 -0.4620
  855TIP3   OH224123   4.433   6.041   7.495 -0.5544  0.0189 -0.2057
  855TIP3    H124124   4.469   6.052   7.407 -1.6953 -1.4051 -0.8864
  855TIP3    H224125   4.354   5.989   7.482 -0.5330 -0.5526  1.7076
  856TIP3   OH224126   1.577   5.810   1.433  0.2873  0.0452  0.3282
  856TIP3    H124127   1.513   5.881   1.428 -1.0209 -1.0843  0.4537
  856TIP3    H224128   1.573   5.768   1.348 -0.4409 -1.1090  0.9161
  857TIP3   OH224129   1.962   3.417   6.588 -0.1145  0.4352 -0.3608
  857TIP3    H124130   2.013   3.457   6.658 -1.3749  0.1608  0.7452
  857TIP3    H224131   2.024   3.410   6.515  0.8862  1.8700  0.2900
  858TIP3   OH224132   2.397   3.464   8.810  0.2344 -0.3369  0.3494
  858TIP3    H124133   2.458   3.536   8.793  0.0856 -0.3316 -0.1807
  858TIP3    H224134   2.452   3.387   8.820  0.3200 -0.3782 -0.3869
  859TIP3   OH224135   1.807   2.062   7.469  0.3092 -0.3940 -0.0921
  859TIP3    H124136   1.717   2.041   7.496  0.3466 -0.3459  0.0732
  859TIP3    H224137   1.827   2.144   7.516  0.0176  0.2381 -1.0348
  860TIP3   OH224138   0.628   5.014   1.087 -0.1793  0.4737  0.1104
  860TIP3    H124139   0.650   4.950   1.155 -1.1416 -0.4992 -0.4628
  860TIP3    H224140   0.711   5.058   1.068  0.7133 -1.1835 -0.0612
  861TIP3   OH224141   1.785   3.683   1.360  0.1957  0.3596  0.0539
  861TIP3    H124142   1.881   3.684   1.364  0.1822 -0.3863  1.0764
  861TIP3    H224143   1.760   3.775   1.363  0.8823  0.5631 -0.2696
  862TIP3   OH224144   2.372   1.948   1.155 -0.6963  0.0026  0.1520
  862TIP3    H124145   2.338   1.971   1.242  0.4062 -1.2993  0.9605
  862TIP3    H224146   2.305   1.889   1.118 -0.5974 -0.4243  0.6408
  863TIP3   OH224147   3.680   5.516   1.714  0.4763  0.2052 -0.0991
  863TIP3    H124148   3.636   5.493   1.633  0.0513 -0.4270  0.3029
  863TIP3    H224149   3.772   5.492   1.699  0.2075 -0.9491 -0.0197
  864TIP3   OH224150   2.675   0.930   0.268 -0.3936  0.0362  0.6296
  864TIP3    H124151   2.686   0.854   0.326 -0.2514 -1.2090 -0.9494
  864TIP3    H224152   2.763   0.952   0.239 -0.6548 -1.2987 -1.4143
  865TIP3   OH224153   3.708   0.942   1.073  0.0926 -0.0636 -0.0853
  865TIP3    H124154   3.643   1.011   1.087 -0.4766 -0.5132 -0.4257
  865TIP3    H224155   3.768   0.949   1.147 -0.3301  0.3834  0.2176
  866TIP3   OH224156   0.773   4.873   1.283  0.4634  0.8424  0.4331
  866TIP3    H124157   0.822   4.802   1.241  0.9973  1.5840 -0.2075
  866TIP3    H224158   0.837   4.943   1.295 -0.7203  2.3944 -1.7306
  867TIP3   OH224159   5.613   0.654   1.849 -0.0906 -0.4924  0.2523
  867TIP3    H124160   5.708   0.661   1.848 -0.1918  1.8110  1.1175
  867TIP3    H224161   5.595   0.570   1.892  1.4977 -1.4359 -0.8182
  868TIP3   OH224162   0.445   6.731   0.820 -0.0479 -1.0100  0.6622
  868TIP3    H124163   0.408   6.814   0.851  0.6453 -0.8707  1.1266
  868TIP3    H224164   0.408   6.721   0.732  0.9588  0.5029  0.0195
  869TIP3   OH224165   1.311   1.627   1.452 -0.1272  0.3160 -0.9679
  869TIP3    H124166   1.292   1.714   1.486 -1.6628  0.9190 -3.1353
  869TIP3    H224167   1.271   1.626   1.365  1.6070 -1.8663 -1.8390
  870TIP3   OH224168   4.377   6.668   0.601 -0.1346 -0.1605 -0.8064
  870TIP3    H124169   4.458   6.695   0.645 -1.2826 -0.8683  1.9904
  870TIP3    H224170   4.373   6.573   0.616 -1.2751 -0.1913 -1.2538
  871TIP3   OH224171   0.201   5.754   6.279 -0.3129 -0.6027 -0.2670
  871TIP3    H124172   0.140   5.827   6.286  0.1134 -0.3694  1.4980
  871TIP3    H224173   0.149   5.677   6.304 -0.4951 -0.7760 -1.1389
  872TIP3   OH224174   0.300   2.213   1.543 -0.6977 -0.0279 -0.5515
  872TIP3    H124175   0.260   2.135   1.505 -1.9419  1.0536 -1.5592
  872TIP3    H224176   0.237   2.242   1.610  0.3646 -0.5800  0.7389
  873TIP3   OH224177   5.858   2.553   1.181  0.0993 -0.1994  0.3664
  873TIP3    H124178   5.851   2.473   1.129 -1.7657 -0.7941  1.4461
  873TIP3    H224179   5.826   2.528   1.268 -0.6790  1.7697  0.6953
  874TIP3   OH224180   4.676   6.286   7.099  0.1266  0.4022 -0.0376
  874TIP3    H124181   4.766   6.259   7.080 -0.6766 -1.8761 -0.9973
  874TIP3    H224182   4.640   6.313   7.014 -1.0141 -1.9039 -0.3825
  875TIP3   OH224183   5.899   2.153   1.407 -0.8040  0.3652 -0.0676
  875TIP3    H124184   5.846   2.073   1.416  0.3839 -0.3468  0.8561
  875TIP3    H224185   5.960   2.150   1.480  0.0566  1.5230 -0.7059
  876TIP3   OH224186   0.118   6.780   0.340 -0.5428 -0.4223  0.7028
  876TIP3    H124187   0.041   6.744   0.383 -1.3278 -0.2661 -0.5052
  876TIP3    H224188   0.083   6.828   0.264  0.6914  0.2541  0.5240
  877TIP3   OH224189   4.029   6.540   2.370 -0.3701 -0.0097 -0.3529
  877TIP3    H124190   3.979   6.511   2.294 -0.8244  1.1830 -0.5290
  877TIP3    H224191   3.965   6.583   2.426  0.0755 -0.3389  0.4279
  878TIP3   OH224192   0.716   5.839   7.693 -0.2774  0.3599 -0.3015
  878TIP3    H124193   0.739   5.748   7.711 -1.4906 -0.0732 -0.8024
  878TIP3    H224194   0.722   5.847   7.597 -0.7299  0.6410 -0.3101
  879TIP3   OH224195   5.125   3.031   7.532 -0.0084  0.0250  0.2235
  879TIP3    H124196   5.172   3.062   7.454 -1.0773 -2.1838 -1.3983
  879TIP3    H224197   5.042   3.078   7.530 -0.4622 -0.7772 -0.6120
  880TIP3   OH224198   0.836   6.557   1.291 -0.8604  0.2241 -0.1699
  880TIP3    H124199   0.821   6.642   1.250 -1.6044  0.4874  0.6029
  880TIP3    H224200   0.748   6.524   1.309 -0.6400  0.9703  2.8847
  881TIP3   OH224201   4.559   0.191   0.214 -0.3479 -0.0417 -0.0346
  881TIP3    H124202   4.572   0.190   0.119  0.2138 -0.1183  0.0427
  881TIP3    H224203   4.630   0.245   0.248 -0.7353  0.2576  0.3203
  882TIP3   OH224204   4.904   3.293   0.152 -0.0210  0.5041  0.1091
  882TIP3    H124205   4.826   3.271   0.203 -0.0660 -0.9365 -0.5397
  882TIP3    H224206   4.940   3.370   0.196 -1.7118  1.1122  0.5090
  883TIP3   OH224207   2.859   2.090   8.750 -0.0878  0.0003 -0.0192
  883TIP3    H124208   2.835   2.168   8.700 -0.6079 -1.2065 -1.7474
  883TIP3    H224209   2.822   2.017   8.700  1.1106 -1.4273  1.0881
  884TIP3   OH224210   0.383   1.514   0.337  0.4269  0.3618 -0.3938
  884TIP3    H124211   0.323   1.441   0.321  0.1581 -0.3380  3.0385
  884TIP3    H224212   0.345   1.587   0.288 -1.9984 -0.6135 -0.1228
  885TIP3   OH224213   2.389   1.054   6.609  0.1774  0.1101  0.1577
  885TIP3    H124214   2.415   1.078   6.520  0.2084  0.1586  0.1797
  885TIP3    H224215   2.456   0.992   6.638  0.4782  0.5191  0.3511
  886TIP3   OH224216   3.301   4.438   0.576  0.3839 -0.3717 -0.7466
  886TIP3    H124217   3.235   4.392   0.524 -0.2013  0.1040 -0.4333
  886TIP3    H224218   3.270   4.528   0.582  0.4885 -0.3844  0.3316
  887TIP3   OH224219   3.684   1.729   7.460  0.3662  0.0516 -0.0664
  887TIP3    H124220   3.669   1.759   7.371  1.7932 -0.1042 -0.3684
  887TIP3    H224221   3.599   1.694   7.488  0.0550 -0.4147 -1.5497
  888TIP3   OH224222   4.635   0.986   0.324 -0.3340  0.0947  0.2590
  888TIP3    H124223   4.706   0.961   0.265 -1.2687 -1.2396 -0.3527
  888TIP3    H224224   4.655   0.943   0.407 -0.4449 -0.3119  0.0750
  889TIP3   OH224225   4.319   3.413   8.225  0.3076  0.0066  0.5684
  889TIP3    H124226   4.250   3.477   8.242 -0.7675 -0.8349 -0.4705
  889TIP3    H224227   4.379   3.423   8.299 -0.7816  0.9422  1.3730
  890TIP3   OH224228   3.378   1.710   0.527  0.1434  0.4760 -0.0696
  890TIP3    H124229   3.296   1.663   0.546  0.3548 -0.3192 -1.0399
  890TIP3    H224230   3.429   1.649   0.475 -0.3062  2.3558 -2.9900
  891TIP3   OH224231   2.409   5.017   0.830  0.7918  0.3663 -0.0179
  891TIP3    H124232   2.453   5.073   0.894  0.3391  0.1976  0.4461
  891TIP3    H224233   2.367   5.078   0.770  0.5939  0.5249  0.2800
  892TIP3   OH224234   1.579   1.230   6.704 -0.2867  0.2150  0.1498
  892TIP3    H124235   1.670   1.258   6.694 -0.1389 -0.6140 -1.1644
  892TIP3    H224236   1.545   1.227   6.614 -1.9132  1.4202  0.6837
  893TIP3   OH224237   6.589   4.864   2.485  0.1419  0.1375 -0.4085
  893TIP3    H124238   6.618   4.941   2.533  3.0236 -0.6077 -0.7658
  893TIP3    H224239   6.537   4.815   2.549 -1.0619  1.9287  0.0601
  894TIP3   OH224240   4.784   3.418   2.200  0.1160 -0.2354  0.1462
  894TIP3    H124241   4.852   3.422   2.267  1.4689  0.8439 -1.2055
  894TIP3    H224242   4.781   3.507   2.164 -0.3976 -0.8255 -1.3446
  895TIP3   OH224243   4.110   1.417   7.012  0.2179  0.0060 -0.1907
  895TIP3    H124244   4.095   1.355   6.941  0.0447 -1.2312  0.8928
  895TIP3    H224245   4.081   1.371   7.091 -0.4171  1.6736  0.5907
  896TIP3   OH224246   5.155   2.011   7.234 -0.0940  0.6070  0.4023
  896TIP3    H124247   5.223   2.078   7.247  1.4218 -0.3947 -1.6659
  896TIP3    H224248   5.132   1.983   7.322  0.8968  2.2388  1.2365
  897TIP3   OH224249   5.693   4.611   1.460  0.1848 -0.3558 -0.0414
  897TIP3    H124250   5.698   4.540   1.523 -0.5549 -0.6280 -0.2798
  897TIP3    H224251   5.778   4.611   1.417  1.1637  0.6257  1.7753
  898TIP3   OH224252   2.449   1.859   0.495 -0.2595  0.1225 -0.1297
  898TIP3    H124253   2.490   1.938   0.462  0.4871 -0.6749 -1.1974
  898TIP3    H224254   2.432   1.877   0.588  3.2594  0.2332  0.6248
  899TIP3   OH224255   1.528   2.200   6.187 -0.1891  0.3594 -0.6569
  899TIP3    H124256   1.454   2.140   6.181 -0.0205  0.1260 -0.3843
  899TIP3    H224257   1.498   2.270   6.244  0.2819 -0.4488  0.6274
  900TIP3   OH224258   4.661   1.867   6.119 -0.7789  0.1794 -0.3327
  900TIP3    H124259   4.711   1.909   6.189 -1.8066 -0.2803  0.7101
  900TIP3    H224260   4.572   1.861   6.154 -1.2485 -0.3267 -1.5707
  901TIP3   OH224261   2.004   5.514   0.798 -0.0338  0.1193  0.8415
  901TIP3    H124262   1.981   5.424   0.775  1.4843  0.0239 -0.4484
  901TIP3    H224263   2.096   5.509   0.823  0.2380  1.4099  0.1614
  902TIP3   OH224264   3.124   2.369   8.150  0.1195 -0.5467 -0.3967
  902TIP3    H124265   3.049   2.425   8.169 -1.2315 -1.8936 -1.5232
  902TIP3    H224266   3.197   2.431   8.140 -1.2576  1.0206 -1.4111
  903TIP3   OH224267   4.625   6.477   8.825  0.4583 -0.6304 -0.0831
  903TIP3    H124268   4.590   6.552   8.874  1.4241  0.7330 -1.3615
  903TIP3    H224269   4.670   6.424   8.891  1.4701  0.9933  0.6060
  904TIP3   OH224270   1.431   4.138   6.993  0.4638 -0.1351  0.0601
  904TIP3    H124271   1.415   4.233   6.993  0.3863 -0.1476 -0.3263
  904TIP3    H224272   1.454   4.118   6.902  1.0104 -0.3983  0.2519
  905TIP3   OH224273   2.623   2.572   7.881 -0.0957 -0.8869 -0.2562
  905TIP3    H124274   2.656   2.511   7.947 -0.4586 -1.4313 -0.5592
  905TIP3    H224275   2.535   2.539   7.861 -0.5698  0.1601  0.0816
  906TIP3   OH224276   5.432   2.977   2.217  0.2398  0.4866 -0.3045
  906TIP3    H124277   5.343   2.960   2.248  1.4072  0.5792  3.5263
  906TIP3    H224278   5.429   3.066   2.182 -0.7006  1.4402  2.0543
  907TIP3   OH224279   0.303   6.767   1.845  0.1123  0.4143 -0.1250
  907TIP3    H124280   0.359   6.840   1.874 -0.0972  0.5579 -0.0828
  907TIP3    H224281   0.330   6.694   1.900 -0.6995  0.8371  0.8660
  908TIP3   OH224282   2.307   6.118   1.655 -0.0668 -0.6087 -0.4773
  908TIP3    H124283   2.400   6.130   1.634 -0.0341 -0.4578 -0.2496
  908TIP3    H224284   2.293   6.171   1.733 -0.1763 -1.1891 -0.0905
  909TIP3   OH224285   4.651   0.838   1.841 -0.4909 -0.6345  0.5777
  909TIP3    H124286   4.663   0.746   1.862  1.1175 -1.3420 -2.7566
  909TIP3    H224287   4.726   0.882   1.881  0.0532 -1.1943  0.1943
  910TIP3   OH224288   3.138   5.312   6.721  0.1960 -0.4703  0.2767
  910TIP3    H124289   3.230   5.293   6.740  0.2562  0.3588  0.8345
  910TIP3    H224290   3.089   5.243   6.765  0.5455 -0.9110 -0.0168
  911TIP3   OH224291   6.448   4.654   2.541 -0.2695  0.5366 -0.0261
  911TIP3    H124292   6.451   4.606   2.458 -0.2915  1.1931 -0.4129
  911TIP3    H224293   6.455   4.586   2.608 -0.4612 -0.0211 -0.5593
  912TIP3   OH224294   5.820   2.409   1.425 -0.2337 -0.2743  0.0954
  912TIP3    H124295   5.850   2.319   1.411 -1.3086 -1.2755  3.3942
  912TIP3    H224296   5.876   2.442   1.495 -0.4410  1.3598 -0.4649
  913TIP3   OH224297   1.041   2.025   1.724  0.3591  0.4041 -0.0340
  913TIP3    H124298   1.013   2.115   1.744 -0.6714  0.0146  0.3185
  913TIP3    H224299   0.962   1.973   1.731  0.3760 -0.1544 -2.8418
  914TIP3   OH224300   4.069   1.772   1.184 -0.0696 -0.0316 -0.7878
  914TIP3    H124301   4.110   1.816   1.259 -1.4732 -1.0973  0.6814
  914TIP3    H224302   3.993   1.729   1.221 -1.2933  0.0717 -3.0198
  915TIP3   OH224303   1.216   5.456   7.683 -0.0053 -0.0290 -0.1266
  915TIP3    H124304   1.260   5.450   7.598 -1.0851 -1.8057 -0.6109
  915TIP3    H224305   1.145   5.518   7.668  0.2229  0.1957 -0.3073
  916TIP3   OH224306   1.615   0.613   6.976 -0.2957  0.0324 -0.0057
  916TIP3    H124307   1.543   0.584   6.920 -0.2108 -1.3218  0.5443
  916TIP3    H224308   1.670   0.535   6.986  1.7215  1.2303 -1.0797
  917TIP3   OH224309   1.945   1.902   1.342 -0.4818 -0.9166  0.0616
  917TIP3    H124310   2.005   1.944   1.280 -1.6884 -0.5357 -0.8934
  917TIP3    H224311   1.993   1.826   1.374 -0.0723 -1.5548 -1.9133
  918TIP3   OH224312   0.192   6.790   7.945 -0.0412  0.3990 -0.0254
  918TIP3    H124313   0.118   6.765   8.000  1.0587 -0.9033  0.9080
  918TIP3    H224314   0.238   6.708   7.926  1.2370  1.1817 -0.4733
  919TIP3   OH224315   6.230   5.038   0.964  0.0969  0.1020  0.0907
  919TIP3    H124316   6.146   5.055   0.923  0.9412 -1.0070 -2.2899
  919TIP3    H224317   6.290   5.021   0.891  1.8093 -1.6507  1.7673
  920TIP3   OH224318   5.682   0.952   6.952 -0.0184 -0.2271 -0.2124
  920TIP3    H124319   5.655   1.044   6.958 -1.0309 -0.5518  0.3016
  920TIP3    H224320   5.686   0.935   6.858 -0.3846  0.1796 -0.3040
  921TIP3   OH224321   2.979   4.374   7.950 -0.7666 -0.6919  0.1381
  921TIP3    H124322   3.017   4.332   8.028 -0.3680 -0.5832  0.0064
  921TIP3    H224323   2.893   4.403   7.979 -0.6622 -0.7414  0.5157
  922TIP3   OH224324   1.769   4.030   8.557 -0.3949  0.5299  0.0931
  922TIP3    H124325   1.834   4.083   8.511  0.0705 -0.2382 -0.1688
  922TIP3    H224326   1.684   4.066   8.530 -0.1135  0.3784 -1.0379
  923TIP3   OH224327   3.821   5.569   0.231  0.1841 -0.1568  0.1324
  923TIP3    H124328   3.913   5.570   0.256  0.6801 -0.1495 -1.5679
  923TIP3    H224329   3.792   5.660   0.240  1.5252  0.7591 -3.1860
  924TIP3   OH224330   3.231   1.650   0.987 -0.2228  0.5693 -0.0157
  924TIP3    H124331   3.237   1.587   0.915 -0.7595 -0.7558  1.0569
  924TIP3    H224332   3.182   1.724   0.950 -1.5333 -0.5887 -0.7013
  925TIP3   OH224333   5.039   1.814   7.736  0.4074 -0.5989 -0.4263
  925TIP3    H124334   5.085   1.793   7.817  1.5336  1.8447 -0.3429
  925TIP3    H224335   4.978   1.884   7.760  0.4558 -0.1279 -1.5921
  926TIP3   OH224336   4.224   2.657   0.450  0.0287  0.0487  0.0441
  926TIP3    H124337   4.181   2.707   0.380 -0.3458 -1.6627 -1.0180
  926TIP3    H224338   4.304   2.623   0.409  0.1490 -0.4130  0.6513
  927TIP3   OH224339   3.707   3.651   6.222 -0.4439  0.0509  0.0170
  927TIP3    H124340   3.768   3.590   6.265  0.7716  1.6143  0.6072
  927TIP3    H224341   3.657   3.689   6.294 -0.1201  0.8684 -0.1828
  928TIP3   OH224342   4.157   4.913   8.181 -0.3801  0.8318  0.1695
  928TIP3    H124343   4.240   4.956   8.201  0.3549 -0.5474  0.2002
  928TIP3    H224344   4.125   4.881   8.265  0.9031 -1.7904 -0.2494
  929TIP3   OH224345   2.500   3.316   7.186  0.5535 -0.2444  0.4389
  929TIP3    H124346   2.422   3.272   7.220 -0.4993  1.8990  1.0310
  929TIP3    H224347   2.473   3.350   7.100  0.6533  0.8657  0.8249
  930TIP3   OH224348   4.502   0.049   7.977 -0.2655 -0.1928  0.6433
  930TIP3    H124349   4.581   0.054   7.922 -0.2971  1.4068  0.6729
  930TIP3    H224350   4.494  -0.043   7.999  0.9721 -0.5586 -0.2779
  931TIP3   OH224351   2.485   5.820   7.110  0.1803 -0.4697 -0.2867
  931TIP3    H124352   2.511   5.729   7.126 -0.2554 -0.6008 -0.3048
  931TIP3    H224353   2.530   5.845   7.029  1.4174 -0.2089  0.4545
  932TIP3   OH224354   2.325   2.218   6.146 -0.0277  0.3416  0.1463
  932TIP3    H124355   2.363   2.251   6.227  0.3031 -1.3013  0.6982
  932TIP3    H224356   2.400   2.187   6.094 -0.3792 -0.4327  0.0798
  933TIP3   OH224357   1.501   0.306   1.159 -0.3730 -0.6108 -0.0290
  933TIP3    H124358   1.434   0.368   1.188 -0.2442 -0.8594  0.8450
  933TIP3    H224359   1.455   0.222   1.155 -0.6624 -0.4050 -1.6586
  934TIP3   OH224360   2.168   5.633   8.184 -0.2264  0.0417 -0.2222
  934TIP3    H124361   2.199   5.614   8.273 -1.5226 -1.5367 -0.0662
  934TIP3    H224362   2.219   5.709   8.157  0.7141  0.1142  1.5964
  935TIP3   OH224363   6.343   4.397   8.353  0.1108 -0.8334 -0.2553
  935TIP3    H124364   6.423   4.448   8.367 -1.0025  0.6576  0.9791
  935TIP3    H224365   6.272   4.461   8.362 -1.2789 -2.3491 -0.0432
  936TIP3   OH224366   2.624   1.299   0.924  0.0856 -0.2134  0.3762
  936TIP3    H124367   2.645   1.277   1.015  0.2913 -0.9709  0.1541
  936TIP3    H224368   2.700   1.349   0.894 -1.0747  2.3445  1.3739
  937TIP3   OH224369   6.448   4.019   7.187 -0.3896 -0.0720  0.5888
  937TIP3    H124370   6.423   4.016   7.279 -0.9729  0.9199  0.4858
  937TIP3    H224371   6.389   3.957   7.144  0.1742 -0.8607  0.9315
  938TIP3   OH224372   2.444   4.105   7.655  0.2591 -0.6372 -0.1999
  938TIP3    H124373   2.479   4.191   7.632 -0.2313  0.3088  2.3089
  938TIP3    H224374   2.499   4.076   7.727  0.8740 -2.8315 -1.4644
  939TIP3   OH224375   4.966   5.016   7.098 -0.8364 -0.1445  0.0740
  939TIP3    H124376   4.881   4.971   7.096 -0.8142 -0.3223  1.6993
  939TIP3    H224377   4.945   5.107   7.119 -0.5702 -0.5633  2.4926
  940TIP3   OH224378   3.772   4.231   7.605  0.2815  0.3637 -0.0094
  940TIP3    H124379   3.838   4.299   7.593  0.5854  0.3237  1.2288
  940TIP3    H224380   3.811   4.152   7.568 -0.5045  1.0333 -2.4410
  941TIP3   OH224381   5.324   5.012   1.231  0.4569  0.3429  0.0157
  941TIP3    H124382   5.359   4.982   1.147 -0.3661  0.1127 -0.2468
  941TIP3    H224383   5.349   5.104   1.236  0.3076  0.4144 -0.5868
  942TIP3   OH224384   1.170   0.152   0.967 -0.1664  0.6158 -0.4339
  942TIP3    H124385   1.200   0.150   0.876  1.8170 -1.3032  0.1990
  942TIP3    H224386   1.086   0.199   0.962 -1.9561 -2.3635 -3.8094
  943TIP3   OH224387   3.831   2.577   0.001  0.2215 -0.0085  0.4799
  943TIP3    H124388   3.741   2.596   0.028  0.4776 -0.1682  1.4785
  943TIP3    H224389   3.835   2.482  -0.003  0.0304  0.0157 -0.7219
  944TIP3   OH224390   5.760   3.992   2.098 -0.2368 -0.5093  0.5741
  944TIP3    H124391   5.797   3.920   2.047  1.4267 -0.1491  1.1801
  944TIP3    H224392   5.825   4.062   2.091 -2.6541  1.7586 -1.6123
  945TIP3   OH224393   5.649   4.914   7.343  0.0024  0.0028  0.2147
  945TIP3    H124394   5.648   4.879   7.254 -1.6423 -0.4399  0.3716
  945TIP3    H224395   5.682   5.003   7.334  1.1356 -0.4909 -0.6392
  946TIP3   OH224396   3.121   3.209   7.276 -0.2693  0.4724  0.3915
  946TIP3    H124397   3.073   3.131   7.306  0.5459  0.1095  0.7931
  946TIP3    H224398   3.057   3.280   7.281 -0.9042 -0.0929  0.4354
  947TIP3   OH224399   1.948   0.181   2.072 -0.0451  0.6655  0.0920
  947TIP3    H124400   1.968   0.118   2.003 -2.2089  0.9433 -0.8957
  947TIP3    H224401   1.950   0.130   2.152  1.5629  0.1182 -0.2595
  948TIP3   OH224402   0.891   6.763   0.908 -0.0909 -0.1436 -0.2847
  948TIP3    H124403   0.950   6.720   0.845  1.0602 -0.1704  0.7868
  948TIP3    H224404   0.921   6.854   0.911 -1.7797  0.5358 -1.6535
  949TIP3   OH224405   2.029   6.649   7.120  0.3042 -0.1732 -0.4761
  949TIP3    H124406   2.018   6.669   7.027 -0.3844 -0.6819 -0.5118
  949TIP3    H224407   2.113   6.603   7.124  0.2219 -0.3700 -0.8869
  950TIP3   OH224408   4.648   6.059   0.195  0.3223  0.2268  0.2644
  950TIP3    H124409   4.599   6.132   0.232  1.1528  0.9015  0.0507
  950TIP3    H224410   4.697   6.023   0.269 -0.0706 -0.1229  0.3653
  951TIP3   OH224411   4.150   5.239   8.123 -0.6306  0.2902  1.0044
  951TIP3    H124412   4.136   5.305   8.056 -1.1215  0.3293  1.1414
  951TIP3    H224413   4.073   5.182   8.118 -0.2182 -0.2657  0.8964
  952TIP3   OH224414   3.136   0.351   2.625  0.1085 -0.1115 -0.1447
  952TIP3    H124415   3.044   0.328   2.609  0.4204  0.5067 -3.3303
  952TIP3    H224416   3.133   0.442   2.653 -0.2261  0.1014 -0.8473
  953TIP3   OH224417   0.423   4.141   8.822  0.5967 -0.1711  0.0287
  953TIP3    H124418   0.345   4.118   8.873  0.6472  2.3375  1.4377
  953TIP3    H224419   0.491   4.083   8.854  0.3470  0.6132  2.1349
  954TIP3   OH224420   3.794   4.582   0.520 -0.2077  0.7009  0.2689
  954TIP3    H124421   3.701   4.563   0.526 -0.8929  2.9552 -1.8673
  954TIP3    H224422   3.810   4.647   0.588 -0.0982  0.1143  0.8168
  955TIP3   OH224423   6.224   5.163   7.284 -0.5838 -0.3941  0.3978
  955TIP3    H124424   6.199   5.255   7.292 -1.7280 -0.5432 -0.9424
  955TIP3    H224425   6.177   5.133   7.206  1.8076 -1.4311 -0.7318
  956TIP3   OH224426   3.962   0.486   0.979  0.2218 -0.2327  0.3618
  956TIP3    H124427   3.981   0.424   1.049  0.1809  0.3025  0.8580
  956TIP3    H224428   4.012   0.565   1.002 -0.5078  0.2666  0.2718
  957TIP3   OH224429   4.993   2.280   7.134 -0.2547  0.3142 -0.2869
  957TIP3    H124430   4.908   2.249   7.166  0.0676 -0.7199 -0.3780
  957TIP3    H224431   5.052   2.205   7.148  0.4735  0.7643 -0.8911
  958TIP3   OH224432   6.776   0.523   7.718  0.0890  0.1719  0.6399
  958TIP3    H124433   6.802   0.586   7.785  1.4590 -1.5227  1.7582
  958TIP3    H224434   6.757   0.577   7.641  0.2765  2.0136  1.8290
  959TIP3   OH224435   2.689   0.692   0.401  0.2405  0.2227  0.2174
  959TIP3    H124436   2.634   0.625   0.441  0.6400 -1.2462 -1.5545
  959TIP3    H224437   2.777   0.673   0.434 -0.0540  1.7978  2.0682
  960TIP3   OH224438   2.190   6.137   1.175  0.9776 -0.1538 -0.0319
  960TIP3    H124439   2.253   6.068   1.153  1.2615 -0.0863  0.5652
  960TIP3    H224440   2.236   6.219   1.156  0.9798 -0.1094  0.1657
  961TIP3   OH224441   0.282   3.584   1.325  0.4288 -0.0614 -0.1734
  961TIP3    H124442   0.233   3.545   1.398  1.2978 -0.2616  0.3269
  961TIP3    H224443   0.373   3.585   1.356  0.6943  0.6008 -0.9438
  962TIP3   OH224444   1.456   3.944   8.715 -0.4946  0.1459  0.0735
  962TIP3    H124445   1.382   3.986   8.759 -0.2280  0.4245  0.2604
  962TIP3    H224446   1.453   3.977   8.625  0.6074  1.7749  0.5978
  963TIP3   OH224447   5.220   0.005   8.817 -0.1471  0.9387 -0.0840
  963TIP3    H124448   5.267  -0.036   8.745 -1.8760 -1.9428  0.2786
  963TIP3    H224449   5.146   0.050   8.776 -0.6025  0.1008 -0.1896
  964TIP3   OH224450   6.779   2.311   0.113  0.1531 -0.0799  0.8261
  964TIP3    H124451   6.716   2.381   0.094 -2.3083 -2.0436  1.2097
  964TIP3    H224452   6.838   2.348   0.178  0.4504  2.3756 -0.7140
  965TIP3   OH224453   3.540   5.049   7.301  0.1363 -0.6658  0.5382
  965TIP3    H124454   3.615   5.002   7.336 -0.9222 -2.2651  0.7730
  965TIP3    H224455   3.469   4.985   7.301 -1.0654  0.5936 -0.3102
  966TIP3   OH224456   3.525   5.482   1.405  0.5068  0.1098 -0.3796
  966TIP3    H124457   3.518   5.387   1.403  1.7637 -0.0064  0.0035
  966TIP3    H224458   3.443   5.513   1.366  0.1805 -1.1208 -0.7091
  967TIP3   OH224459   1.670   5.587   8.655 -0.0471  0.2361  0.6419
  967TIP3    H124460   1.716   5.633   8.584 -2.1513  0.8132 -0.4323
  967TIP3    H224461   1.634   5.508   8.613 -0.6745  0.1960  1.2349
  968TIP3   OH224462   1.693   4.418   7.887  0.0384  0.2483 -0.6090
  968TIP3    H124463   1.692   4.451   7.976  0.7847 -0.6717 -0.2423
  968TIP3    H224464   1.675   4.324   7.896  1.4155 -0.1056 -1.2910
  969TIP3   OH224465   6.321   0.901   7.060 -0.3142  0.8251 -0.5567
  969TIP3    H124466   6.366   0.859   6.987  1.0146  2.1802 -0.5722
  969TIP3    H224467   6.228   0.895   7.038 -0.0480 -0.3913 -1.4458
  970TIP3   OH224468   2.785   4.870   7.939 -0.2080 -0.1869 -0.2500
  970TIP3    H124469   2.704   4.820   7.945 -0.1909 -0.2800 -0.7110
  970TIP3    H224470   2.772   4.945   7.997  0.2121 -1.3160  1.3479
  971TIP3   OH224471   6.666   2.882   7.331 -0.1643 -0.1005 -0.2199
  971TIP3    H124472   6.574   2.859   7.343 -0.5626  0.3302 -2.1431
  971TIP3    H224473   6.700   2.891   7.420 -2.3142  1.0758  0.5668
  972TIP3   OH224474   3.520   1.437   7.239 -0.2985 -0.1608  0.0765
  972TIP3    H124475   3.472   1.365   7.279  2.0038 -1.9272 -0.1316
  972TIP3    H224476   3.458   1.477   7.179 -1.3649 -2.7548 -0.6989
  973TIP3   OH224477   2.506   4.914   6.570  0.2177 -0.0519  1.0042
  973TIP3    H124478   2.566   4.944   6.501  0.8722 -1.6012  0.8600
  973TIP3    H224479   2.524   4.972   6.644  0.2716  0.9446  0.2429
  974TIP3   OH224480   0.709   2.834   6.697  0.1645  0.6432 -0.6197
  974TIP3    H124481   0.736   2.745   6.673 -0.1926  0.6256 -0.9677
  974TIP3    H224482   0.790   2.877   6.726  0.4905  0.4515 -1.2181
  975TIP3   OH224483   6.651   5.832   1.101 -0.0892  0.3949  0.2647
  975TIP3    H124484   6.592   5.905   1.082 -0.2605 -0.0821 -1.1191
  975TIP3    H224485   6.737   5.873   1.113 -0.6032  1.0677  2.0279
  976TIP3   OH224486   0.952   5.583   0.751 -0.2457  0.3710 -0.5253
  976TIP3    H124487   0.953   5.524   0.826 -1.3180 -0.9100 -1.4581
  976TIP3    H224488   1.039   5.575   0.712  0.7368  1.9438  1.1753
  977TIP3   OH224489   0.593   4.061   0.694  0.2031 -0.5793  0.3773
  977TIP3    H124490   0.532   4.116   0.744 -1.0628 -1.3319 -0.2776
  977TIP3    H224491   0.560   3.972   0.706  1.6948 -1.1233  0.6850
  978TIP3   OH224492   0.914   2.215   8.716 -0.7031 -0.0726 -0.1913
  978TIP3    H124493   0.853   2.279   8.678 -1.3161 -0.6463 -0.2036
  978TIP3    H224494   0.865   2.177   8.789 -0.7455 -1.2428 -0.8071
  979TIP3   OH224495   3.554   6.490   0.961  0.3014 -0.1867  0.3704
  979TIP3    H124496   3.504   6.443   0.894 -0.7761  1.9805 -0.4383
  979TIP3    H224497   3.593   6.563   0.914  1.2802  0.1879  1.7284
  980TIP3   OH224498   2.606   1.607   8.649 -0.5012 -0.3621 -0.5141
  980TIP3    H124499   2.546   1.533   8.638  0.3550 -1.0014 -1.0213
  980TIP3    H224500   2.645   1.618   8.562  2.2780 -1.8568  0.4399
  981TIP3   OH224501   0.729   0.388   8.796 -0.0834 -0.5114  0.2061
  981TIP3    H124502   0.662   0.449   8.827  1.4771  1.5674 -0.3136
  981TIP3    H224503   0.793   0.444   8.752  0.8117 -2.6839 -1.4113
  982TIP3   OH224504   2.083   4.910   0.921 -0.1443 -0.0234  0.8264
  982TIP3    H124505   2.152   4.967   0.888 -0.2708 -0.1815  0.2764
  982TIP3    H224506   2.051   4.954   1.000  1.1666 -0.3838  1.5875
  983TIP3   OH224507   2.378   5.130   1.341  0.1521  0.8461  0.3404
  983TIP3    H124508   2.287   5.133   1.372 -0.4192  1.8860 -1.3407
  983TIP3    H224509   2.422   5.072   1.404 -2.0407 -1.1041  0.2297
  984TIP3   OH224510   5.560   4.059   1.891 -0.5105 -0.2542  0.2112
  984TIP3    H124511   5.577   4.130   1.953 -0.0436 -0.3191  0.1619
  984TIP3    H224512   5.572   4.098   1.805 -0.8375 -0.2458  0.1683
  985TIP3   OH224513   0.047   3.314   0.347  0.1911 -0.1853 -0.0115
  985TIP3    H124514   0.041   3.312   0.252  1.2088 -1.3123 -0.0758
  985TIP3    H224515   0.105   3.242   0.369 -2.6295 -2.1412  1.6886
  986TIP3   OH224516   0.317   3.586   6.834 -0.1104 -0.3270  0.1247
  986TIP3    H124517   0.348   3.509   6.786  1.9279  1.5574 -1.8384
  986TIP3    H224518   0.228   3.600   6.801  0.6599 -0.0265 -1.9882
  987TIP3   OH224519   0.451   1.507   8.417  0.6376 -0.0134  0.7899
  987TIP3    H124520   0.359   1.517   8.391  0.4753 -0.7546  1.0664
  987TIP3    H224521   0.494   1.471   8.340  0.8447  0.9750  0.4277
  988TIP3   OH224522   1.349   1.634   0.342 -0.1756  0.3045  0.3186
  988TIP3    H124523   1.415   1.667   0.281 -1.0407  0.9916 -0.2863
  988TIP3    H224524   1.357   1.539   0.338 -1.5020  0.1905 -2.4492
  989TIP3   OH224525   5.787   5.702   7.084 -0.1681 -0.6141 -0.2806
  989TIP3    H124526   5.816   5.612   7.070  0.8958 -0.0152 -2.3139
  989TIP3    H224527   5.841   5.755   7.025 -1.7312  1.2065 -0.2085
  990TIP3   OH224528   5.019   4.706   0.517  0.1734 -0.2879 -0.1644
  990TIP3    H124529   4.936   4.677   0.555  0.0968 -0.3119 -0.3535
  990TIP3    H224530   5.074   4.725   0.594 -0.1501  0.1553 -0.0354
  991TIP3   OH224531   5.434   2.408   6.778 -0.0789 -0.1170 -0.2312
  991TIP3    H124532   5.488   2.347   6.828  3.0152  1.0048 -1.9390
  991TIP3    H224533   5.387   2.459   6.844  1.2945 -0.8735  1.3910
  992TIP3   OH224534   5.096   3.611   1.296 -0.2144  0.1001 -0.0593
  992TIP3    H124535   5.124   3.533   1.248  0.3816  0.9213 -1.1082
  992TIP3    H224536   5.173   3.668   1.296  0.9667 -1.0642  4.7234
  993TIP3   OH224537   2.617   3.516   8.393 -1.0262  0.3158 -0.0394
  993TIP3    H124538   2.659   3.512   8.307  0.0198  1.2936  0.4039
  993TIP3    H224539   2.547   3.580   8.383  1.0568  2.8834  0.5766
  994TIP3   OH224540   4.211   0.287   7.114 -0.0214 -0.2007  0.1941
  994TIP3    H124541   4.168   0.248   7.190  0.9885  0.1183  0.9527
  994TIP3    H224542   4.301   0.304   7.143 -0.6074  3.6586  0.2842
  995TIP3   OH224543   1.346   3.316   0.374 -0.6486  0.1108  0.2585
  995TIP3    H124544   1.405   3.391   0.381 -0.5678  0.3798 -2.4427
  995TIP3    H224545   1.399   3.241   0.402 -0.0066  0.7485  0.7816
  996TIP3   OH224546   3.629   6.453   1.714 -0.5598 -0.5208 -0.3428
  996TIP3    H124547   3.629   6.548   1.723  1.6577 -0.4307 -0.7475
  996TIP3    H224548   3.652   6.421   1.801  1.1487 -0.5392 -0.7688
  997TIP3   OH224549   4.699   1.862   7.643  0.2389  0.3842 -0.1659
  997TIP3    H124550   4.730   1.939   7.691 -1.0740  0.8604 -0.0466
  997TIP3    H224551   4.733   1.787   7.692 -1.0170  0.8492  1.5014
  998TIP3   OH224552   0.472   0.622   8.156 -0.0422 -0.7859  0.4520
  998TIP3    H124553   0.522   0.621   8.074  1.2734 -2.5257  1.2044
  998TIP3    H224554   0.381   0.611   8.128  0.3275 -0.8692 -0.8094
  999TIP3   OH224555   4.835   1.653   1.705  0.0669  0.7380  0.0823
  999TIP3    H124556   4.783   1.631   1.627 -1.7243  1.1565  1.1041
  999TIP3    H224557   4.870   1.740   1.687 -0.3705  0.8518 -0.2268
 1000TIP3   OH224558   5.549   2.057   7.387  0.2683  0.4133 -0.5657
 1000TIP3    H124559   5.528   2.130   7.446 -1.1777  1.2852 -2.0742
 1000TIP3    H224560   5.514   1.980   7.431  1.6195  0.6025  0.9529
 1001TIP3   OH224561   2.252   0.668   8.414  0.4737 -0.2862 -0.5997
 1001TIP3    H124562   2.168   0.668   8.460 -0.6728 -1.0487 -2.5704
 1001TIP3    H224563   2.299   0.593   8.450 -0.6852 -1.3019 -1.1114
 1002TIP3   OH224564   5.475   5.193   8.307  0.0728 -0.0368 -0.4868
 1002TIP3    H124565   5.529   5.147   8.243 -1.1494 -0.7657 -1.0432
 1002TIP3    H224566   5.505   5.161   8.392  0.1263 -0.8919 -0.8148
 1003TIP3   OH224567   1.470   6.437   7.589  0.5571 -0.0306  0.3596
 1003TIP3    H124568   1.431   6.455   7.503 -1.7182 -0.0682  1.2904
 1003TIP3    H224569   1.507   6.349   7.580 -0.1959 -0.2842 -0.4242
 1004TIP3   OH224570   4.071   2.988   0.598 -0.3610  0.1234 -0.0960
 1004TIP3    H124571   4.011   3.052   0.560 -1.9297 -0.4587  1.2955
 1004TIP3    H224572   4.112   2.946   0.522 -2.3454 -0.0391 -1.1285
 1005TIP3   OH224573   2.260   3.101   0.601 -0.2332 -0.2700  0.4879
 1005TIP3    H124574   2.259   3.005   0.591 -0.7380 -0.0791 -1.7432
 1005TIP3    H224575   2.346   3.127   0.567 -0.6952  0.1719 -0.3646
 1006TIP3   OH224576   0.750   1.202   1.042  0.2788 -0.1553  0.1880
 1006TIP3    H124577   0.673   1.163   1.001  0.5894 -0.7474  0.1510
 1006TIP3    H224578   0.714   1.258   1.111 -0.1724 -0.7230  0.4230
 1007TIP3   OH224579   4.690   6.436   6.038  0.1398 -0.4176  0.0567
 1007TIP3    H124580   4.695   6.358   6.094  0.8468  0.9519  2.0381
 1007TIP3    H224581   4.598   6.463   6.043  0.4155  0.3284  1.5412
 1008TIP3   OH224582   6.544   2.107   8.807 -1.0897  0.2381 -0.3663
 1008TIP3    H124583   6.575   2.146   8.889 -2.1133  0.8598 -0.2641
 1008TIP3    H224584   6.467   2.057   8.832  0.1141 -1.7888 -0.5222
 1009TIP3   OH224585   0.889   2.508   7.259  0.2460 -0.3990 -0.5502
 1009TIP3    H124586   0.806   2.527   7.302 -0.3310  0.3892 -1.9360
 1009TIP3    H224587   0.864   2.469   7.175  1.2947 -0.4624 -0.8485
 1010TIP3   OH224588   3.591   2.401   7.921  0.2134 -0.1442  0.5790
 1010TIP3    H124589   3.615   2.387   7.830  2.9231 -0.4843  1.2501
 1010TIP3    H224590   3.495   2.405   7.921  0.1756  2.2072 -2.5665
 1011TIP3   OH224591   3.357   3.083   7.895 -0.2273 -0.0521  0.2062
 1011TIP3    H124592   3.356   3.053   7.804  0.5430  1.4253 -0.3172
 1011TIP3    H224593   3.403   3.167   7.892 -1.1410  0.5348  1.8130
 1012TIP3   OH224594   5.309   0.265   6.977  0.5854 -0.1478  0.1606
 1012TIP3    H124595   5.226   0.241   7.017  0.7747  0.9995  1.2998
 1012TIP3    H224596   5.290   0.345   6.928  0.6222 -0.9026 -1.1262
 1013TIP3   OH224597   4.455   2.911   2.473  0.1068 -0.0849  0.0529
 1013TIP3    H124598   4.384   2.880   2.529  0.8669 -0.0520  1.0752
 1013TIP3    H224599   4.526   2.932   2.534 -0.0600  2.8863 -0.6676
 1014TIP3   OH224600   0.440   2.130   8.796 -0.4505 -0.5364 -0.3753
 1014TIP3    H124601   0.362   2.181   8.776 -0.8565 -1.3920 -1.0838
 1014TIP3    H224602   0.425   2.046   8.753 -0.8745 -2.1418  2.6384
 1015TIP3   OH224603   6.759   4.871   8.126  0.0430 -0.6155 -0.0329
 1015TIP3    H124604   6.746   4.790   8.176 -0.5595 -0.1110  0.6324
 1015TIP3    H224605   6.695   4.932   8.161  1.7384  0.7710  0.8071
 1016TIP3   OH224606   2.345   1.991   8.826  0.5550  0.7122 -0.2615
 1016TIP3    H124607   2.315   1.975   8.916  0.5586  3.8029  0.3931
 1016TIP3    H224608   2.415   1.927   8.814 -1.4139 -1.8164  0.7688
 1017TIP3   OH224609   5.674   1.648   1.153 -0.1919 -0.1999  0.2628
 1017TIP3    H124610   5.717   1.619   1.234 -1.1074  0.4172  0.9889
 1017TIP3    H224611   5.717   1.731   1.133  0.4963 -0.6712 -0.2719
 1018TIP3   OH224612   5.120   1.801   8.423 -0.7267  0.0049 -0.5023
 1018TIP3    H124613   5.168   1.719   8.409 -1.5289 -0.2521 -1.9772
 1018TIP3    H224614   5.126   1.817   8.517 -0.3091 -1.5924 -0.2353
 1019TIP3   OH224615   2.959   6.220   8.671  0.2089 -0.8212 -0.0133
 1019TIP3    H124616   2.917   6.134   8.671 -0.4119 -0.5817 -1.9750
 1019TIP3    H224617   3.025   6.215   8.602 -1.3671  0.8894 -1.7907
 1020TIP3   OH224618   2.407   3.167   1.688 -0.0942 -0.5201 -0.4216
 1020TIP3    H124619   2.462   3.144   1.764 -1.5813 -1.4395  0.4321
 1020TIP3    H224620   2.439   3.253   1.660 -0.3000  0.4430  2.0496
 1021TIP3   OH224621   0.193   0.280   7.870  0.0528 -0.2736  0.2252
 1021TIP3    H124622   0.138   0.255   7.796  0.4872 -1.2860  0.2180
 1021TIP3    H224623   0.192   0.204   7.928  0.5363  0.1175  0.7681
 1022TIP3   OH224624   1.486   4.395   7.147 -0.2274  0.1503 -0.7327
 1022TIP3    H124625   1.580   4.380   7.156 -0.2751 -0.0016 -0.4651
 1022TIP3    H224626   1.472   4.485   7.176 -0.0799  0.3825 -1.3674
 1023TIP3   OH224627   5.706   3.585   6.691  0.0725 -0.5924  0.4209
 1023TIP3    H124628   5.794   3.608   6.722  0.5162  0.1723 -1.2833
 1023TIP3    H224629   5.702   3.619   6.602 -1.2950 -2.2671 -0.2236
 1024TIP3   OH224630   5.138   4.814   1.248 -0.3621  0.1804 -0.0550
 1024TIP3    H124631   5.155   4.908   1.252 -0.6802  0.2772 -0.7587
 1024TIP3    H224632   5.210   4.774   1.297  1.1361  0.6480 -1.7643
 1025TIP3   OH224633   2.778   1.841   8.607 -0.0988 -0.2636 -0.7940
 1025TIP3    H124634   2.867   1.815   8.583  1.5583  1.6626  2.5998
 1025TIP3    H224635   2.757   1.788   8.684  0.0654  2.4382  1.2292
 1026TIP3   OH224636   6.002   3.305   8.733 -0.0860  0.3876  0.7340
 1026TIP3    H124637   5.957   3.389   8.731  1.2176  1.1254  1.0774
 1026TIP3    H224638   5.934   3.242   8.758 -0.8253  1.5244  1.7091
 1027TIP3   OH224639   0.289   3.533   0.331  0.6133 -0.3769 -0.2817
 1027TIP3    H124640   0.243   3.559   0.411  0.5281 -3.2817  0.7080
 1027TIP3    H224641   0.368   3.489   0.361  0.5376 -1.6226 -1.7841
 1028TIP3   OH224642   4.810   5.094   8.268 -0.2066 -0.4461 -0.6892
 1028TIP3    H124643   4.784   5.183   8.244  1.6567 -0.2296 -2.0886
 1028TIP3    H224644   4.888   5.106   8.323 -0.7492 -1.1882  0.2773
 1029TIP3   OH224645   0.324   1.736   0.846 -0.1083  0.1072  0.0360
 1029TIP3    H124646   0.391   1.693   0.793  0.4301  1.7024 -0.6552
 1029TIP3    H224647   0.327   1.691   0.931  1.2783 -0.3717 -0.2402
 1030TIP3   OH224648   4.785   1.204   8.653 -0.0774 -0.6292 -0.0863
 1030TIP3    H124649   4.766   1.214   8.747 -0.9573  1.1243 -0.4106
 1030TIP3    H224650   4.875   1.235   8.643 -0.6509  1.1818 -0.0821
 1031TIP3   OH224651   4.813   2.150   0.784 -0.0066 -0.2650 -0.0006
 1031TIP3    H124652   4.846   2.137   0.873 -1.1088 -0.5184  0.3998
 1031TIP3    H224653   4.808   2.245   0.774 -0.5252 -0.2355  0.4740
 1032TIP3   OH224654   4.153   0.020   0.547  0.7612 -0.0253 -0.2356
 1032TIP3    H124655   4.158   0.079   0.623  1.3891 -0.3314 -0.0338
 1032TIP3    H224656   4.226  -0.041   0.559  0.0584 -0.9145 -0.3925
 1033TIP3   OH224657   5.247   6.102   0.877 -0.0067 -0.2470  0.1391
 1033TIP3    H124658   5.279   6.020   0.839  0.6178  0.1420 -0.1764
 1033TIP3    H224659   5.285   6.104   0.965  1.0231  0.3017 -0.2979
 1034TIP3   OH224660   2.144   6.676   8.005 -0.0847  0.3849  0.4258
 1034TIP3    H124661   2.226   6.691   7.958 -0.7247  2.3564 -0.1363
 1034TIP3    H224662   2.101   6.605   7.957  1.4156 -0.9308  0.9436
 1035TIP3   OH224663   4.799   0.770   0.824 -0.2060  0.9822 -0.0470
 1035TIP3    H124664   4.867   0.757   0.758 -1.1134 -0.2560 -0.7811
 1035TIP3    H224665   4.847   0.782   0.906  0.9127  1.3654 -0.7337
 1036TIP3   OH224666   1.146   2.209   0.002 -0.5247  0.4231 -0.1502
 1036TIP3    H124667   1.059   2.205  -0.038 -1.0623 -0.1493  1.0157
 1036TIP3    H224668   1.190   2.131  -0.028 -1.3545 -0.6395  1.2544
 1037TIP3   OH224669   0.923   0.255   0.938 -0.0962  0.4724  0.6683
 1037TIP3    H124670   0.879   0.302   0.867 -1.1243 -0.4118  0.7078
 1037TIP3    H224671   0.945   0.323   1.001  2.5702  1.6198 -1.2894
 1038TIP3   OH224672   3.264   1.192   0.711  0.2043 -0.0306  0.4458
 1038TIP3    H124673   3.351   1.202   0.748  0.5491  1.9697 -0.7571
 1038TIP3    H224674   3.222   1.277   0.725 -1.5392 -0.9413  0.9434
 1039TIP3   OH224675   4.901   1.029   8.059  0.1332  0.1819 -0.2484
 1039TIP3    H124676   4.907   0.966   8.131 -0.8903  0.5659  0.1928
 1039TIP3    H224677   4.986   1.073   8.060  0.7867 -1.0210 -0.4258
 1040TIP3   OH224678   3.381   5.276   6.433  0.3492  0.2786 -0.4136
 1040TIP3    H124679   3.362   5.220   6.509 -0.1281  1.6800  0.5380
 1040TIP3    H224680   3.452   5.333   6.463 -0.6109  1.6071 -0.6170
 1041TIP3   OH224681   0.353   6.163   7.242 -1.2166  0.3081 -0.3222
 1041TIP3    H124682   0.431   6.144   7.189 -2.0114  0.9650 -1.7922
 1041TIP3    H224683   0.375   6.131   7.329  0.1229 -0.8944 -1.0588
 1042TIP3   OH224684   1.074   0.828   0.503  0.0092 -0.7966 -0.3472
 1042TIP3    H124685   1.032   0.745   0.479  0.3663 -0.7702 -1.1000
 1042TIP3    H224686   1.117   0.809   0.586 -1.8901 -0.6810  0.7359
 1043TIP3   OH224687   2.883   4.110   6.589 -0.5024 -0.1909  0.4033
 1043TIP3    H124688   2.872   4.045   6.659 -0.3795 -0.7778 -0.1156
 1043TIP3    H224689   2.963   4.084   6.544 -0.7262  0.0244 -0.1230
 1044TIP3   OH224690   2.184   2.972   0.105  0.1314  0.2416 -0.2133
 1044TIP3    H124691   2.176   3.066   0.085  0.3258  0.1535 -0.7018
 1044TIP3    H224692   2.102   2.951   0.150 -0.6774  0.2654 -1.6143
 1045TIP3   OH224693   0.208   2.354   7.248  0.0840 -0.0098 -0.2802
 1045TIP3    H124694   0.145   2.413   7.291 -0.4255 -0.0482 -0.9537
 1045TIP3    H224695   0.293   2.390   7.272 -0.2060  0.5799 -0.0878
 1046TIP3   OH224696   6.659   3.848   8.502 -0.1397  0.1139 -0.8155
 1046TIP3    H124697   6.751   3.820   8.502 -0.6068 -1.5429 -1.7712
 1046TIP3    H224698   6.631   3.837   8.592 -0.1039 -1.9827 -1.0112
 1047TIP3   OH224699   0.210   6.506   0.004  0.3341 -0.4163  0.5531
 1047TIP3    H124700   0.130   6.524   0.054  0.1191 -0.9807  0.4184
 1047TIP3    H224701   0.207   6.567  -0.069 -0.3533 -0.9375  0.1353
 1048TIP3   OH224702   6.632   1.938   0.796 -0.6280  0.2971 -0.1624
 1048TIP3    H124703   6.694   1.970   0.861  1.4875 -2.2912 -0.7194
 1048TIP3    H224704   6.623   2.010   0.734 -1.7835  2.3867  2.2658
 1049TIP3   OH224705   4.914   1.618   0.815  0.3609 -0.0045 -0.5144
 1049TIP3    H124706   4.929   1.640   0.907  0.8485  0.6169 -0.7314
 1049TIP3    H224707   4.847   1.681   0.787 -1.8032 -1.8732  0.0828
 1050TIP3   OH224708   6.795   2.727   8.239 -0.2094 -0.2771  0.5689
 1050TIP3    H124709   6.843   2.692   8.314 -0.9972 -0.1523  1.1416
 1050TIP3    H224710   6.829   2.678   8.164 -1.1184 -2.1564  1.3091
 1051TIP3   OH224711   4.711   4.253   8.510  0.1399 -0.3656  0.3504
 1051TIP3    H124712   4.679   4.342   8.528  1.3976 -0.2222  2.1533
 1051TIP3    H224713   4.693   4.205   8.591  0.6578 -1.4130 -0.1436
 1052TIP3   OH224714   0.980   3.796   6.162  0.2697 -0.3344 -0.0085
 1052TIP3    H124715   1.053   3.830   6.214  0.1269 -0.8103  0.5113
 1052TIP3    H224716   0.910   3.781   6.225 -0.2231 -0.0541 -0.4809
 1053TIP3   OH224717   4.315   1.434   8.241 -0.0489  0.3262  0.2560
 1053TIP3    H124718   4.232   1.426   8.194 -0.5835  2.5836  0.6748
 1053TIP3    H224719   4.295   1.491   8.316  1.5205 -0.4624  1.3316
 1054TIP3   OH224720   0.246   5.110   0.029  0.2356  0.4141  0.2066
 1054TIP3    H124721   0.203   5.033   0.066  0.6812  0.6896  1.3183
 1054TIP3    H224722   0.339   5.092   0.036  0.3889  1.6232  1.8010
 1055TIP3   OH224723   5.419   6.703   1.515 -0.1049 -0.4067  0.1422
 1055TIP3    H124724   5.354   6.770   1.494  2.3534  2.0557 -0.1591
 1055TIP3    H224725   5.443   6.720   1.606 -0.0288 -1.4302  0.3261
 1056TIP3   OH224726   4.266   5.167   7.521  0.4046 -0.0969 -0.4450
 1056TIP3    H124727   4.262   5.181   7.426 -0.4669  0.8199 -0.2867
 1056TIP3    H224728   4.355   5.134   7.536 -0.1244 -2.4484 -1.8466
 1057TIP3   OH224729   2.398   3.280   8.316 -0.3102 -0.0695  0.3447
 1057TIP3    H124730   2.351   3.339   8.257  1.0233 -0.2672 -0.9708
 1057TIP3    H224731   2.368   3.305   8.403  0.7928  3.2262 -0.0515
 1058TIP3   OH224732   4.732   0.519   7.280 -0.3461 -0.2382 -0.3701
 1058TIP3    H124733   4.713   0.425   7.276  0.5542 -0.4057 -0.8252
 1058TIP3    H224734   4.683   0.550   7.356  0.7413 -1.4045  0.8473
 1059TIP3   OH224735   2.205   1.347   7.143  0.4217  0.4556  0.0632
 1059TIP3    H124736   2.250   1.307   7.218  1.8045  0.3811 -0.7866
 1059TIP3    H224737   2.245   1.433   7.134 -0.2362  0.7424 -0.1700
 1060TIP3   OH224738   2.014   5.969   8.166 -0.3683 -0.3536  0.4084
 1060TIP3    H124739   2.080   6.039   8.170 -0.9325  0.1621  1.0522
 1060TIP3    H224740   1.933   6.011   8.197 -0.5241 -1.5201  1.6929
 1061TIP3   OH224741   1.648   5.725   8.419 -0.1322  0.7696  0.4147
 1061TIP3    H124742   1.659   5.820   8.409 -1.9112  1.2335  2.1051
 1061TIP3    H224743   1.553   5.713   8.419  0.0661 -1.2370 -1.2373
 1062TIP3   OH224744   5.909   6.524   8.602 -0.0536  0.1777  0.0768
 1062TIP3    H124745   5.978   6.588   8.586  1.5526 -1.2986  0.7135
 1062TIP3    H224746   5.867   6.512   8.516  0.5087  1.0773 -0.3385
 1063TIP3   OH224747   0.208   6.447   1.455  0.0414 -0.2411  0.3770
 1063TIP3    H124748   0.118   6.461   1.485 -0.8253 -1.1699 -1.6212
 1063TIP3    H224749   0.240   6.535   1.436 -0.0856  0.1826  1.9664
 1064TIP3   OH224750   3.600   4.892   8.096  0.2383  0.2607  0.2459
 1064TIP3    H124751   3.545   4.850   8.030 -0.4198  0.7633  0.4602
 1064TIP3    H224752   3.671   4.933   8.046  0.8920 -1.0643  0.0343
 1065TIP3   OH224753   3.932   0.042   8.788 -0.5202  0.2564  0.4769
 1065TIP3    H124754   3.856   0.088   8.825 -0.9816 -0.4808  0.4857
 1065TIP3    H224755   4.002   0.057   8.850 -1.1690 -0.5967  1.4477
 1066TIP3   OH224756   5.249   0.991   7.175 -0.0669  0.0196 -0.3699
 1066TIP3    H124757   5.221   1.029   7.259  1.3189  0.0329  0.1157
 1066TIP3    H224758   5.344   0.999   7.176  0.0298 -0.7614 -1.5844
 1067TIP3   OH224759   6.490   5.691   2.188 -0.4956 -0.1758 -0.1421
 1067TIP3    H124760   6.454   5.764   2.239 -0.0862 -0.3057  0.3344
 1067TIP3    H224761   6.564   5.660   2.239 -1.1103 -1.4019  0.0230
 1068TIP3   OH224762   5.244   3.605   1.011 -0.7505  0.3425  0.6325
 1068TIP3    H124763   5.182   3.660   0.964 -0.3754 -0.1529 -0.4809
 1068TIP3    H224764   5.312   3.665   1.042 -0.9728  0.6662  0.4940
 1069TIP3   OH224765   4.274   6.337   8.045 -0.6329  0.4258  0.0838
 1069TIP3    H124766   4.340   6.286   7.998  2.4582  2.5246  1.7777
 1069TIP3    H224767   4.241   6.277   8.112  1.5628  0.0405  0.8751
 1070TIP3   OH224768   4.336   0.207   0.363 -0.0517 -0.1614  0.3969
 1070TIP3    H124769   4.411   0.219   0.304  0.1347 -0.6368  0.5305
 1070TIP3    H224770   4.373   0.217   0.451 -0.9007  4.0152  0.4885
 1071TIP3   OH224771   0.020   6.707   1.818  0.1158  0.3886 -0.1309
 1071TIP3    H124772  -0.007   6.631   1.870 -1.6160  1.3575  0.5087
 1071TIP3    H224773   0.115   6.710   1.826  0.2723 -1.9495 -0.5708
 1072TIP3   OH224774   1.484   1.587   7.214  0.1771 -0.2416  0.4864
 1072TIP3    H124775   1.553   1.590   7.280 -0.0874  0.5179  0.7311
 1072TIP3    H224776   1.405   1.614   7.261 -0.2431 -0.8410  0.1412
 1073TIP3   OH224777   5.718   6.403   8.016 -0.0863  0.1300  0.1911
 1073TIP3    H124778   5.673   6.374   7.937 -3.1917 -0.1114  1.8955
 1073TIP3    H224779   5.770   6.327   8.043  0.7063  0.0913 -1.3435
 1074TIP3   OH224780   1.159   3.268   6.662 -0.4185  0.5731  0.0472
 1074TIP3    H124781   1.097   3.252   6.734  1.7434  1.3506  2.2270
 1074TIP3    H224782   1.199   3.182   6.647  0.9478  0.8629  1.6738
 1075TIP3   OH224783   2.129   5.492   7.041  0.1244  0.1890 -0.3679
 1075TIP3    H124784   2.034   5.481   7.045 -0.1520  1.9011 -1.1666
 1075TIP3    H224785   2.157   5.489   7.132 -1.0188  1.8263  0.0892
 1076TIP3   OH224786   2.875   1.612   0.405 -0.8235  0.1711  0.2618
 1076TIP3    H124787   2.815   1.574   0.468  0.8653 -0.7607  1.3602
 1076TIP3    H224788   2.835   1.696   0.382 -3.8748 -1.4982 -1.0982
 1077TIP3   OH224789   3.327   1.618   8.092  0.1493 -0.3825 -0.1197
 1077TIP3    H124790   3.235   1.600   8.072  0.3744 -0.5788 -1.0077
 1077TIP3    H224791   3.333   1.714   8.089 -0.4093 -0.2375  1.7639
 1078TIP3   OH224792   2.718   6.331   8.447  0.0873  0.4296  0.2533
 1078TIP3    H124793   2.756   6.244   8.458  0.0654  0.6846  3.0542
 1078TIP3    H224794   2.775   6.389   8.497 -2.0667  1.3176  1.8950
 1079TIP3   OH224795   1.028   0.735   8.300 -0.2871  0.0607  0.2198
 1079TIP3    H124796   0.942   0.742   8.258 -1.1805  0.1492  1.9419
 1079TIP3    H224797   1.040   0.641   8.316  0.9943 -0.2105 -1.9850
 1080TIP3   OH224798   0.998   3.319   8.279 -0.3867  0.0030 -0.4959
 1080TIP3    H124799   0.967   3.409   8.271 -0.6128 -0.1296 -1.1396
 1080TIP3    H224800   1.030   3.313   8.369 -0.5925  0.6547 -0.3731
 1081TIP3   OH224801   1.245   0.969   2.224 -0.4681 -0.1427  0.6271
 1081TIP3    H124802   1.278   1.037   2.166  0.4115  0.1198  1.4087
 1081TIP3    H224803   1.171   0.931   2.177  0.7315 -0.5362 -1.0587
 1082TIP3   OH224804   3.186   2.827   0.641 -0.4176 -0.3361 -0.0079
 1082TIP3    H124805   3.251   2.851   0.708 -1.8299 -2.9915  2.5314
 1082TIP3    H224806   3.237   2.815   0.561  2.2351 -1.9798  1.7824
 1083TIP3   OH224807   1.002   0.491   1.351  0.2734  0.3017 -0.1283
 1083TIP3    H124808   0.919   0.536   1.362  0.2396 -0.3292  3.0702
 1083TIP3    H224809   0.993   0.409   1.399  1.8117 -1.1986 -2.1574
 1084TIP3   OH224810   1.975   5.022   1.130 -0.2974  0.3909  0.6868
 1084TIP3    H124811   2.035   5.092   1.102  0.3675  0.2438  1.6957
 1084TIP3    H224812   1.899   5.069   1.165  0.0200  0.6262  1.0833
 1085TIP3   OH224813   0.961   4.644   8.136 -0.1189 -0.7783  0.5049
 1085TIP3    H124814   0.871   4.650   8.169  0.1586  1.1961  1.0135
 1085TIP3    H224815   1.016   4.665   8.211  0.6408  0.8819 -0.4565
 1086TIP3   OH224816   6.766   1.330   7.780 -0.3149  0.7901  0.4475
 1086TIP3    H124817   6.835   1.377   7.826  1.2416  0.0226 -0.9839
 1086TIP3    H224818   6.737   1.390   7.711  0.1749  0.4882 -0.0359
 1087TIP3   OH224819   5.218   3.343   7.739 -0.0197 -0.0450 -0.4439
 1087TIP3    H124820   5.136   3.332   7.787  0.2473 -0.6001 -0.1029
 1087TIP3    H224821   5.284   3.299   7.793  0.1831 -1.2152 -1.5862
 1088TIP3   OH224822   6.121   0.595   8.498  0.1865 -0.0800  0.5517
 1088TIP3    H124823   6.216   0.606   8.488  0.2083 -0.2812  0.5433
 1088TIP3    H224824   6.112   0.545   8.579  0.0500  0.7731  1.0757
 1089TIP3   OH224825   1.348   2.604   7.413  0.6921  0.1238 -1.0776
 1089TIP3    H124826   1.393   2.569   7.490  1.8641 -0.1657 -1.8557
 1089TIP3    H224827   1.261   2.565   7.416  0.5249  0.5462  0.3799
 1090TIP3   OH224828   4.522   4.837   7.018  0.1916  0.9544  0.2980
 1090TIP3    H124829   4.504   4.748   6.988  2.6469  0.5375 -0.1531
 1090TIP3    H224830   4.442   4.886   6.998  0.0321 -0.3426 -2.7577
 1091TIP3   OH224831   0.785   5.195   8.658  0.5627  0.5892 -0.0689
 1091TIP3    H124832   0.881   5.193   8.655  0.5411 -1.0151 -0.8483
 1091TIP3    H224833   0.758   5.211   8.568  0.1097 -0.1019 -0.0695
 1092TIP3   OH224834   0.365   0.479   7.895  0.0030 -0.1815  0.2667
 1092TIP3    H124835   0.295   0.416   7.883 -0.1004 -0.3223  1.4253
 1092TIP3    H224836   0.403   0.491   7.808 -1.6977  0.2028 -0.4693
 1093TIP3   OH224837   3.738   6.381   0.622 -0.1140 -0.1231 -0.2146
 1093TIP3    H124838   3.744   6.314   0.554  0.7916 -2.2468  1.8160
 1093TIP3    H224839   3.734   6.464   0.574  0.3100 -1.5097 -2.8214
 1094TIP3   OH224840   6.310   3.822   7.861 -0.2118 -0.5196 -0.0830
 1094TIP3    H124841   6.327   3.915   7.875  0.1205 -0.7712  1.2854
 1094TIP3    H224842   6.307   3.813   7.766 -1.5891  1.1233 -0.2416
 1095TIP3   OH224843   1.777   4.137   6.689  0.4592  0.2616  0.2238
 1095TIP3    H124844   1.812   4.080   6.620  0.3386  0.4425  0.0142
 1095TIP3    H224845   1.825   4.219   6.679 -0.1228  0.5597 -0.1526
 1096TIP3   OH224846   3.765   5.509   0.949  0.1014 -0.7087 -0.4309
 1096TIP3    H124847   3.735   5.468   0.868  0.5513 -1.2701 -0.3144
 1096TIP3    H224848   3.698   5.486   1.013  0.4846 -1.5073 -0.3002
 1097TIP3   OH224849   0.976   2.756   1.053  0.3183 -0.4456  0.0797
 1097TIP3    H124850   0.958   2.750   1.147  0.6379  0.9766  0.2467
 1097TIP3    H224851   0.910   2.817   1.020 -1.0547 -2.4214 -1.0030
 1098TIP3   OH224852   6.181   5.364   7.788 -0.4908  0.2123  0.5634
 1098TIP3    H124853   6.243   5.368   7.716 -0.5380  1.2277  0.5732
 1098TIP3    H224854   6.216   5.296   7.846 -0.6673 -0.9132 -0.5918
 1099TIP3   OH224855   0.832   3.740   1.542 -0.2822 -0.3156 -0.6989
 1099TIP3    H124856   0.818   3.687   1.463 -2.7498 -1.0469  0.1342
 1099TIP3    H224857   0.758   3.718   1.598  2.2760 -1.2244  2.6262
 1100TIP3   OH224858   0.697   0.318   7.938 -0.1111 -0.4595 -0.4356
 1100TIP3    H124859   0.778   0.278   7.907 -0.6452 -0.6824 -1.6205
 1100TIP3    H224860   0.628   0.258   7.908 -0.9411  1.2742 -2.2483
 1101TIP3   OH224861   3.064   5.380   1.565  0.0666 -0.1354 -0.7836
 1101TIP3    H124862   3.037   5.301   1.519  0.3315 -0.4138 -0.4721
 1101TIP3    H224863   3.108   5.347   1.644 -0.2425  0.3270 -0.4141
 1102TIP3   OH224864   5.640   3.228   0.834  0.1125  0.2850 -0.7100
 1102TIP3    H124865   5.656   3.258   0.923 -0.0900  5.2968 -2.0448
 1102TIP3    H224866   5.545   3.219   0.828  0.0708  0.6414 -0.5924
 1103TIP3   OH224867   0.469   5.919   7.369 -0.4172  0.5359 -0.3950
 1103TIP3    H124868   0.473   5.911   7.274  0.0637 -2.0997 -0.2263
 1103TIP3    H224869   0.560   5.934   7.395 -0.1535 -1.1271 -0.2477
 1104TIP3   OH224870   3.147   1.279   1.471 -0.1528 -0.3877  0.1233
 1104TIP3    H124871   3.106   1.216   1.529  0.5534  2.1642  3.7271
 1104TIP3    H224872   3.241   1.259   1.477 -0.1250 -0.6939 -1.0221
 1105TIP3   OH224873   4.794   4.505   1.375  0.2800  0.1376  0.5479
 1105TIP3    H124874   4.829   4.579   1.424 -0.5152  1.4001 -0.7118
 1105TIP3    H224875   4.763   4.543   1.293 -0.3126 -1.5742 -0.0674
 1106TIP3   OH224876   4.756   4.622   0.564  0.1811 -0.1718 -0.1170
 1106TIP3    H124877   4.721   4.602   0.477  0.8462 -0.2128 -0.3843
 1106TIP3    H224878   4.713   4.559   0.622  1.4280 -1.6878 -0.7713
 1107TIP3   OH224879   3.248   1.857   8.288  0.3419  0.2372 -0.0316
 1107TIP3    H124880   3.181   1.806   8.243  0.8564 -0.7008  0.2337
 1107TIP3    H224881   3.321   1.861   8.226  1.1458 -1.2675  0.7565
 1108TIP3   OH224882   4.814   1.781   7.154 -0.1797 -0.0691  0.1768
 1108TIP3    H124883   4.800   1.779   7.249 -0.7875 -0.3450  0.0852
 1108TIP3    H224884   4.850   1.694   7.133  1.0959  0.4016  0.3141
 1109TIP3   OH224885   3.768   5.815   6.722 -0.5800  0.2957 -0.6444
 1109TIP3    H124886   3.808   5.848   6.641 -1.0121 -0.1803 -1.0620
 1109TIP3    H224887   3.827   5.843   6.791 -0.0341  0.4321 -1.1592
 1110TIP3   OH224888   1.385   4.086   7.798  0.2425  0.5738 -0.1019
 1110TIP3    H124889   1.381   3.990   7.797  0.7403  0.5436  0.2350
 1110TIP3    H224890   1.310   4.113   7.851  0.2692  0.3631  0.0420
 1111TIP3   OH224891   5.567   0.263   0.544  0.4786 -0.5029  0.0724
 1111TIP3    H124892   5.587   0.216   0.625 -0.2026 -0.6998  0.1319
 1111TIP3    H224893   5.473   0.281   0.549  0.9169  2.0642  0.6833
 1112TIP3   OH224894   0.443   0.608   1.967 -0.3427 -0.1112  0.0814
 1112TIP3    H124895   0.522   0.650   2.002 -0.2156 -0.6406  0.4483
 1112TIP3    H224896   0.475   0.526   1.929 -0.6561 -0.1229 -0.1579
 1113TIP3   OH224897   0.115   5.874   0.738 -0.1490 -0.0700  0.6310
 1113TIP3    H124898   0.027   5.847   0.763 -1.5269  1.0834 -2.4399
 1113TIP3    H224899   0.164   5.792   0.730 -1.4358 -0.8890  0.8037
 1114TIP3   OH224900   3.232   6.248   1.691 -0.3459 -0.0337  0.6245
 1114TIP3    H124901   3.162   6.256   1.625 -0.0296 -0.3838  0.2409
 1114TIP3    H224902   3.204   6.306   1.762 -1.7890 -1.3015  1.1548
 1115TIP3   OH224903   6.712   3.322   6.806 -0.1632 -0.1327  0.5008
 1115TIP3    H124904   6.724   3.366   6.722  0.2604  1.1418  1.1964
 1115TIP3    H224905   6.800   3.314   6.842 -0.5025  1.8898  2.0223
 1116TIP3   OH224906   2.667   6.367   7.137  0.2092  0.3383 -0.1621
 1116TIP3    H124907   2.658   6.397   7.046  1.3919 -0.2050 -0.4629
 1116TIP3    H224908   2.702   6.279   7.131 -0.0445  0.1548  0.8249
 1117TIP3   OH224909   4.825   6.696   7.588 -0.4444 -0.5375 -0.2717
 1117TIP3    H124910   4.778   6.649   7.519 -0.1193 -0.0874 -0.8111
 1117TIP3    H224911   4.916   6.698   7.558 -0.7521  2.2666 -1.3819
 1118TIP3   OH224912   1.598   4.791   1.833  0.0526  0.7646 -0.4577
 1118TIP3    H124913   1.674   4.846   1.817 -1.0802  3.4245  2.2658
 1118TIP3    H224914   1.611   4.757   1.922 -1.1721 -0.1295 -0.5869
 1119TIP3   OH224915   3.536   0.159   0.658  0.0370  0.1452  0.0175
 1119TIP3    H124916   3.491   0.121   0.734  1.5153  0.1096  0.9290
 1119TIP3    H224917   3.474   0.223   0.623 -0.8935 -0.2170  0.9334
 1120TIP3   OH224918   6.415   3.640   0.260  0.5385  0.0713 -0.6037
 1120TIP3    H124919   6.484   3.698   0.230  0.8247  1.3478  2.1904
 1120TIP3    H224920   6.340   3.698   0.276  0.3637 -0.5141  0.8652
 1121TIP3   OH224921   1.146   1.905   8.420 -0.3772 -0.2971 -0.1200
 1121TIP3    H124922   1.112   1.994   8.424 -1.3982 -0.6570 -0.4563
 1121TIP3    H224923   1.176   1.895   8.330 -1.7103 -0.7812 -0.5409
 1122TIP3   OH224924   5.300   1.211   8.799 -0.1510 -0.9080  0.5517
 1122TIP3    H124925   5.380   1.205   8.849 -0.4709  0.5136  1.2950
 1122TIP3    H224926   5.278   1.121   8.776  0.8958 -1.4268  1.5309
 1123TIP3   OH224927   3.075   6.610   1.491  0.5238 -0.4815  0.1999
 1123TIP3    H124928   3.141   6.597   1.423 -0.9632 -1.0185 -1.1908
 1123TIP3    H224929   3.030   6.526   1.498 -1.2314  0.3760 -0.2330
 1124TIP3   OH224930   4.088   2.834   0.293  0.4832 -0.0354  0.7431
 1124TIP3    H124931   3.996   2.825   0.319 -0.7315 -0.4663 -3.0309
 1124TIP3    H224932   4.094   2.922   0.255  1.4278 -0.2356  0.3964
 1125TIP3   OH224933   2.629   6.787   1.206 -0.3412 -0.0848 -0.3033
 1125TIP3    H124934   2.711   6.835   1.211 -0.4640  0.1785 -0.7518
 1125TIP3    H224935   2.561   6.854   1.212 -0.5631 -0.4492  1.7974
 1126TIP3   OH224936   4.174   1.127   8.414  0.3867 -0.0583  0.4627
 1126TIP3    H124937   4.140   1.196   8.471  0.6828  0.0261  0.5397
 1126TIP3    H224938   4.097   1.091   8.370  0.2122  0.1997  0.5593
 1127TIP3   OH224939   0.348   5.982   0.968 -0.2327  0.0068 -0.2521
 1127TIP3    H124940   0.419   5.932   1.010 -1.1167 -0.6487  0.5125
 1127TIP3    H224941   0.371   5.982   0.875  0.3061 -0.9923 -0.1400
 1128TIP3   OH224942   1.842   5.044   8.500  0.0352 -0.2631  0.2803
 1128TIP3    H124943   1.792   5.048   8.581 -0.8188 -0.9629 -0.1976
 1128TIP3    H224944   1.779   5.012   8.435  0.5271  0.8870 -0.7964
 1129TIP3   OH224945   4.940   4.317   8.001  0.1601  0.1240 -0.0419
 1129TIP3    H124946   4.862   4.264   8.017  0.3032 -0.3298 -0.8325
 1129TIP3    H224947   4.951   4.316   7.906  0.3792  1.2641 -0.0522
 1130TIP3   OH224948   3.452   0.676   1.398  0.3670 -0.1097  0.0963
 1130TIP3    H124949   3.458   0.705   1.307 -1.2083 -0.2379 -0.0713
 1130TIP3    H224950   3.461   0.756   1.450  0.4768  0.0667 -0.1938
 1131TIP3   OH224951   4.106   2.713   7.158  0.2407 -0.5090 -0.4587
 1131TIP3    H124952   4.121   2.638   7.101 -0.6632 -1.0489 -0.0138
 1131TIP3    H224953   4.030   2.688   7.211 -0.3574  0.8887 -0.6003
 1132TIP3   OH224954   6.652   0.766   0.126 -0.5634  0.4442 -0.6751
 1132TIP3    H124955   6.727   0.823   0.109  0.8934 -0.4507  2.0940
 1132TIP3    H224956   6.670   0.687   0.075 -1.7492  1.6668 -3.1830
 1133TIP3   OH224957   0.389   1.015   1.302  0.3245 -0.4280 -0.7623
 1133TIP3    H124958   0.347   0.992   1.385 -0.9346 -0.1325 -1.2874
 1133TIP3    H224959   0.482   0.998   1.316  0.1776 -0.0756  0.8096
 1134TIP3   OH224960   4.860   5.686   0.697 -0.5280 -0.3143 -0.2579
 1134TIP3    H124961   4.841   5.718   0.785  0.4288  1.3448 -0.6278
 1134TIP3    H224962   4.955   5.691   0.688 -0.5264 -1.3175 -1.0912
 1135TIP3   OH224963   1.411   2.443   0.250  0.5254  0.1735 -0.5112
 1135TIP3    H124964   1.368   2.452   0.335  0.9513 -2.5550  0.0825
 1135TIP3    H224965   1.428   2.533   0.222  0.7234  1.1666  2.4586
 1136TIP3   OH224966   2.289   6.129   7.961 -0.0553  0.3238 -0.4276
 1136TIP3    H124967   2.347   6.132   7.886 -0.2098 -0.5676 -0.5898
 1136TIP3    H224968   2.317   6.203   8.016 -0.2027  1.2241 -1.5336
 1137TIP3   OH224969   6.584   5.843   8.663 -0.1259 -0.1226  0.5574
 1137TIP3    H124970   6.516   5.794   8.708 -0.7058 -0.9218 -1.1397
 1137TIP3    H224971   6.557   5.844   8.571  0.5582  2.2412  0.3258
 1138TIP3   OH224972   0.549   5.811   6.619 -0.4416  0.3071  0.3048
 1138TIP3    H124973   0.614   5.881   6.607 -0.8414  0.5239 -0.7532
 1138TIP3    H224974   0.597   5.730   6.601 -0.3308  0.4299  0.0365
 1139TIP3   OH224975   4.758   1.411   1.815  0.0188 -0.1918 -0.6524
 1139TIP3    H124976   4.768   1.452   1.901 -2.0625  1.3031 -1.0567
 1139TIP3    H224977   4.786   1.479   1.753 -0.2486 -0.5841 -1.2100
 1140TIP3   OH224978   3.476   3.819   8.164 -0.3654  0.4650 -0.4073
 1140TIP3    H124979   3.465   3.732   8.202  1.5888  0.1401 -0.4903
 1140TIP3    H224980   3.468   3.879   8.239  2.1539 -0.0899  0.3948
 1141TIP3   OH224981   2.625   1.432   7.052  0.1543  0.2659 -0.4549
 1141TIP3    H124982   2.635   1.337   7.059  1.5328  0.3443 -0.9086
 1141TIP3    H224983   2.703   1.468   7.096 -1.1647  1.2658  1.2191
 1142TIP3   OH224984   5.159   1.892   8.673 -0.4142  0.1915  0.2010
 1142TIP3    H124985   5.089   1.956   8.672 -0.9715 -0.3650  1.2942
 1142TIP3    H224986   5.188   1.890   8.764  0.2210 -0.4338 -0.0051
 1143TIP3   OH224987   4.787   2.689   6.576 -0.1320 -0.7335 -0.2767
 1143TIP3    H124988   4.701   2.685   6.618 -0.5361 -1.7854 -1.1370
 1143TIP3    H224989   4.827   2.769   6.609 -1.6756  0.0707 -0.2869
 1144TIP3   OH224990   6.413   2.350   8.758 -0.4826  1.0649  0.2025
 1144TIP3    H124991   6.391   2.383   8.844 -1.2063 -1.5294  1.1237
 1144TIP3    H224992   6.462   2.269   8.776  0.4573  1.1158 -1.8358
 1145TIP3   OH224993   4.687   4.602   1.725 -0.7256  0.0891  0.1422
 1145TIP3    H124994   4.691   4.660   1.650 -0.1773  2.4691  1.9025
 1145TIP3    H224995   4.598   4.611   1.758 -0.3858  0.6440  0.9330
 1146TIP3   OH224996   5.505   3.963   7.640  0.3397  0.1676  0.0403
 1146TIP3    H124997   5.545   3.878   7.662 -0.2370  0.1473  1.0542
 1146TIP3    H224998   5.414   3.942   7.620  0.6605  0.2930 -1.7349
 1147TIP3   OH224999   3.872   4.950   8.125 -0.4548 -0.2721  0.3160
 1147TIP3    H125000   3.884   4.855   8.130  0.4323 -0.1497  0.8348
 1147TIP3    H225001   3.892   4.980   8.214  0.9553  0.5617 -0.2548
 1148TIP3   OH225002   3.481   5.874   1.607 -0.4457 -0.0809  0.1005
 1148TIP3    H125003   3.387   5.857   1.597 -1.0583 -0.0247  4.0150
 1148TIP3    H225004   3.505   5.827   1.687  3.4470 -1.7962 -1.8356
 1149TIP3   OH225005   0.610   5.925   8.584 -0.2462 -0.1476  0.3631
 1149TIP3    H125006   0.571   5.914   8.670 -1.3273  0.8660  0.0223
 1149TIP3    H225007   0.568   6.003   8.548  0.1216 -0.6018 -1.1162
 1150TIP3   OH225008   5.274   3.877   7.556  0.5478  0.0527  0.0119
 1150TIP3    H125009   5.236   3.825   7.626  0.8024 -2.7504 -1.7606
 1150TIP3    H225010   5.201   3.894   7.496  0.8927 -0.1075 -0.4591
 1151TIP3   OH225011   1.636   4.915   8.320 -0.1374  0.0619 -0.0481
 1151TIP3    H125012   1.563   4.932   8.259 -0.7724  0.9515  0.9260
 1151TIP3    H225013   1.595   4.876   8.397  0.6266 -0.8077 -0.0659
 1152TIP3   OH225014   2.521   5.105   6.763  0.3356  0.5614  0.3031
 1152TIP3    H125015   2.511   5.061   6.848  1.0055 -0.9659 -0.3703
 1152TIP3    H225016   2.567   5.186   6.783  0.7490  0.0787  1.3685
 1153TIP3   OH225017   1.801   3.207   7.326 -0.1324 -0.5888  0.1580
 1153TIP3    H125018   1.818   3.282   7.269  1.1520 -0.6165  0.4782
 1153TIP3    H225019   1.710   3.183   7.307 -0.9665  1.7242  0.8512
 1154TIP3   OH225020   3.852   5.112   7.026 -0.3514 -0.6031  0.7019
 1154TIP3    H125021   3.884   5.125   7.115  0.6172  1.3746  0.0942
 1154TIP3    H225022   3.926   5.131   6.969 -2.2065  3.4241 -0.7282
 1155TIP3   OH225023   0.105   0.985   0.082  0.0307 -0.0692  0.3701
 1155TIP3    H125024   0.140   1.010  -0.004  0.6781 -0.2561  0.5721
 1155TIP3    H225025   0.139   0.897   0.097  0.2831  0.1258  1.0008
 1156TIP3   OH225026   1.975   2.228   7.615  0.1029 -0.1863  0.3874
 1156TIP3    H125027   1.949   2.233   7.707 -1.4073  1.1247 -0.0698
 1156TIP3    H225028   2.068   2.253   7.615  0.0582  0.0193  1.5274
 1157TIP3   OH225029   5.071   1.438   7.821 -0.1010  0.1191 -0.2512
 1157TIP3    H125030   5.015   1.514   7.804  1.3556  1.2168 -0.3973
 1157TIP3    H225031   5.062   1.383   7.743 -0.1215  0.8440 -0.7705
 1158TIP3   OH225032   6.368   4.794   0.060  1.0860  0.6178  0.0522
 1158TIP3    H125033   6.298   4.766   0.118  0.4354 -0.3994 -1.1783
 1158TIP3    H225034   6.373   4.889   0.072 -0.4685  0.7071  0.1996
 1159TIP3   OH225035   1.693   1.893   6.882  0.2491  0.0895 -0.0445
 1159TIP3    H125036   1.737   1.976   6.902 -0.8953  0.5350  0.6906
 1159TIP3    H225037   1.764   1.828   6.885  0.9824  0.8825  0.3916
 1160TIP3   OH225038   6.303   3.133   8.284  0.1620  0.2925  0.1765
 1160TIP3    H125039   6.390   3.118   8.322  1.9227  1.8580 -2.7986
 1160TIP3    H225040   6.270   3.045   8.265  0.5407 -0.3845  2.3088
 1161TIP3   OH225041   6.622   0.119   1.827 -0.3004  0.5200 -0.4900
 1161TIP3    H125042   6.682   0.159   1.890  1.4714 -0.9319 -1.1247
 1161TIP3    H225043   6.621   0.026   1.851 -1.0890  0.2708 -1.4249
 1162TIP3   OH225044   1.774   3.133   1.288  0.0538 -0.3553  0.2306
 1162TIP3    H125045   1.689   3.091   1.272  0.2152 -0.7378  0.3702
 1162TIP3    H225046   1.753   3.226   1.294 -0.1943 -0.3153 -0.9695
 1163TIP3   OH225047   0.113   1.958   7.743 -0.2968  0.5806  0.2869
 1163TIP3    H125048   0.162   1.880   7.716 -0.8310  0.6796 -1.0645
 1163TIP3    H225049   0.145   1.978   7.831  1.8055  0.4294 -0.4039
 1164TIP3   OH225050   0.757   5.552   8.780  0.3399 -0.1858  0.1330
 1164TIP3    H125051   0.731   5.480   8.837 -0.7303 -0.5688 -0.7926
 1164TIP3    H225052   0.674   5.591   8.751  0.7255 -1.1116 -2.4985
 1165TIP3   OH225053   6.364   2.688   8.615 -0.3960 -0.1760 -0.4955
 1165TIP3    H125054   6.431   2.728   8.671 -2.0110 -0.7412  2.0297
 1165TIP3    H225055   6.412   2.656   8.539  2.1145 -0.0923  0.9331
 1166TIP3   OH225056   4.704   4.857   7.208  1.2981  0.0573 -0.3924
 1166TIP3    H125057   4.768   4.786   7.206 -1.1721 -2.3858  1.2347
 1166TIP3    H225058   4.654   4.846   7.127  0.1883 -0.8406  0.3911
 1167TIP3   OH225059   2.957   0.937   0.816 -0.8018 -0.2014  0.2790
 1167TIP3    H125060   2.864   0.942   0.834 -0.4193 -0.6368  2.8202
 1167TIP3    H225061   2.967   0.972   0.727 -3.1486  1.4833  0.5885
 1168TIP3   OH225062   3.691   3.124   6.460 -0.7174 -0.0765  0.1337
 1168TIP3    H125063   3.754   3.066   6.504 -1.4066 -0.4625  0.6268
 1168TIP3    H225064   3.633   3.065   6.411 -1.4672  0.1786  0.6960
 1169TIP3   OH225065   1.473   1.711   0.937  0.0722 -0.0722 -0.0852
 1169TIP3    H125066   1.563   1.711   0.903 -0.7096  0.9806 -2.3575
 1169TIP3    H225067   1.423   1.663   0.870 -1.6001  2.2578 -0.6217
 1170TIP3   OH225068   5.416   5.261   1.250 -0.2765 -0.3345  0.1437
 1170TIP3    H125069   5.360   5.336   1.269  0.2338  0.2946 -0.7612
 1170TIP3    H225070   5.490   5.270   1.310 -0.9840 -1.0158  1.1479
 1171TIP3   OH225071   4.832   6.755   0.396  0.5819  0.2955  0.4679
 1171TIP3    H125072   4.757   6.756   0.455  0.5436 -0.3399  0.4436
 1171TIP3    H225073   4.888   6.826   0.427 -0.1768  0.9826  0.2835
 1172TIP3   OH225074   1.758   3.241   6.675  0.0869  0.3405  0.2703
 1172TIP3    H125075   1.825   3.292   6.630 -0.0555 -0.1227 -0.4900
 1172TIP3    H225076   1.707   3.201   6.605  1.0048 -1.9400  0.7927
 1173TIP3   OH225077   1.325   1.723   6.755  0.1353  0.5704 -0.1853
 1173TIP3    H125078   1.230   1.720   6.764  0.0128  2.4820 -0.4208
 1173TIP3    H225079   1.358   1.731   6.844  0.1940 -1.4052  0.0130
 1174TIP3   OH225080   6.233   0.807   2.475  0.2110  0.2017  0.3309
 1174TIP3    H125081   6.192   0.764   2.399 -1.1509  0.3453  0.9558
 1174TIP3    H225082   6.269   0.735   2.526  0.2463  0.0199  0.0552
 1175TIP3   OH225083   5.043   0.184   7.983 -0.3043 -0.1025  0.4200
 1175TIP3    H125084   5.044   0.152   7.892 -1.1328  0.2375  0.2794
 1175TIP3    H225085   4.951   0.206   7.999  0.2940  2.9012  0.2503
 1176TIP3   OH225086   0.904   2.887   0.561 -0.2020 -0.1214  0.2330
 1176TIP3    H125087   0.958   2.807   0.566  0.7584  0.5219  0.4067
 1176TIP3    H225088   0.814   2.856   0.574  0.1498 -1.1875  0.2133
 1177TIP3   OH225089   0.241   3.914   8.149  0.2231 -0.2662 -0.0067
 1177TIP3    H125090   0.194   3.834   8.127 -0.7410 -0.0763  1.2200
 1177TIP3    H225091   0.236   3.919   8.245 -0.4682  1.6580 -0.0877
 1178TIP3   OH225092   4.678   1.540   6.968  0.2524  0.0848  0.1559
 1178TIP3    H125093   4.612   1.471   6.962  1.2177 -0.9968  1.3540
 1178TIP3    H225094   4.761   1.494   6.957  0.8460  1.4168 -1.3300
 1179TIP3   OH225095   2.266   2.631   7.640  0.0132 -0.0756 -0.3420
 1179TIP3    H125096   2.263   2.585   7.556  0.9608 -1.4244  0.3389
 1179TIP3    H225097   2.268   2.724   7.615 -0.7120 -0.4037 -1.7702
 1180TIP3   OH225098   1.881   5.728   1.313  0.1581 -0.9675 -0.4589
 1180TIP3    H125099   1.958   5.777   1.343  0.0486 -0.0430 -1.6299
 1180TIP3    H225100   1.910   5.686   1.232 -0.5891 -0.5359 -0.9592
 1181TIP3   OH225101   5.098   5.972   8.615  0.4646 -0.4657 -0.0940
 1181TIP3    H125102   5.038   5.979   8.541  1.9237 -0.7877 -1.3616
 1181TIP3    H225103   5.049   5.925   8.682 -0.9277 -0.0674 -0.7959
 1182TIP3   OH225104   5.901   2.880   7.576  0.3647 -0.4734  0.0096
 1182TIP3    H125105   5.812   2.846   7.572 -0.1963  0.8419  0.7898
 1182TIP3    H225106   5.954   2.807   7.606 -0.0581 -1.9197 -2.4825
 1183TIP3   OH225107   3.256   4.552   0.250 -0.1998  0.2166  0.0902
 1183TIP3    H125108   3.237   4.635   0.294  0.6048  0.7929 -0.6212
 1183TIP3    H225109   3.283   4.577   0.162  2.3944 -0.6176  0.5754
 1184TIP3   OH225110   2.272   6.694   1.907 -0.4064 -0.1565 -0.5072
 1184TIP3    H125111   2.320   6.647   1.975 -0.4642  1.3577  0.6461
 1184TIP3    H225112   2.330   6.765   1.881 -1.1241  0.3769 -0.6873
 1185TIP3   OH225113   4.353   4.272   6.713  0.1504  0.6846  0.3824
 1185TIP3    H125114   4.389   4.319   6.788  0.6510  0.3531  0.3545
 1185TIP3    H225115   4.324   4.341   6.653  0.9032  0.9633  0.3252
 1186TIP3   OH225116   0.246   1.119   6.310  0.3636  0.0125  0.1453
 1186TIP3    H125117   0.193   1.198   6.298  0.4252 -0.2217 -2.0966
 1186TIP3    H225118   0.336   1.151   6.308  0.3730  0.0985  1.3110
 1187TIP3   OH225119   6.093   5.478   1.683 -0.1913 -0.3385 -0.2574
 1187TIP3    H125120   6.013   5.512   1.723 -0.8044 -0.6866 -1.1639
 1187TIP3    H225121   6.151   5.554   1.678 -0.0482 -0.3064  1.3605
 1188TIP3   OH225122   4.030   0.605   8.467  0.3170 -0.0878 -0.6666
 1188TIP3    H125123   3.959   0.641   8.414  0.3335 -0.3249 -0.8532
 1188TIP3    H225124   4.020   0.510   8.460  0.5820 -0.1227 -0.5991
 1189TIP3   OH225125   1.754   0.847   6.691  0.4013 -0.1907  0.0991
 1189TIP3    H125126   1.773   0.894   6.610 -2.0873 -0.4597 -0.7125
 1189TIP3    H225127   1.743   0.756   6.665  0.8566 -0.5129  0.9771
 1190TIP3   OH225128   3.561   2.642   0.126 -0.5310 -0.5205 -0.0691
 1190TIP3    H125129   3.607   2.723   0.103 -2.1242  0.6472  0.6739
 1190TIP3    H225130   3.470   2.669   0.140 -1.1549 -2.4894  0.0039
 1191TIP3   OH225131   0.903   5.411   6.659 -0.1475  0.1156 -0.2119
 1191TIP3    H125132   0.976   5.429   6.600 -1.0668  1.8004 -0.9220
 1191TIP3    H225133   0.874   5.323   6.636  0.6145  0.0851 -1.0759
 1192TIP3   OH225134   0.019   2.694   0.967  0.1394 -0.3580 -0.0535
 1192TIP3    H125135  -0.007   2.683   0.875 -1.1233  1.7818 -0.0289
 1192TIP3    H225136  -0.041   2.637   1.016 -0.0344 -0.5345 -0.4671
 1193TIP3   OH225137   5.613   0.082   6.843  0.2421  0.3667  0.9813
 1193TIP3    H125138   5.695   0.033   6.838  0.2160  0.3930  0.2780
 1193TIP3    H225139   5.570   0.047   6.921  0.6986  0.0096  1.0805
 1194TIP3   OH225140   2.074   1.700   0.673  0.2235  0.4793  0.5991
 1194TIP3    H125141   2.121   1.653   0.604  0.3297 -0.0284  1.0141
 1194TIP3    H225142   2.125   1.780   0.686 -1.1275  1.8165 -1.6195
 1195TIP3   OH225143   1.391   6.300   2.124  0.1709 -0.6135  0.0970
 1195TIP3    H125144   1.483   6.326   2.123  0.6781 -2.2784 -0.9157
 1195TIP3    H225145   1.390   6.218   2.174 -1.0046  0.0945  1.3045
 1196TIP3   OH225146   0.456   5.041   7.030  0.1864 -0.2744 -0.4883
 1196TIP3    H125147   0.405   5.085   6.963  0.5206  1.9533  0.6409
 1196TIP3    H225148   0.547   5.053   7.003  0.3247  0.6967  0.3841
 1197TIP3   OH225149   2.558   4.016   1.159 -0.5111  0.3304 -0.1499
 1197TIP3    H125150   2.581   4.034   1.250  2.1292 -2.0400 -0.2312
 1197TIP3    H225151   2.481   3.959   1.166 -0.2388  0.0359  0.6042
 1198TIP3   OH225152   6.112   4.668   7.442 -0.4224 -0.1339 -0.4637
 1198TIP3    H125153   6.052   4.647   7.514  1.1580 -0.5772  0.8140
 1198TIP3    H225154   6.097   4.761   7.424 -2.1322 -0.4567 -0.8641
 1199TIP3   OH225155   4.149   6.044   7.889 -0.1861 -0.0189 -0.0199
 1199TIP3    H125156   4.241   6.027   7.869  0.1618  1.9224 -0.2857
 1199TIP3    H225157   4.114   6.084   7.809 -1.1682 -0.4072  0.2066
 1200TIP3   OH225158   1.627   4.399   0.203 -0.5335 -0.1490  0.1506
 1200TIP3    H125159   1.721   4.384   0.193 -0.7757 -2.8276  1.0824
 1200TIP3    H225160   1.614   4.489   0.174  2.3366  0.3820  0.2047
 1201TIP3   OH225161   2.451   1.590   0.580 -0.0089  0.5462 -0.1183
 1201TIP3    H125162   2.488   1.670   0.541 -2.5864  1.4652 -0.8946
 1201TIP3    H225163   2.402   1.622   0.656 -0.3908 -0.4207  0.0510
 1202TIP3   OH225164   0.032   5.305   2.184  0.3545  0.1639 -0.2340
 1202TIP3    H125165   0.065   5.221   2.153 -0.6551 -0.3335 -0.0060
 1202TIP3    H225166  -0.008   5.286   2.268  0.3743  0.9319 -0.0448
 1203TIP3   OH225167   2.596   6.425   6.855  0.5545 -0.3996 -0.3200
 1203TIP3    H125168   2.545   6.358   6.810 -0.3210  1.3082 -2.0291
 1203TIP3    H225169   2.564   6.508   6.818  0.1604  1.1267  3.0911
 1204TIP3   OH225170   4.534   0.088   6.629 -0.3095 -0.2753  0.5188
 1204TIP3    H125171   4.630   0.095   6.623 -0.2595 -0.5372  0.9435
 1204TIP3    H225172   4.502   0.116   6.544  0.1109  0.5925  0.6364
 1205TIP3   OH225173   6.210   1.572   7.099 -0.5066  0.1752 -0.7112
 1205TIP3    H125174   6.250   1.605   7.180  0.1997  0.6397 -1.2370
 1205TIP3    H225175   6.116   1.584   7.112 -0.4154  0.0698  0.1128
 1206TIP3   OH225176   5.845   5.120   7.397  0.3849 -0.8657 -0.0371
 1206TIP3    H125177   5.910   5.163   7.453  0.0424 -1.7311  1.0763
 1206TIP3    H225178   5.835   5.178   7.323 -1.5162  2.0195  2.2677
 1207TIP3   OH225179   2.613   5.309   0.669  0.0311  0.0627 -0.0943
 1207TIP3    H125180   2.656   5.303   0.583 -0.9267  0.2427 -0.5926
 1207TIP3    H225181   2.611   5.219   0.701 -1.4594 -0.3451 -1.1966
 1208TIP3   OH225182   0.610   0.760   7.289  0.1508 -0.0695 -0.3396
 1208TIP3    H125183   0.572   0.770   7.202  0.2900  2.0878 -0.2143
 1208TIP3    H225184   0.681   0.698   7.278  1.4588  1.6361 -2.2524
 1209TIP3   OH225185   2.559   0.666   7.511  0.4767  0.0096  0.1776
 1209TIP3    H125186   2.549   0.760   7.524 -0.1758 -0.0229 -0.0497
 1209TIP3    H225187   2.470   0.632   7.516  0.5541 -0.4234 -1.1310
 1210TIP3   OH225188   0.842   5.484   0.982  0.6344 -0.0026 -0.6822
 1210TIP3    H125189   0.762   5.533   0.964  0.0036 -1.4480 -1.9830
 1210TIP3    H225190   0.870   5.515   1.069 -1.6683  0.0674  0.0994
 1211TIP3   OH225191   5.785   0.237   8.373  0.4079  0.6436 -0.5596
 1211TIP3    H125192   5.692   0.219   8.387  0.2174  1.7028 -0.4005
 1211TIP3    H225193   5.788   0.280   8.288  0.9779 -1.0093 -1.4245
 1212TIP3   OH225194   5.712   6.587   6.997  0.3304  0.2164 -0.1691
 1212TIP3    H125195   5.754   6.504   7.021  0.7635 -0.4585 -2.9656
 1212TIP3    H225196   5.698   6.581   6.903 -1.8420  2.3732 -0.0755
 1213TIP3   OH225197   0.868   4.734   7.376 -0.5589 -0.1782 -0.1489
 1213TIP3    H125198   0.818   4.759   7.298 -1.5129  3.9333  1.5213
 1213TIP3    H225199   0.960   4.746   7.351 -0.8656  1.3448 -0.6106
 1214TIP3   OH225200   4.737   0.866   1.573 -0.2729 -1.3637  0.0327
 1214TIP3    H125201   4.723   0.934   1.638 -0.2415  0.3054 -1.6201
 1214TIP3    H225202   4.650   0.828   1.560  0.0789 -3.2622  2.5624
 1215TIP3   OH225203   4.261   2.326   7.037  0.8527 -0.1769  0.1845
 1215TIP3    H125204   4.269   2.331   7.132 -0.0546 -1.4783  0.3566
 1215TIP3    H225205   4.300   2.242   7.013 -0.2563 -0.5591 -0.3933
 1216TIP3   OH225206   5.594   0.821   7.941  0.0603 -0.7239  0.1152
 1216TIP3    H125207   5.687   0.814   7.919  0.1709 -0.9253  0.6358
 1216TIP3    H225208   5.593   0.847   8.033 -0.3957  0.4827 -0.2172
 1217TIP3   OH225209   4.355   1.198   1.337 -0.4138  0.0802 -0.1378
 1217TIP3    H125210   4.331   1.183   1.429  0.7964  2.9341  0.7414
 1217TIP3    H225211   4.430   1.141   1.323 -0.6776 -0.4706  0.5921
 1218TIP3   OH225212   1.467   6.377   7.964  0.0071  0.0157  0.3033
 1218TIP3    H125213   1.374   6.400   7.959  0.2425  0.8500 -0.6946
 1218TIP3    H225214   1.512   6.451   7.922  1.0203 -0.9336 -0.3469
 1219TIP3   OH225215   6.237   6.480   6.623 -0.5560 -0.1410 -0.1097
 1219TIP3    H125216   6.163   6.503   6.679  0.1397  0.0059  0.7617
 1219TIP3    H225217   6.220   6.390   6.597  0.3408 -1.1104  2.3940
 1220TIP3   OH225218   5.466   3.543   1.307 -0.2337 -0.3202 -0.2347
 1220TIP3    H125219   5.550   3.580   1.280 -0.6088 -0.1784 -1.2537
 1220TIP3    H225220   5.407   3.618   1.312 -0.2093 -0.3582  0.9012
 1221TIP3   OH225221   4.590   1.539   0.636 -0.3276 -0.5143  0.3166
 1221TIP3    H125222   4.644   1.517   0.560 -0.3075  0.2768  0.0978
 1221TIP3    H225223   4.602   1.633   0.649 -0.4143 -0.6180  1.2391
 1222TIP3   OH225224   1.790   2.918   1.525 -0.3647  0.2539  0.2364
 1222TIP3    H125225   1.800   2.978   1.598 -1.8660 -1.0112  1.5606
 1222TIP3    H225226   1.708   2.872   1.543 -0.5102 -0.4776 -1.9826
 1223TIP3   OH225227   3.343   2.037   1.510 -0.1621 -0.3155  0.3195
 1223TIP3    H125228   3.256   2.079   1.506 -0.2903 -0.6304 -0.3235
 1223TIP3    H225229   3.361   2.028   1.603 -2.4733 -3.6231  0.6306
 1224TIP3   OH225230   3.988   6.695   7.264  0.0102  0.2564  0.6178
 1224TIP3    H125231   3.972   6.696   7.358  1.7232 -0.4305  0.9530
 1224TIP3    H225232   4.048   6.621   7.251 -1.3086 -0.5711 -1.2104
 1225TIP3   OH225233   5.312   0.697   2.189  0.4268  0.2040  0.0616
 1225TIP3    H125234   5.310   0.752   2.111  0.3625 -3.0312 -2.4373
 1225TIP3    H225235   5.227   0.653   2.190  0.0970  0.7817  2.5179
 1226TIP3   OH225236   3.828   3.041   1.669  0.1792 -0.3372  0.5620
 1226TIP3    H125237   3.840   2.949   1.693  1.1527 -0.4829 -0.3825
 1226TIP3    H225238   3.914   3.081   1.685 -0.1786  0.3630  0.7617
 1227TIP3   OH225239   3.900   5.265   1.251 -0.3588  0.0886 -0.4084
 1227TIP3    H125240   3.944   5.193   1.295 -1.2497 -1.0441 -1.2967
 1227TIP3    H225241   3.806   5.249   1.267 -0.6334  0.3076 -1.6733
 1228TIP3   OH225242   2.603   5.100   7.849  0.0200 -0.0715  0.4556
 1228TIP3    H125243   2.663   5.026   7.860  1.2640  0.5453 -1.5650
 1228TIP3    H225244   2.523   5.062   7.813  0.9485 -0.3934 -1.3808
 1229TIP3   OH225245   2.317   4.981   7.871 -0.1815 -0.0600 -0.5324
 1229TIP3    H125246   2.258   4.910   7.844 -0.0280 -0.4922  0.2621
 1229TIP3    H225247   2.270   5.025   7.941  0.9934 -1.2535  1.0684
 1230TIP3   OH225248   5.017   4.609   2.205  0.1269  0.2746  0.3211
 1230TIP3    H125249   4.960   4.661   2.148  1.5691  1.9639  0.3188
 1230TIP3    H225250   5.076   4.673   2.245  0.6153 -1.1431  1.9958
 1231TIP3   OH225251   0.015   5.476   1.968 -0.1025 -0.2309 -0.7715
 1231TIP3    H125252  -0.057   5.442   1.915  0.4573 -0.0651 -1.6526
 1231TIP3    H225253   0.012   5.423   2.048 -1.4394  0.0367 -0.6128
 1232TIP3   OH225254   2.777   2.258   8.534 -0.1692 -0.3991  0.1720
 1232TIP3    H125255   2.855   2.239   8.480  0.6665  0.1835  1.1395
 1232TIP3    H225256   2.706   2.265   8.471  0.9581  1.3056 -1.0027
 1233TIP3   OH225257   4.088   0.307   0.526  0.1206  0.1488 -0.6463
 1233TIP3    H125258   4.019   0.359   0.567  0.9161  0.1652  0.7520
 1233TIP3    H225259   4.169   0.340   0.566  0.9838  0.2178 -2.3101
 1234TIP3   OH225260   5.319   6.694   0.507  0.0337  0.0570  0.0657
 1234TIP3    H125261   5.264   6.701   0.428  1.3303 -1.8293 -1.0806
 1234TIP3    H225262   5.407   6.678   0.473  0.6973 -0.4001  1.9053
 1235TIP3   OH225263   1.171   4.802   7.205 -0.4699 -0.2482 -0.3911
 1235TIP3    H125264   1.106   4.856   7.159 -1.6733 -1.2932  0.0456
 1235TIP3    H225265   1.200   4.856   7.278 -0.4328  0.4307 -0.8920
 1236TIP3   OH225266   3.134   2.883   1.340 -0.0708 -0.0446  0.6048
 1236TIP3    H125267   3.195   2.939   1.389 -0.4254  0.8283  0.0676
 1236TIP3    H225268   3.066   2.943   1.309 -1.6914 -1.1063  1.9052
 1237TIP3   OH225269   1.438   4.319   0.397 -0.5425 -0.3315 -0.4519
 1237TIP3    H125270   1.514   4.338   0.343 -1.2071  1.5184 -0.8100
 1237TIP3    H225271   1.464   4.344   0.485  0.0688 -2.0427 -0.1113
 1238TIP3   OH225272   0.231   5.936   8.244 -0.1026  0.0924  0.0857
 1238TIP3    H125273   0.185   5.883   8.180  0.2840  0.8833 -0.8649
 1238TIP3    H225274   0.318   5.949   8.207  0.1262  0.5756  0.7573
 1239TIP3   OH225275   5.782   3.147   1.218  0.0542 -0.0742 -0.2657
 1239TIP3    H125276   5.766   3.180   1.306  1.8127  1.7612 -0.5604
 1239TIP3    H225277   5.733   3.207   1.161 -1.6856 -1.6889 -0.5543
 1240TIP3   OH225278   4.832   3.605   1.942  0.0850  0.3119 -0.2812
 1240TIP3    H125279   4.790   3.625   2.026  1.2910 -0.7061  0.6102
 1240TIP3    H225280   4.926   3.607   1.962  0.3592 -2.3174 -1.0100
 1241TIP3   OH225281   3.133   0.753   8.661 -0.0027 -0.4179 -0.2921
 1241TIP3    H125282   3.188   0.726   8.734 -0.2101 -2.0396 -0.7014
 1241TIP3    H225283   3.093   0.835   8.690  0.2975 -0.7804  1.2050
 1242TIP3   OH225284   6.760   6.523   0.129  0.0590 -0.7561 -0.6888
 1242TIP3    H125285   6.750   6.436   0.089 -1.4131 -1.1347  0.3881
 1242TIP3    H225286   6.686   6.573   0.094  0.1459 -0.3592 -0.3102
 1243TIP3   OH225287   0.693   2.145   0.663  0.0992  0.1110  0.4711
 1243TIP3    H125288   0.598   2.133   0.664 -0.0255  0.7897 -1.1329
 1243TIP3    H225289   0.714   2.171   0.753 -1.5613  2.2063  0.3329
 1244TIP3   OH225290   4.724   3.247   7.046 -0.1004 -0.2745  0.1383
 1244TIP3    H125291   4.784   3.187   7.090  1.5239  1.1061 -0.0819
 1244TIP3    H225292   4.703   3.203   6.963  0.9918 -0.6162  0.0193
 1245TIP3   OH225293   1.406   3.981   7.242 -0.2920 -0.0571 -0.4245
 1245TIP3    H125294   1.420   4.040   7.168  1.5573 -3.0498 -2.7082
 1245TIP3    H225295   1.312   3.967   7.244 -0.3984  0.2450 -2.1329
 1246TIP3   OH225296   0.836   3.546   8.284 -0.2762  0.1999  0.6660
 1246TIP3    H125297   0.771   3.477   8.266 -0.0367  0.4662 -1.3900
 1246TIP3    H225298   0.826   3.608   8.212  1.8503  0.5651  0.6239
 1247TIP3   OH225299   1.470   0.404   6.525  0.4236 -0.3913 -0.7590
 1247TIP3    H125300   1.512   0.372   6.446  1.8392 -1.0716  0.2268
 1247TIP3    H225301   1.452   0.326   6.577 -0.2459  0.0580 -0.2966
 1248TIP3   OH225302   1.986   4.214   6.429 -0.1765  0.2982 -0.1868
 1248TIP3    H125303   2.005   4.206   6.335  1.1891 -1.8194  0.1818
 1248TIP3    H225304   2.070   4.193   6.471 -1.0717  0.0377  1.5239
 1249TIP3   OH225305   3.362   4.094   8.685  0.0305  0.7658 -0.1864
 1249TIP3    H125306   3.368   4.008   8.727  1.8047  1.8845  2.1287
 1249TIP3    H225307   3.272   4.098   8.651 -1.0623 -0.9057  2.1903
 1250TIP3   OH225308   6.571   5.585   0.592 -0.4405  0.2664  0.2480
 1250TIP3    H125309   6.639   5.588   0.660 -0.4771  2.4497  0.2416
 1250TIP3    H225310   6.610   5.533   0.522 -0.2011 -1.5900  1.6792
 1251TIP3   OH225311   5.904   6.601   0.734  0.0398  0.4357 -0.0499
 1251TIP3    H125312   5.857   6.656   0.796  1.4304  0.1895  1.2974
 1251TIP3    H225313   5.899   6.513   0.772  0.6758  0.2377 -0.4093
 1252TIP3   OH225314   4.465   4.786   8.254  0.1452  0.3978 -0.0676
 1252TIP3    H125315   4.496   4.695   8.250  1.7437  0.9292 -1.0747
 1252TIP3    H225316   4.430   4.803   8.167  1.6225  1.2871 -0.5189
 1253TIP3   OH225317   6.411   5.836   7.423  0.1471  0.4602 -0.3702
 1253TIP3    H125318   6.379   5.922   7.394  0.6329  0.6701 -0.2963
 1253TIP3    H225319   6.333   5.793   7.458  0.0756  1.2319  0.4629
 1254TIP3   OH225320   0.947   5.767   0.458 -0.3044 -0.3606 -0.3012
 1254TIP3    H125321   0.992   5.687   0.431 -0.2448 -0.0577 -1.1338
 1254TIP3    H225322   1.016   5.823   0.493 -0.2868 -0.5116 -0.0895
 1255TIP3   OH225323   5.948   1.712   8.761  0.1897 -0.1604  0.3908
 1255TIP3    H125324   5.944   1.806   8.780 -1.1364 -0.5853  2.5690
 1255TIP3    H225325   5.858   1.689   8.736  0.1952 -1.0578  1.1475
 1256TIP3   OH225326   0.774   0.359   0.744  0.4590  0.3064 -0.2535
 1256TIP3    H125327   0.788   0.309   0.664 -0.6657 -0.1913 -0.1576
 1256TIP3    H225328   0.747   0.446   0.714 -1.9526 -0.4651 -0.4522
 1257TIP3   OH225329   1.446   3.818   7.780 -0.2002  0.2462 -0.4537
 1257TIP3    H125330   1.539   3.806   7.800 -0.1040  0.5031 -0.7514
 1257TIP3    H225331   1.406   3.734   7.803 -0.0129  0.3766  0.3613
 1258TIP3   OH225332   0.378   5.290   6.710 -0.7040  0.6093  0.2689
 1258TIP3    H125333   0.404   5.367   6.762 -0.5156  1.4198 -0.9806
 1258TIP3    H225334   0.332   5.327   6.634  0.3351 -0.4341 -0.9144
 1259TIP3   OH225335   3.925   6.551   0.076  0.3053 -0.0607 -0.4996
 1259TIP3    H125336   3.959   6.464   0.099  0.9319  0.0718 -0.8969
 1259TIP3    H225337   3.963   6.569  -0.011  0.8685  0.9646 -0.0602
 1260TIP3   OH225338   5.334   2.739   2.132  0.6002 -0.0274 -0.3209
 1260TIP3    H125339   5.372   2.817   2.171  0.6914  0.3870 -1.2203
 1260TIP3    H225340   5.239   2.754   2.136  0.6402  0.7980 -1.7850
 1261TIP3   OH225341   0.178   3.123   7.460  0.9295 -0.0071  0.2910
 1261TIP3    H125342   0.265   3.150   7.490  0.3303  2.6824 -0.0643
 1261TIP3    H225343   0.131   3.099   7.539  0.6296  3.0661  1.1860
 1262TIP3   OH225344   4.692   5.338   7.543  0.3344  0.2798 -0.0393
 1262TIP3    H125345   4.624   5.340   7.476  2.2439 -1.0905 -2.1705
 1262TIP3    H225346   4.756   5.404   7.515  0.8953  0.0901  0.7428
 1263TIP3   OH225347   4.815   1.643   6.162 -0.3661 -0.0620  0.1448
 1263TIP3    H125348   4.758   1.709   6.123  0.1458  0.8504  0.9159
 1263TIP3    H225349   4.824   1.669   6.254  0.9251 -0.4342  0.1457
 1264TIP3   OH225350   5.610   3.704   7.313 -0.1811 -0.7938 -0.0236
 1264TIP3    H125351   5.528   3.672   7.350 -0.2628 -2.9091 -1.7969
 1264TIP3    H225352   5.675   3.688   7.382 -0.6830 -2.5873  0.0878
 1265TIP3   OH225353   3.210   1.717   7.206  0.2022 -0.4949  0.1662
 1265TIP3    H125354   3.211   1.805   7.243  0.5598 -0.2979 -0.3025
 1265TIP3    H225355   3.210   1.731   7.111  2.4754 -0.9842  0.0426
 1266TIP3   OH225356   4.702   0.499   8.381  0.3820 -0.1238 -0.6867
 1266TIP3    H125357   4.685   0.526   8.291  0.4558 -2.6949 -1.5397
 1266TIP3    H225358   4.791   0.528   8.399  0.2799  0.6166 -1.3132
 1267TIP3   OH225359   5.805   2.084   8.465  0.3032 -0.0642  0.1639
 1267TIP3    H125360   5.877   2.147   8.471  1.1766 -0.7952 -1.6346
 1267TIP3    H225361   5.757   2.109   8.386 -1.3110  0.2651  1.2124
 1268TIP3   OH225362   1.866   5.402   2.314 -0.0396  0.0034  0.3457
 1268TIP3    H125363   1.919   5.373   2.389  2.5695 -0.7667 -1.6477
 1268TIP3    H225364   1.926   5.400   2.240 -2.2171  1.7737 -1.6314
 1269TIP3   OH225365   0.670   2.181   8.302  0.1440 -0.0136 -0.3391
 1269TIP3    H125366   0.715   2.129   8.368  1.5233 -1.8996 -2.6333
 1269TIP3    H225367   0.583   2.198   8.340  1.2526  0.0203  2.3816
 1270TIP3   OH225368   1.224   6.790   0.699 -0.3310  0.1022  0.4090
 1270TIP3    H125369   1.161   6.718   0.708  0.7527 -1.1970 -1.6589
 1270TIP3    H225370   1.297   6.752   0.650  1.1962  2.0951  1.0245
 1271TIP3   OH225371   4.071   1.756   7.273  0.0162 -0.1256 -0.5654
 1271TIP3    H125372   4.160   1.738   7.242 -0.3214 -0.7671 -1.1842
 1271TIP3    H225373   4.056   1.848   7.250  0.3138 -0.1777 -0.9844
 1272TIP3   OH225374   4.746   0.606   1.675 -0.3931 -0.5655 -0.2447
 1272TIP3    H125375   4.741   0.685   1.620  0.2201  0.4546  1.1218
 1272TIP3    H225376   4.711   0.633   1.759 -0.4704 -1.8663  0.1624
 1273TIP3   OH225377   4.599   6.035   2.062  0.2876  0.1144  0.2760
 1273TIP3    H125378   4.668   5.978   2.029 -1.0609 -0.2259 -2.2148
 1273TIP3    H225379   4.526   5.977   2.081 -0.4299  0.7822 -0.3574
 1274TIP3   OH225380   2.813   2.623   0.872 -0.4880  0.3095 -0.7129
 1274TIP3    H125381   2.866   2.627   0.792  0.5271  0.2286 -0.0637
 1274TIP3    H225382   2.773   2.710   0.879  1.6915  1.3179  0.1692
 1275TIP3   OH225383   3.117   6.615   6.430  0.1362 -0.4396  0.1205
 1275TIP3    H125384   3.184   6.681   6.415  0.2571 -1.0659 -2.5995
 1275TIP3    H225385   3.165   6.532   6.433 -0.4185 -0.8536 -1.4944
 1276TIP3   OH225386   1.680   4.403   0.895  0.2212  0.4931 -0.4195
 1276TIP3    H125387   1.746   4.466   0.866  1.7345 -0.2415  1.2330
 1276TIP3    H225388   1.722   4.318   0.883 -1.0437 -0.0984 -0.7639
 1277TIP3   OH225389   0.471   2.666   7.847  0.6008 -0.8049  0.1620
 1277TIP3    H125390   0.379   2.647   7.833  0.8433 -2.0108  0.0670
 1277TIP3    H225391   0.485   2.650   7.941  0.1121  2.2029  0.8444
 1278TIP3   OH225392   1.408   3.150   8.292 -0.0380 -0.1044 -0.1025
 1278TIP3    H125393   1.432   3.059   8.313  1.2437  0.0995 -0.5542
 1278TIP3    H225394   1.459   3.170   8.213  1.5299  1.7130  1.2700
 1279TIP3   OH225395   0.017   2.062   0.963 -0.5217 -0.3113 -0.0140
 1279TIP3    H125396   0.051   2.035   1.048  0.7103 -0.2413 -0.4666
 1279TIP3    H225397   0.049   2.151   0.952  1.2055 -1.0601 -1.4878
 1280TIP3   OH225398   6.596   2.870   0.928 -0.1717 -0.3323  0.1237
 1280TIP3    H125399   6.646   2.793   0.900  0.9543  0.3228  0.3189
 1280TIP3    H225400   6.661   2.935   0.950 -1.0584 -0.1090  2.2833
 1281TIP3   OH225401   4.118   1.569   8.395 -0.9503  0.5692 -0.1472
 1281TIP3    H125402   4.082   1.507   8.458  3.2964 -0.8316  1.2083
 1281TIP3    H225403   4.152   1.640   8.448 -0.5323  1.1848 -1.2090
 1282TIP3   OH225404   5.513   4.596   1.765  0.4032  0.3174  1.1410
 1282TIP3    H125405   5.507   4.642   1.849  0.5177 -2.3319  2.7032
 1282TIP3    H225406   5.607   4.584   1.752  0.3341 -1.6939  2.1246
 1283TIP3   OH225407   4.999   2.652   7.526  0.3422  0.5878  0.6663
 1283TIP3    H125408   5.021   2.735   7.484 -0.0552 -0.3949 -1.6233
 1283TIP3    H225409   5.042   2.585   7.473  0.2444 -0.7296  2.1664
 1284TIP3   OH225410   5.504   5.559   0.532 -0.1319  0.6215  0.5227
 1284TIP3    H125411   5.485   5.515   0.449 -1.3622  1.1957  0.4766
 1284TIP3    H225412   5.422   5.552   0.581  1.0020 -1.0684  2.3435
 1285TIP3   OH225413   4.278   2.210   1.358 -0.4168 -0.0927  0.2405
 1285TIP3    H125414   4.339   2.157   1.409 -2.5783 -1.3697  1.6915
 1285TIP3    H225415   4.198   2.211   1.411 -1.2624  2.6314 -0.9087
 1286TIP3   OH225416   6.384   4.587   7.446  0.2534 -0.5604  0.0414
 1286TIP3    H125417   6.386   4.667   7.394 -1.4542 -1.9011 -2.2742
 1286TIP3    H225418   6.292   4.577   7.471  0.4336 -1.8480  0.2430
 1287TIP3   OH225419   0.925   2.274   1.156 -0.1341  0.7528 -0.0982
 1287TIP3    H125420   0.860   2.299   1.222  0.3733 -0.7444  1.0332
 1287TIP3    H225421   0.962   2.192   1.189  0.7237  0.3830 -1.8619
 1288TIP3   OH225422   5.658   2.534   0.382  0.2458 -0.3460 -0.4348
 1288TIP3    H125423   5.664   2.577   0.467  1.3521  0.4379 -0.8958
 1288TIP3    H225424   5.733   2.566   0.333 -0.0031 -1.3006 -1.4866
 1289TIP3   OH225425   2.148   2.169   6.873  0.0268 -0.1964 -0.2132
 1289TIP3    H125426   2.208   2.227   6.919  1.5846 -0.9207 -1.2554
 1289TIP3    H225427   2.138   2.093   6.931 -0.5103  0.2700  0.3076
 1290TIP3   OH225428   0.658   3.541   0.419  0.2493  0.5512  0.4516
 1290TIP3    H125429   0.700   3.626   0.426 -1.5399  1.5118  0.1164
 1290TIP3    H225430   0.657   3.507   0.508  1.1267  0.7888  0.5616
 1291TIP3   OH225431   4.533   0.939   2.131  0.0449  0.1813  0.3551
 1291TIP3    H125432   4.544   0.860   2.184 -0.1268  0.0037  0.1271
 1291TIP3    H225433   4.524   0.906   2.042 -0.8684  0.4146  0.3595
 1292TIP3   OH225434   1.319   5.174   1.317 -0.1917 -0.4702  0.7551
 1292TIP3    H125435   1.270   5.130   1.248 -1.0598  0.1729  0.9375
 1292TIP3    H225436   1.352   5.103   1.372  0.2040 -0.9700 -0.1093
 1293TIP3   OH225437   3.315   0.224   7.616  0.1651 -0.4030 -0.0979
 1293TIP3    H125438   3.399   0.268   7.598  1.1310 -2.1444 -0.0119
 1293TIP3    H225439   3.301   0.237   7.710 -0.9135  1.9139 -0.4963
 1294TIP3   OH225440   1.122   4.290   6.522  0.0804 -0.6106 -0.0006
 1294TIP3    H125441   1.193   4.354   6.514  0.6202 -0.8552  2.2221
 1294TIP3    H225442   1.046   4.342   6.550 -0.2480 -0.5659 -0.9369
 1295TIP3   OH225443   6.648   4.016   7.022 -0.1100  0.0343 -0.2213
 1295TIP3    H125444   6.611   4.093   6.979  0.5115  0.3093 -0.2696
 1295TIP3    H225445   6.581   3.989   7.084  0.3675  1.6804  1.0921
 1296TIP3   OH225446   4.613   2.551   1.811  0.1363  0.2076 -0.2929
 1296TIP3    H125447   4.553   2.521   1.742 -0.1512 -0.2204  0.1305
 1296TIP3    H225448   4.563   2.615   1.860 -0.2961 -0.7842  0.5905
 1297TIP3   OH225449   4.319   3.591   1.869  0.4558  0.4051 -0.2448
 1297TIP3    H125450   4.316   3.683   1.894 -0.6111  0.6729 -1.2666
 1297TIP3    H225451   4.254   3.583   1.799 -0.9904 -1.5410  1.2212
 1298TIP3   OH225452   5.511   6.632   1.788 -0.5020 -0.0671 -0.7794
 1298TIP3    H125453   5.446   6.604   1.852 -0.4231  0.7148 -0.3438
 1298TIP3    H225454   5.555   6.707   1.829 -0.6281  0.6153 -1.8456
 1299TIP3   OH225455   3.279   1.884   2.071 -0.1443  0.2722 -0.0071
 1299TIP3    H125456   3.269   1.969   2.028 -2.2758 -1.0027 -2.2622
 1299TIP3    H225457   3.283   1.905   2.164  0.6693  2.8955 -0.5449
 1300TIP3   OH225458   4.816   5.060   1.259  1.0673  0.1315  0.1925
 1300TIP3    H125459   4.779   5.047   1.172  1.7650 -0.8819  0.0250
 1300TIP3    H225460   4.765   5.003   1.316 -0.3571  1.8866  0.7486
 1301TIP3   OH225461   4.270   6.780   7.549  1.2102  0.4388 -0.6895
 1301TIP3    H125462   4.319   6.699   7.535  1.3326  0.3375  0.2513
 1301TIP3    H225463   4.329   6.836   7.599  0.5995  0.5351 -0.0535
 1302TIP3   OH225464   5.582   2.645   2.130  1.1566  0.0709  0.2537
 1302TIP3    H125465   5.488   2.656   2.144  1.1446  0.9954 -0.4323
 1302TIP3    H225466   5.620   2.728   2.157  1.6499  0.1082 -0.5143
 1303TIP3   OH225467   0.295   1.409   1.884  0.5724 -0.2185 -0.1557
 1303TIP3    H125468   0.353   1.371   1.819  0.5449 -2.1248  0.8732
 1303TIP3    H225469   0.211   1.421   1.839  0.6480 -1.1871 -0.5668
 1304TIP3   OH225470   4.393   1.399   7.966 -0.2737  0.3063  0.0748
 1304TIP3    H125471   4.359   1.383   8.054  0.3452  0.8905  0.4295
 1304TIP3    H225472   4.316   1.396   7.910 -1.0293  2.0667  0.9316
 1305TIP3   OH225473   1.124   5.933   8.618 -0.2535  0.1407 -0.1281
 1305TIP3    H125474   1.176   5.932   8.538  0.5429  0.0330  0.3830
 1305TIP3    H225475   1.077   5.849   8.616 -2.4156  1.2808 -1.8446
 1306TIP3   OH225476   1.342   3.170   7.270  0.6049  0.1369 -0.3431
 1306TIP3    H125477   1.252   3.179   7.298  0.6315 -0.6183  0.0174
 1306TIP3    H225478   1.336   3.137   7.180  0.4996 -1.4138  0.2021
 1307TIP3   OH225479   0.272   0.542   1.274 -0.0199 -0.3493  0.3838
 1307TIP3    H125480   0.359   0.528   1.310 -0.0204 -1.2136  0.0837
 1307TIP3    H225481   0.282   0.616   1.214  0.9245 -1.4886 -0.9572
 1308TIP3   OH225482   4.584   6.414   0.589 -0.2572 -0.3853 -0.5452
 1308TIP3    H125483   4.653   6.465   0.631  1.5795 -2.6454 -0.6921
 1308TIP3    H225484   4.594   6.432   0.496 -1.4238  1.0773 -0.4311
 1309TIP3   OH225485   4.595   1.247   7.016 -0.5398 -0.1356  1.0115
 1309TIP3    H125486   4.520   1.188   7.017 -2.5374  2.1467  4.1861
 1309TIP3    H225487   4.664   1.200   7.062 -0.4682 -1.6281 -0.5154
 1310TIP3   OH225488   3.025   3.592   1.951 -0.1292 -0.1736  0.3824
 1310TIP3    H125489   3.012   3.685   1.935  1.2733 -0.2758 -1.8178
 1310TIP3    H225490   2.993   3.578   2.041 -1.3578  2.1714  0.3875
 1311TIP3   OH225491   0.210   6.501   7.878 -0.1563 -0.2210 -0.8612
 1311TIP3    H125492   0.124   6.536   7.854  0.2471  0.8520 -0.7758
 1311TIP3    H225493   0.207   6.495   7.973 -0.0280  0.0966 -0.8380
 1312TIP3   OH225494   1.688   0.837   6.012 -0.0592 -0.0730 -0.2499
 1312TIP3    H125495   1.615   0.888   5.977  0.0321  0.4429  0.3032
 1312TIP3    H225496   1.707   0.773   5.943 -0.5117  0.3006 -0.7319
 1313TIP3   OH225497   3.288   3.754   7.492  0.5110  0.2863  0.0555
 1313TIP3    H125498   3.293   3.841   7.531  2.0318  0.3251 -0.1797
 1313TIP3    H225499   3.367   3.746   7.440  0.5858 -1.3853  0.3610
 1314TIP3   OH225500   5.771   2.172   0.289 -0.3057 -0.6664 -0.9832
 1314TIP3    H125501   5.752   2.263   0.313 -0.5801 -0.9136 -0.2158
 1314TIP3    H225502   5.816   2.178   0.205 -0.4401  0.1711 -1.0052
 1315TIP3   OH225503   6.305   0.292   6.978 -0.0868  0.6376  0.4749
 1315TIP3    H125504   6.223   0.300   6.929  0.7952  1.8697 -0.8816
 1315TIP3    H225505   6.313   0.376   7.024 -0.3302 -0.0718  1.8614
 1316TIP3   OH225506   2.094   4.523   0.920 -0.3877  0.0685 -0.0878
 1316TIP3    H125507   2.157   4.559   0.983 -0.6721  1.1011 -0.3665
 1316TIP3    H225508   2.074   4.596   0.862 -0.1101 -0.8727 -1.4097
 1317TIP3   OH225509   1.133   3.544   6.047 -0.0354  0.0126  0.4081
 1317TIP3    H125510   1.225   3.560   6.029 -0.5797  2.5750 -0.5976
 1317TIP3    H225511   1.100   3.628   6.081 -2.4754  0.0385 -1.6451
 1318TIP3   OH225512   0.609   5.753   2.108  0.1409 -0.5605  0.2966
 1318TIP3    H125513   0.637   5.678   2.161  1.4430 -0.5974 -0.4049
 1318TIP3    H225514   0.649   5.738   2.023 -1.4127 -0.1802 -0.5384
 1319TIP3   OH225515   3.997   6.120   0.675  0.1405 -0.1677 -0.6457
 1319TIP3    H125516   3.916   6.122   0.727  0.5542 -1.5284  0.1016
 1319TIP3    H225517   3.980   6.056   0.607  0.6128 -0.5264 -0.4297
 1320TIP3   OH225518   4.547   2.787   8.751  0.1637 -0.2656  0.0278
 1320TIP3    H125519   4.552   2.803   8.656  0.2433 -0.5891 -0.0215
 1320TIP3    H225520   4.455   2.801   8.772  0.0912 -0.4742 -0.1470
 1321TIP3   OH225521   3.397   2.784   8.397  0.4164  1.4451 -0.1445
 1321TIP3    H125522   3.416   2.790   8.490  0.0293  1.3403 -0.0542
 1321TIP3    H225523   3.456   2.717   8.364 -1.2305 -0.4668  0.5483
 1322TIP3   OH225524   3.594   0.993   6.653  0.3853  0.3239 -0.5841
 1322TIP3    H125525   3.538   0.984   6.576  1.8288 -0.5681 -1.5884
 1322TIP3    H225526   3.645   1.073   6.636  0.6373  0.1775 -0.5282
 1323TIP3   OH225527   6.202   2.251   1.200  0.0042  0.3713  0.8989
 1323TIP3    H125528   6.116   2.282   1.171  1.1444  1.6100 -1.3753
 1323TIP3    H225529   6.211   2.165   1.158  0.0402  0.4022  0.8446
 1324TIP3   OH225530   2.510   0.233   1.259 -0.1621 -0.2888 -0.3429
 1324TIP3    H125531   2.491   0.260   1.169 -0.0105 -0.2553 -0.3645
 1324TIP3    H225532   2.554   0.308   1.299  0.7871 -0.7038 -0.5750
 1325TIP3   OH225533   1.534   5.781   1.750  0.1232 -0.3309  0.5793
 1325TIP3    H125534   1.625   5.761   1.728  0.1384 -2.6688  2.4332
 1325TIP3    H225535   1.485   5.754   1.673  0.9957  2.2575 -1.0329
 1326TIP3   OH225536   0.782   4.558   7.891  0.4411 -0.6947  0.1402
 1326TIP3    H125537   0.721   4.540   7.962 -0.6088 -0.7875 -0.7616
 1326TIP3    H225538   0.727   4.567   7.813  1.5029  0.0394 -0.5619
 1327TIP3   OH225539   2.900   5.041   1.776 -0.3771  0.5299 -0.1675
 1327TIP3    H125540   2.839   5.001   1.837 -0.4803 -0.0934 -0.6702
 1327TIP3    H225541   2.977   5.062   1.829 -0.6394  0.4131  0.2646
 1328TIP3   OH225542   4.043   4.097   1.420  0.0434 -0.3669 -0.3396
 1328TIP3    H125543   4.020   4.126   1.508  0.2418 -0.3019 -0.3080
 1328TIP3    H225544   4.037   4.176   1.366 -1.5253 -0.6860 -0.6850
 1329TIP3   OH225545   4.664   1.838   7.380  0.1001 -0.5083  0.1130
 1329TIP3    H125546   4.656   1.863   7.472  0.3430 -1.1725  0.3217
 1329TIP3    H225547   4.598   1.769   7.368 -1.1422  0.7612 -0.6652
 1330TIP3   OH225548   2.678   5.921   8.003  0.3534  0.1381 -0.6687
 1330TIP3    H125549   2.736   5.864   7.952 -0.4366 -1.2090 -0.1352
 1330TIP3    H225550   2.607   5.943   7.943  1.2888  1.6445 -1.2684
 1331TIP3   OH225551   1.895   6.245   2.208  0.2328  0.2977 -0.0064
 1331TIP3    H125552   1.845   6.226   2.287 -0.5342 -0.3512 -0.6460
 1331TIP3    H225553   1.832   6.283   2.148  0.6438  0.0548 -0.5956
 1332TIP3   OH225554   0.819   2.491   6.920  0.3254 -0.7759 -0.2505
 1332TIP3    H125555   0.902   2.539   6.912 -0.6094  0.9633  0.0509
 1332TIP3    H225556   0.825   2.422   6.854  0.9304  0.9679 -2.1077
 1333TIP3   OH225557   4.078   4.258   1.972  0.2366  0.3970  0.0376
 1333TIP3    H125558   3.988   4.287   1.960  0.4156  0.5787 -0.9642
 1333TIP3    H225559   4.123   4.283   1.891  0.8131 -1.0759 -0.1455
 1334TIP3   OH225560   1.225   3.431   7.513 -0.2731 -0.2338  0.2148
 1334TIP3    H125561   1.296   3.401   7.569  0.6451  2.0524  0.3837
 1334TIP3    H225562   1.269   3.463   7.434 -1.3952 -1.5615 -1.0052
 1335TIP3   OH225563   5.085   2.699   0.039  0.6014 -0.5920  0.1876
 1335TIP3    H125564   5.068   2.787   0.005  1.4460  0.5296  2.4709
 1335TIP3    H225565   5.180   2.690   0.038  0.5223 -1.4929 -0.0414
 1336TIP3   OH225566   5.459   2.556   8.646 -0.6713  0.6539  0.1073
 1336TIP3    H125567   5.458   2.589   8.556  1.0947 -0.1427 -0.2618
 1336TIP3    H225568   5.407   2.475   8.643  0.2130  0.0852 -0.4651
 1337TIP3   OH225569   5.421   0.109   1.083  0.3278  0.5658 -0.5785
 1337TIP3    H125570   5.354   0.060   1.035  0.7311 -2.0883  1.3285
 1337TIP3    H225571   5.372   0.175   1.131 -1.0809 -1.3651  0.8275
 1338TIP3   OH225572   3.890   5.016   6.350 -0.8813  0.4315  0.6452
 1338TIP3    H125573   3.798   5.037   6.332 -0.2306  1.1513 -2.2499
 1338TIP3    H225574   3.918   5.086   6.410 -1.3566  2.2730 -1.1708
 1339TIP3   OH225575   0.878   3.165   0.551 -0.1146  0.5589  0.2940
 1339TIP3    H125576   0.964   3.184   0.512 -0.7151  0.7343 -1.0097
 1339TIP3    H225577   0.877   3.070   0.561  0.1945  0.5453  0.2207
 1340TIP3   OH225578   4.020   2.944   7.007 -0.2556  0.2746 -0.5032
 1340TIP3    H125579   3.938   2.983   7.038 -0.9003 -1.4068  0.0723
 1340TIP3    H225580   4.054   2.897   7.084  0.3285 -0.4755 -1.2032
 1341TIP3   OH225581   5.236   0.875   0.551  0.1633 -0.3764 -0.8488
 1341TIP3    H125582   5.201   0.803   0.499 -0.6680  0.7526 -1.9028
 1341TIP3    H225583   5.265   0.939   0.487  0.6300  0.3615  0.0762
 1342TIP3   OH225584   5.504   2.139   0.880 -0.1100 -0.0525 -0.1069
 1342TIP3    H125585   5.433   2.198   0.901  0.0743  0.5981 -1.2305
 1342TIP3    H225586   5.510   2.080   0.955 -0.3412  1.3027  1.0075
 1343TIP3   OH225587   5.143   4.342   0.760  0.0828  0.5814  0.5874
 1343TIP3    H125588   5.069   4.324   0.817 -0.5456  0.1971 -0.3279
 1343TIP3    H225589   5.149   4.266   0.703  2.0707 -0.0434  1.5519
 1344TIP3   OH225590   6.652   1.882   7.670 -0.4353  0.0332  0.2414
 1344TIP3    H125591   6.631   1.972   7.645  0.1652 -0.2243 -1.2875
 1344TIP3    H225592   6.738   1.888   7.711  0.3930 -0.0326 -1.4118
 1345TIP3   OH225593   3.017   4.545   0.655 -0.9150 -0.0052  0.1828
 1345TIP3    H125594   3.027   4.517   0.746  1.3573  0.3914  0.1194
 1345TIP3    H225595   3.014   4.463   0.606 -0.9587 -0.2074  0.5192
 1346TIP3   OH225596   3.564   0.071   1.148  0.9452 -0.4196  0.4301
 1346TIP3    H125597   3.614   0.135   1.098 -1.7704 -0.5136 -2.7486
 1346TIP3    H225598   3.534   0.119   1.225  1.7255  1.0991 -0.1682
 1347TIP3   OH225599   5.231   2.041   7.704 -0.2175 -0.5357  0.1453
 1347TIP3    H125600   5.165   1.977   7.679 -0.2167 -1.1357  1.5484
 1347TIP3    H225601   5.314   1.992   7.702 -0.0715 -0.2880  0.1452
 1348TIP3   OH225602   1.462   6.291   8.621  0.1065 -0.1055  0.5591
 1348TIP3    H125603   1.425   6.204   8.633 -2.0822  0.4747 -1.2230
 1348TIP3    H225604   1.556   6.277   8.610 -0.1248 -2.1609  0.8287
 1349TIP3   OH225605   4.264   1.010   1.601  0.3743  0.5374  0.1335
 1349TIP3    H125606   4.217   1.089   1.629 -1.3423  0.3021 -1.8776
 1349TIP3    H225607   4.204   0.938   1.619  0.4942  0.0693 -1.2535
 1350TIP3   OH225608   2.418   1.357   7.628 -0.3486 -0.3130  0.6493
 1350TIP3    H125609   2.422   1.392   7.717 -1.3795 -0.7917  0.9069
 1350TIP3    H225610   2.376   1.272   7.637 -1.9983  0.3071 -0.4438
 1351TIP3   OH225611   1.767   5.218   1.256  0.0955  0.1702 -0.1214
 1351TIP3    H125612   1.677   5.247   1.273 -0.2865 -1.6493  1.2770
 1351TIP3    H225613   1.808   5.293   1.213 -2.0185  1.1352 -0.6327
 1352TIP3   OH225614   6.459   3.063   6.999 -0.0083 -0.1998  0.9694
 1352TIP3    H125615   6.509   3.121   7.057 -2.5735  1.4099  1.7193
 1352TIP3    H225616   6.390   3.028   7.055 -2.3626  1.1245 -0.9206
 1353TIP3   OH225617   0.222   3.454   1.581 -0.3405 -0.0037  0.3076
 1353TIP3    H125618   0.294   3.400   1.613 -0.8401 -0.8711  0.0019
 1353TIP3    H225619   0.144   3.416   1.620 -0.8226 -0.2699 -0.8718
 1354TIP3   OH225620   2.110   4.125   7.057 -0.9903 -0.6237 -0.2072
 1354TIP3    H125621   2.156   4.042   7.040  0.8382  0.1694  0.6202
 1354TIP3    H225622   2.163   4.191   7.014 -1.8382  0.2498  0.0577
 1355TIP3   OH225623   1.282   6.433   8.825 -0.2154  0.8823 -0.0621
 1355TIP3    H125624   1.274   6.349   8.779  0.5400 -0.1207  1.5120
 1355TIP3    H225625   1.327   6.490   8.764  1.2508 -0.5689 -0.4111
 1356TIP3   OH225626   4.711   0.724   8.755 -0.1767  0.1865  0.5581
 1356TIP3    H125627   4.725   0.694   8.844  0.1556 -4.9789 -0.9139
 1356TIP3    H225628   4.794   0.766   8.730  2.0267 -3.4339  1.0949
 1357TIP3   OH225629   3.916   5.920   6.497 -0.2587  0.5185  0.5857
 1357TIP3    H125630   3.970   5.982   6.448 -1.0890  1.5958  0.9812
 1357TIP3    H225631   3.963   5.837   6.492 -0.8481  0.2820 -2.9853
 1358TIP3   OH225632   5.802   1.800   8.453 -0.3592  0.0168 -0.0683
 1358TIP3    H125633   5.801   1.895   8.457  1.6428  0.0136  2.2792
 1358TIP3    H225634   5.776   1.771   8.540  0.4526 -1.5468 -0.2952
 1359TIP3   OH225635   0.781   2.168   0.943 -1.0812  0.2799 -0.6137
 1359TIP3    H125636   0.822   2.195   1.025 -0.0475 -0.3646 -0.9017
 1359TIP3    H225637   0.693   2.142   0.968  0.4274 -4.0383  1.1451
 1360TIP3   OH225638   5.683   3.877   0.223  0.0790 -0.2035 -0.0761
 1360TIP3    H125639   5.594   3.911   0.234  0.0503 -0.1601 -0.4289
 1360TIP3    H225640   5.737   3.956   0.212 -0.0565 -0.2679 -1.3982
 1361TIP3   OH225641   2.192   5.993   6.520  0.3321  0.0889 -1.0119
 1361TIP3    H125642   2.271   6.033   6.558 -0.4591  1.5815 -0.8577
 1361TIP3    H225643   2.124   6.059   6.531 -1.4431 -1.8435  0.5332
 1362TIP3   OH225644   5.936   0.025   7.449  0.2522 -0.1429  0.0351
 1362TIP3    H125645   5.951  -0.056   7.401  1.0863  0.7985 -1.3433
 1362TIP3    H225646   5.893  -0.003   7.530  0.5018 -1.9468 -0.4176
 1363TIP3   OH225647   5.208   6.773   0.247  0.5761 -0.4289  0.6052
 1363TIP3    H125648   5.233   6.806   0.160 -0.5569 -0.5792  0.2021
 1363TIP3    H225649   5.129   6.823   0.269 -2.1233 -3.7353 -0.6933
 1364TIP3   OH225650   1.600   5.416   0.740 -0.2114 -0.9585  0.1899
 1364TIP3    H125651   1.606   5.387   0.831 -0.4071 -1.3589  0.0745
 1364TIP3    H225652   1.623   5.509   0.744  0.8142 -1.2094  0.4986
 1365TIP3   OH225653   1.339   1.285   7.230 -0.3406  0.3371 -0.0094
 1365TIP3    H125654   1.418   1.233   7.214 -0.3670  0.2504  0.1406
 1365TIP3    H225655   1.366   1.351   7.293 -0.1605  0.8657 -0.6254
 1366TIP3   OH225656   6.549   6.010   0.814  0.1879  0.2928  0.8351
 1366TIP3    H125657   6.469   6.040   0.770 -0.5213 -1.6245  0.7371
 1366TIP3    H225658   6.613   6.079   0.796 -1.0365  1.1892 -0.3130
 1367TIP3   OH225659   0.479   5.904   8.132  0.3977  0.1009 -0.0708
 1367TIP3    H125660   0.569   5.879   8.155  0.5627 -0.1127 -0.9114
 1367TIP3    H225661   0.483   5.925   8.038 -0.8382 -1.9785 -0.6669
 1368TIP3   OH225662   0.461   3.294   1.961  0.6286  0.3230 -0.4814
 1368TIP3    H125663   0.520   3.221   1.945  0.7371  0.6825 -1.8331
 1368TIP3    H225664   0.435   3.324   1.874 -1.4838  0.2468  0.0536
 1369TIP3   OH225665   6.693   0.851   2.132  0.5896  0.2647 -0.5690
 1369TIP3    H125666   6.724   0.932   2.172 -0.2149  0.1362  0.3373
 1369TIP3    H225667   6.635   0.812   2.197  0.0287 -0.4477 -1.4632
 1370TIP3   OH225668   4.179   3.102   8.090  0.2827 -0.8931 -0.4123
 1370TIP3    H125669   4.228   3.119   8.170  1.5182 -0.0713 -1.3137
 1370TIP3    H225670   4.088   3.094   8.120  0.5349  0.6103  0.9381
 1371TIP3   OH225671   0.400   0.263   8.425 -0.0636 -0.0456 -0.5324
 1371TIP3    H125672   0.373   0.327   8.490  1.5979 -0.7271  0.9270
 1371TIP3    H225673   0.467   0.308   8.374  0.9686 -0.5107  0.3715
 1372TIP3   OH225674   1.413   5.221   8.261 -0.0948  0.1355  0.2385
 1372TIP3    H125675   1.402   5.133   8.297  1.6637  0.0823  0.7394
 1372TIP3    H225676   1.469   5.266   8.324 -0.6446  1.4986 -0.2093
 1373TIP3   OH225677   3.052   1.166   1.198  0.4403 -0.2410 -0.1386
 1373TIP3    H125678   3.054   1.073   1.221  2.1678 -0.1779  0.1347
 1373TIP3    H225679   3.079   1.210   1.278 -0.4535  0.5155 -0.2446
 1374TIP3   OH225680   2.903   3.345   7.304  0.2116  0.2778  0.2344
 1374TIP3    H125681   2.915   3.410   7.374  1.1450  1.1733 -0.7127
 1374TIP3    H225682   2.808   3.343   7.290  0.1924  1.9815 -0.1653
 1375TIP3   OH225683   6.519   3.587   7.928 -0.2378 -0.4528  0.3718
 1375TIP3    H125684   6.495   3.676   7.956 -0.5117 -0.0113 -1.1539
 1375TIP3    H225685   6.586   3.559   7.991  0.8502  1.3759  0.1179
 1376TIP3   OH225686   2.164   2.077   1.298 -0.2519 -0.3071 -0.6352
 1376TIP3    H125687   2.121   2.133   1.362 -1.0958 -1.0322 -0.5542
 1376TIP3    H225688   2.144   2.118   1.213 -0.6422 -0.3310 -0.5564
 1377TIP3   OH225689   4.948   5.810   8.828  0.0766  0.4435  0.5041
 1377TIP3    H125690   4.888   5.826   8.901 -1.5458 -0.4734 -0.5647
 1377TIP3    H225691   4.894   5.766   8.761  1.2485  2.0052 -1.6114
 1378TIP3   OH225692   2.638   0.986   7.295  0.1205  0.2291 -0.7469
 1378TIP3    H125693   2.606   0.942   7.374 -0.9442  1.2344 -0.5790
 1378TIP3    H225694   2.728   1.011   7.316 -0.1376  0.4498  0.1491
 1379TIP3   OH225695   5.207   2.296   7.581 -0.5200  0.0888  0.6724
 1379TIP3    H125696   5.117   2.270   7.603 -0.8647  1.4743  1.0648
 1379TIP3    H225697   5.262   2.226   7.617 -1.5256 -2.4067 -2.2935
 1380TIP3   OH225698   3.235   4.022   7.581 -0.0715  0.4716  0.4400
 1380TIP3    H125699   3.199   4.071   7.655 -1.4230 -0.2319  0.2828
 1380TIP3    H225700   3.291   4.084   7.535 -0.4720  1.3807  1.1589
 1381TIP3   OH225701   4.678   6.781   1.296 -0.1553  0.0545  0.1605
 1381TIP3    H125702   4.757   6.826   1.326 -0.7513  0.0682  1.7935
 1381TIP3    H225703   4.610   6.848   1.296 -0.6697 -0.4376  1.0152
 1382TIP3   OH225704   5.520   2.779   7.160 -0.1731 -0.4041 -0.3623
 1382TIP3    H125705   5.480   2.801   7.076  0.6873 -2.1136 -1.2625
 1382TIP3    H225706   5.452   2.730   7.206 -0.8217  0.9586  0.1770
 1383TIP3   OH225707   1.246   1.870   8.168 -0.5233 -0.1342  0.8243
 1383TIP3    H125708   1.338   1.852   8.184 -0.8299 -0.0852  2.9258
 1383TIP3    H225709   1.210   1.787   8.137  0.1971 -0.1635  0.0398
 1384TIP3   OH225710   1.776   5.997   1.579 -0.4369  0.0907 -0.5042
 1384TIP3    H125711   1.709   5.932   1.560 -2.3655  1.4021  1.3271
 1384TIP3    H225712   1.834   5.954   1.642 -0.8101 -0.3322 -0.4470
 1385TIP3   OH225713   3.211   6.515   2.134  0.1077 -0.3549 -0.1906
 1385TIP3    H125714   3.263   6.462   2.194 -0.5896  0.4752  1.1746
 1385TIP3    H225715   3.249   6.603   2.139 -0.2482 -0.1695 -0.6225
 1386TIP3   OH225716   3.081   1.038   0.574 -0.3352  0.0691  0.8115
 1386TIP3    H125717   3.052   1.115   0.524  0.2027  0.0038  0.3891
 1386TIP3    H225718   3.169   1.061   0.605  0.1130 -0.6418  0.0994
 1387TIP3   OH225719   4.927   3.493   1.466 -0.2956  0.0655 -0.6743
 1387TIP3    H125720   4.979   3.535   1.398  0.2367  0.5490  0.0100
 1387TIP3    H225721   4.958   3.533   1.548 -0.7843 -0.6313 -0.1334
 1388TIP3   OH225722   3.076   5.073   6.833  0.3394  0.0638 -0.1203
 1388TIP3    H125723   3.126   5.094   6.911  0.0868  0.4569 -0.0590
 1388TIP3    H225724   3.132   5.013   6.783 -0.2108 -1.6159  1.1776
 1389TIP3   OH225725   5.102   2.854   7.275  0.4311  0.0435  0.0052
 1389TIP3    H125726   5.139   2.942   7.266 -0.6722  0.6448  1.0813
 1389TIP3    H225727   5.012   2.868   7.304 -0.4944 -1.4007 -1.9359
 1390TIP3   OH225728   5.953   3.428   7.462 -1.0569  0.2327  0.2536
 1390TIP3    H125729   5.904   3.486   7.404 -0.4576  2.5723  1.9727
 1390TIP3    H225730   5.902   3.346   7.463 -2.1188  0.8057 -1.9596
 1391TIP3   OH225731   1.698   4.051   1.528  0.1188  0.2008 -0.2655
 1391TIP3    H125732   1.751   4.001   1.465  0.5331  0.4269 -0.1050
 1391TIP3    H225733   1.731   4.025   1.613  0.2919  0.6849 -0.1777
 1392TIP3   OH225734   3.674   4.172   7.872  0.0039 -0.7771 -0.6641
 1392TIP3    H125735   3.689   4.231   7.798  0.4994 -0.6464 -0.4599
 1392TIP3    H225736   3.726   4.094   7.852  2.5638  0.4093  0.9366
 1393TIP3   OH225737   5.468   5.357   7.936  0.1813 -0.6457 -0.0111
 1393TIP3    H125738   5.524   5.409   7.993  0.9941  0.0811 -1.3957
 1393TIP3    H225739   5.518   5.276   7.921 -1.1197 -1.9464  2.2100
 1394TIP3   OH225740   0.538   6.706   6.429  0.0458  0.3885 -0.2127
 1394TIP3    H125741   0.538   6.683   6.336  0.3831 -1.0163  0.1075
 1394TIP3    H225742   0.630   6.723   6.449 -0.2820  3.1877 -0.6621
 1395TIP3   OH225743   3.277   4.526   7.202  0.1237  0.6434 -0.1949
 1395TIP3    H125744   3.310   4.563   7.120  0.2463  0.3819 -0.2639
 1395TIP3    H225745   3.287   4.597   7.266 -0.1600  0.9131 -0.4500
 1396TIP3   OH225746   1.806   3.416   2.100 -0.2379  0.9322  0.3224
 1396TIP3    H125747   1.846   3.423   2.186 -1.6751  2.4041  0.9347
 1396TIP3    H225748   1.714   3.439   2.114 -0.1957  2.8188 -1.8083
 1397TIP3   OH225749   5.626   2.835   1.481 -0.1084  0.1968 -0.1677
 1397TIP3    H125750   5.639   2.804   1.571  1.1539  0.5524 -0.2049
 1397TIP3    H225751   5.575   2.915   1.491 -0.8195 -0.2833  0.1482
 1398TIP3   OH225752   5.941   3.257   7.838  0.2064 -0.2387  0.0830
 1398TIP3    H125753   5.955   3.224   7.927  0.9721 -0.2383 -0.0295
 1398TIP3    H225754   6.016   3.223   7.789  0.6994  1.1759 -0.1780
 1399TIP3   OH225755   1.023   4.735   8.402 -0.3228  0.1469  0.2605
 1399TIP3    H125756   1.030   4.717   8.496 -2.7026  0.9425  0.6393
 1399TIP3    H225757   1.075   4.814   8.389  2.5309 -1.5611  0.2605
 1400TIP3   OH225758   6.325   6.471   7.222 -0.3087  0.1694  0.4067
 1400TIP3    H125759   6.348   6.542   7.163 -0.4093  0.6794  0.9617
 1400TIP3    H225760   6.408   6.439   7.256 -0.2852  0.3144  0.4858
 1401TIP3   OH225761   3.034   3.502   8.388 -0.3624 -0.2056 -0.0990
 1401TIP3    H125762   3.079   3.498   8.303 -0.4610 -0.3409 -0.1446
 1401TIP3    H225763   2.989   3.417   8.395  1.1097 -0.9418  0.9043
 1402TIP3   OH225764   6.686   3.894   8.014 -0.2060  0.3793  0.4597
 1402TIP3    H125765   6.607   3.912   8.066  0.9352  2.0146  1.7294
 1402TIP3    H225766   6.709   3.979   7.976  1.8671  0.3387  1.4980
 1403TIP3   OH225767   4.951   3.535   0.274  0.2234  0.1868  0.4490
 1403TIP3    H125768   4.938   3.626   0.245 -0.2051  0.2110  0.7023
 1403TIP3    H225769   4.891   3.526   0.349 -0.7177 -0.6961 -0.3875
 1404TIP3   OH225770   2.237   5.423   1.224  0.0163 -1.0130  0.1037
 1404TIP3    H125771   2.180   5.423   1.301 -0.3902  1.2624 -0.1331
 1404TIP3    H225772   2.322   5.451   1.257 -0.0254 -0.5319 -0.2025
 1405TIP3   OH225773   2.037   0.668   0.006  0.4930  0.3760  1.1516
 1405TIP3    H125774   1.969   0.607   0.035  0.6599  1.0199  2.9990
 1405TIP3    H225775   1.991   0.751  -0.006  0.4949  0.2070 -0.1746
 1406TIP3   OH225776   5.665   6.310   0.030 -0.1292  0.2620  0.1770
 1406TIP3    H125777   5.759   6.298   0.013 -0.2237 -0.6383  0.2540
 1406TIP3    H225778   5.630   6.221   0.033 -1.1021  0.6148 -0.4440
 1407TIP3   OH225779   4.666   0.507   1.196 -0.0281 -0.4677 -0.1256
 1407TIP3    H125780   4.593   0.510   1.258  0.6469 -1.4455  0.7474
 1407TIP3    H225781   4.743   0.526   1.249  0.2720  1.6964 -1.2513
 1408TIP3   OH225782   5.013   2.937   7.784 -0.7488  0.1463  0.1522
 1408TIP3    H125783   5.020   3.026   7.818 -0.3675 -0.4700  1.8108
 1408TIP3    H225784   5.047   2.942   7.695  0.1321  1.4832  0.5356
 1409TIP3   OH225785   4.630   2.232   1.279 -0.6154 -0.1512  0.3842
 1409TIP3    H125786   4.678   2.167   1.226  0.6865  0.3268  0.9356
 1409TIP3    H225787   4.576   2.179   1.337 -0.5073 -0.7245 -0.0228
 1410TIP3   OH225788   6.800   1.351   1.916 -0.0691 -0.4713  0.4053
 1410TIP3    H125789   6.722   1.404   1.935  1.4657  2.3623 -0.5495
 1410TIP3    H225790   6.835   1.328   2.002 -0.7385  0.2061  0.8725
 1411TIP3   OH225791   5.846   1.244   1.459 -0.4771 -0.5175  0.2876
 1411TIP3    H125792   5.886   1.218   1.542  0.5262  1.9888  0.6766
 1411TIP3    H225793   5.763   1.196   1.457 -0.2207 -1.1762  2.4067
 1412TIP3   OH225794   1.427   1.508   1.140 -0.2202  1.1588  0.4340
 1412TIP3    H125795   1.459   1.561   1.067 -1.6638  1.0265 -0.3278
 1412TIP3    H225796   1.349   1.554   1.171 -1.3119 -0.3207 -0.0175
 1413TIP3   OH225797   1.022   3.753   1.831 -0.1990 -0.4618  0.8046
 1413TIP3    H125798   0.964   3.786   1.763 -0.6527  0.8198  1.7895
 1413TIP3    H225799   0.964   3.725   1.901  0.3356  1.0925  1.9175
 1414TIP3   OH225800   0.864   1.063   0.717  0.3930  0.7446 -0.1227
 1414TIP3    H125801   0.778   1.102   0.731 -0.0893 -0.5012  0.4850
 1414TIP3    H225802   0.862   1.033   0.626  0.0847  0.4713 -0.0254
 1415TIP3   OH225803   6.628   0.897   7.984  0.2856 -0.0908  0.2913
 1415TIP3    H125804   6.599   0.807   7.997  0.8053 -0.4161 -0.6594
 1415TIP3    H225805   6.653   0.927   8.071  2.9704 -1.9068  0.2739
 1416TIP3   OH225806   3.570   4.369   1.273 -0.2918 -0.4760  0.1097
 1416TIP3    H125807   3.637   4.363   1.340  0.7907 -0.7513 -0.9626
 1416TIP3    H225808   3.583   4.455   1.233 -1.2778 -0.0880  0.5875
 1417TIP3   OH225809   5.344   4.477   6.912  0.7281 -0.0092  0.5885
 1417TIP3    H125810   5.421   4.430   6.879  0.5093 -0.6202  0.9484
 1417TIP3    H225811   5.375   4.567   6.923  0.9291  0.1248 -0.8611
 1418TIP3   OH225812   2.754   1.227   0.639 -0.3788 -0.2655  0.4842
 1418TIP3    H125813   2.688   1.189   0.580  0.8789 -2.4755  0.3763
 1418TIP3    H225814   2.759   1.165   0.712  1.9075 -0.4563  0.2337
 1419TIP3   OH225815   2.283   2.238   6.595 -0.4295 -0.2933 -0.5631
 1419TIP3    H125816   2.188   2.229   6.591 -0.5784  0.9956 -0.2970
 1419TIP3    H225817   2.313   2.158   6.639 -1.2702 -1.2517 -1.6663
 1420TIP3   OH225818   1.785   0.631   0.458 -0.0598  0.0315  0.7079
 1420TIP3    H125819   1.830   0.643   0.542  0.7708 -1.0694  0.4352
 1420TIP3    H225820   1.847   0.661   0.392  0.2585 -1.3827  0.3377
 1421TIP3   OH225821   5.366   2.988   8.727 -0.4133 -0.2877 -0.7726
 1421TIP3    H125822   5.448   3.023   8.761 -0.4539 -1.2147  0.3617
 1421TIP3    H225823   5.360   2.900   8.765 -2.3233  0.0605 -0.1701
 1422TIP3   OH225824   1.748   0.694   0.095 -0.3618 -0.0223  0.2104
 1422TIP3    H125825   1.719   0.770   0.044 -0.5831  0.5029  1.1073
 1422TIP3    H225826   1.769   0.729   0.181 -2.3649 -1.2584  1.2813
 1423TIP3   OH225827   6.368   0.823   1.301 -0.2634  0.3774 -0.0962
 1423TIP3    H125828   6.313   0.883   1.252 -2.1382 -0.2404  1.1285
 1423TIP3    H225829   6.369   0.742   1.249 -1.4955  0.0191  0.4078
 1424TIP3   OH225830   5.826   2.862   1.301 -0.2630  0.1058 -1.0902
 1424TIP3    H125831   5.790   2.951   1.306 -2.4589 -0.6028 -2.6177
 1424TIP3    H225832   5.760   2.807   1.345  2.3693 -0.5853  2.4242
 1425TIP3   OH225833   1.030   0.359   8.099  0.2137  0.2552 -0.1664
 1425TIP3    H125834   0.939   0.332   8.113  0.1801 -0.3508 -1.4104
 1425TIP3    H225835   1.050   0.331   8.009  1.3007  1.2972 -0.2776
 1426TIP3   OH225836   1.763   5.997   1.238 -0.1585 -0.2868  0.5032
 1426TIP3    H125837   1.763   5.921   1.297 -0.9946 -0.8778 -0.2243
 1426TIP3    H225838   1.839   6.048   1.265 -0.0810 -0.9369  1.5851
 1427TIP3   OH225839   5.037   6.316   0.829  0.1806  0.1807 -0.4572
 1427TIP3    H125840   5.053   6.393   0.773 -3.2431  1.2081 -0.2669
 1427TIP3    H225841   5.107   6.255   0.806  2.3368  2.8295 -1.5385
 1428TIP3   OH225842   6.331   4.274   8.102 -0.2778  0.6132  0.0041
 1428TIP3    H125843   6.375   4.321   8.173  1.8650 -0.8216 -0.2429
 1428TIP3    H225844   6.243   4.258   8.134 -0.5014  3.1243  0.8174
 1429TIP3   OH225845   6.164   3.933   0.803  0.9305  0.0397 -0.2707
 1429TIP3    H125846   6.238   3.874   0.788 -1.0075 -2.1887 -1.7605
 1429TIP3    H225847   6.145   3.971   0.717  2.5404  3.5541  0.7490
 1430TIP3   OH225848   1.420   5.010   1.852 -0.0428  0.0428  0.4994
 1430TIP3    H125849   1.498   5.065   1.865  0.2556  0.4379 -2.4082
 1430TIP3    H225850   1.455   4.924   1.828 -0.4533  0.3491 -1.2899
 1431TIP3   OH225851   0.740   6.195   0.657 -0.4206  0.1084  0.0027
 1431TIP3    H125852   0.763   6.214   0.748  0.8659 -1.1365 -0.0252
 1431TIP3    H225853   0.823   6.168   0.617 -1.2280 -0.7366 -1.1650
 1432TIP3   OH225854   4.168   3.302   8.576  1.0054 -0.6295  0.4887
 1432TIP3    H125855   4.192   3.379   8.524  3.1987  0.6298  3.1142
 1432TIP3    H225856   4.250   3.255   8.589  0.2860 -1.6374  1.6540
 1433TIP3   OH225857   3.249   3.625   5.946 -0.6252  0.1862 -0.0553
 1433TIP3    H125858   3.283   3.659   6.028  0.2746 -1.1423  0.1638
 1433TIP3    H225859   3.179   3.565   5.972  1.0472 -1.8722 -0.0524
 1434TIP3   OH225860   5.576   5.603   8.075  0.3341  0.0189  0.0634
 1434TIP3    H125861   5.495   5.648   8.099 -0.4582 -1.0536 -0.4765
 1434TIP3    H225862   5.600   5.640   7.990  0.5464  0.5129  0.3391
 1435TIP3   OH225863   0.286   0.677   0.546  0.2628  0.7501  0.4047
 1435TIP3    H125864   0.299   0.611   0.478  0.6487 -1.2076  2.2375
 1435TIP3    H225865   0.218   0.735   0.511 -0.5180 -0.9633 -1.1032
 1436TIP3   OH225866   1.931   2.464   6.818 -0.5608 -0.2726 -0.7888
 1436TIP3    H125867   1.918   2.551   6.854 -0.4508 -0.6935  0.3229
 1436TIP3    H225868   2.007   2.429   6.866 -0.1228 -0.6976 -1.7565
 1437TIP3   OH225869   5.947   0.140   0.601  0.1653 -0.0214  0.1710
 1437TIP3    H125870   5.899   0.103   0.675 -0.6580 -1.0012 -0.7963
 1437TIP3    H225871   5.882   0.144   0.531  0.9613  0.7213 -0.5440
 1438TIP3   OH225872   6.621   3.587   8.193  0.2083  0.3851 -0.1863
 1438TIP3    H125873   6.674   3.578   8.273 -1.0922 -1.5010  0.5350
 1438TIP3    H225874   6.571   3.668   8.206  0.1641  0.2050  0.8193
 1439TIP3   OH225875   5.841   2.507   7.271 -0.3336  0.3259 -0.1501
 1439TIP3    H125876   5.849   2.598   7.298 -1.7031  0.4288 -0.0249
 1439TIP3    H225877   5.819   2.511   7.178  1.0581  0.0659 -0.5101
 1440TIP3   OH225878   1.601   1.911   1.917 -0.0581  0.0626  0.5571
 1440TIP3    H125879   1.659   1.976   1.875 -1.2621  1.2140  0.6077
 1440TIP3    H225880   1.608   1.931   2.010 -1.6287  1.1945  0.4645
 1441TIP3   OH225881   0.891   1.119   1.441 -0.4138 -0.3285  0.2187
 1441TIP3    H125882   0.931   1.096   1.525  2.2242  0.4116 -0.7207
 1441TIP3    H225883   0.913   1.046   1.384 -0.3719  0.1024 -0.3237
 1442TIP3   OH225884   3.377   5.858   0.677  0.3268 -0.2831  0.3498
 1442TIP3    H125885   3.403   5.927   0.738  1.9929  0.3060 -0.9729
 1442TIP3    H225886   3.442   5.789   0.691  0.1114 -0.5677 -0.0591
 1443TIP3   OH225887   2.043   5.210   8.216  0.3721 -0.2731 -0.3521
 1443TIP3    H125888   2.125   5.170   8.247  0.0981 -1.0465 -0.6129
 1443TIP3    H225889   2.022   5.276   8.282 -0.6207 -2.4177  1.5839
 1444TIP3   OH225890   0.445   4.442   6.194 -0.5790 -0.7334 -0.2287
 1444TIP3    H125891   0.528   4.487   6.207 -0.7914  0.4088 -2.3751
 1444TIP3    H225892   0.457   4.393   6.113 -1.8258 -0.9723 -0.2847
 1445TIP3   OH225893   6.195   3.148   0.915  0.0289  1.0327  0.4176
 1445TIP3    H125894   6.255   3.205   0.964 -1.3010  1.2479  1.8848
 1445TIP3    H225895   6.220   3.161   0.823  2.8040  0.4145  0.9859
 1446TIP3   OH225896   3.942   2.313   8.720  0.1916  0.1787  0.0828
 1446TIP3    H125897   3.910   2.356   8.641  0.1708  1.7093  0.8717
 1446TIP3    H225898   3.992   2.238   8.689  0.5792  1.0167 -1.4169
 1447TIP3   OH225899   0.361   3.835   6.774  0.0307  0.3703  0.1594
 1447TIP3    H125900   0.348   3.742   6.791  1.1160  0.0456 -0.6165
 1447TIP3    H225901   0.447   3.854   6.812  0.2942  0.7882 -0.6236
 1448TIP3   OH225902   5.829   3.493   0.270 -0.2405 -0.8454 -0.2668
 1448TIP3    H125903   5.842   3.420   0.330 -2.7063 -2.3989 -1.4614
 1448TIP3    H225904   5.781   3.558   0.322  2.6067  0.4062  1.0235
 1449TIP3   OH225905   2.877   4.982   8.682  0.1752  0.3448 -0.6326
 1449TIP3    H125906   2.918   4.911   8.632 -0.4417  2.1817 -4.0190
 1449TIP3    H225907   2.950   5.028   8.723  0.5661 -2.3178  2.0383
 1450TIP3   OH225908   0.265   4.654   8.278  0.2185  0.6544  0.2992
 1450TIP3    H125909   0.237   4.572   8.318 -0.9184  1.6914  1.7793
 1450TIP3    H225910   0.210   4.663   8.200 -0.1545  0.3412  0.5218
 1451TIP3   OH225911   5.980   2.721   0.878 -0.1666 -0.3400  0.6037
 1451TIP3    H125912   5.987   2.751   0.787  0.6298  0.1414  0.8117
 1451TIP3    H225913   6.030   2.639   0.880  0.6219  0.1383  0.8116
 1452TIP3   OH225914   5.885   6.356   0.566 -0.1038 -0.0229 -0.1831
 1452TIP3    H125915   5.863   6.294   0.497  1.5157 -1.0767  0.1766
 1452TIP3    H225916   5.890   6.302   0.645  0.8459  0.6305  0.2263
 1453TIP3   OH225917   6.470   5.077   1.685  0.2916  0.3445 -0.2165
 1453TIP3    H125918   6.477   5.158   1.736 -1.5653  1.2434 -1.2813
 1453TIP3    H225919   6.526   5.015   1.730  1.9593  2.2832  0.5284
 1454TIP3   OH225920   2.706   5.180   0.320  0.4893  0.1677 -0.1298
 1454TIP3    H125921   2.660   5.214   0.242  1.9403  1.8159 -0.3180
 1454TIP3    H225922   2.781   5.133   0.284 -0.4684 -1.7045  0.2147
 1455TIP3   OH225923   2.831   5.572   0.979 -0.1887 -0.2872  0.2947
 1455TIP3    H125924   2.839   5.581   1.074  1.4260 -3.0772  0.5232
 1455TIP3    H225925   2.830   5.662   0.946 -0.5549  0.7339  2.9113
 1456TIP3   OH225926   1.942   4.552   2.478 -0.6159 -0.0804  0.4325
 1456TIP3    H125927   2.019   4.536   2.423  0.7175  0.3091  2.0934
 1456TIP3    H225928   1.901   4.466   2.487 -1.6991  0.0577 -2.2472
 1457TIP3   OH225929   4.345   0.048   1.617  0.0515 -0.0616 -0.3280
 1457TIP3    H125930   4.369   0.009   1.533  0.7389  0.3225 -0.3179
 1457TIP3    H225931   4.272   0.107   1.597  0.7210  0.6240 -0.7944
 1458TIP3   OH225932   0.542   3.484   0.048  0.1398 -0.2992 -0.1472
 1458TIP3    H125933   0.565   3.537  -0.029  1.6944 -0.4916  0.1524
 1458TIP3    H225934   0.503   3.546   0.109 -0.4347 -0.0031 -0.8062
 1459TIP3   OH225935   6.515   0.019   0.271  0.1654  0.6181 -0.1472
 1459TIP3    H125936   6.510  -0.063   0.221 -0.5373 -0.0637  1.0175
 1459TIP3    H225937   6.433   0.023   0.320  1.2282  0.7513  1.7178
 1460TIP3   OH225938   3.040   1.000   8.729 -0.4859 -0.6958 -0.4473
 1460TIP3    H125939   3.086   1.018   8.811 -0.4950  1.0563 -0.7758
 1460TIP3    H225940   2.975   1.070   8.723  0.0269 -0.3256 -2.3059
 1461TIP3   OH225941   5.919   0.904   1.536  0.4347 -0.0775  0.1103
 1461TIP3    H125942   5.876   0.819   1.547 -3.3216  1.7526  1.3511
 1461TIP3    H225943   5.961   0.899   1.450  0.1020 -3.0349  0.0201
 1462TIP3   OH225944   5.093   5.093   0.094  0.4510 -0.0029 -0.0922
 1462TIP3    H125945   5.015   5.117   0.044  0.5870  0.1651 -0.2219
 1462TIP3    H225946   5.063   5.088   0.185  0.6055  1.5117  0.0679
 1463TIP3   OH225947   6.770   1.638   8.675  0.1814 -0.8416  0.0880
 1463TIP3    H125948   6.692   1.675   8.632 -0.0654 -0.8091  0.5538
 1463TIP3    H225949   6.735   1.574   8.736  0.3502  0.5867  1.7727
 1464TIP3   OH225950   4.476   2.161   7.462 -0.0970 -0.7358 -0.2464
 1464TIP3    H125951   4.435   2.078   7.483 -0.8124 -0.8519 -1.9410
 1464TIP3    H225952   4.523   2.145   7.380 -0.3880  0.5653 -0.6912
 1465TIP3   OH225953   1.839   5.043   7.980 -0.7173 -0.1364 -0.2365
 1465TIP3    H125954   1.824   5.100   8.054  4.4592 -1.7442  2.5406
 1465TIP3    H225955   1.891   5.095   7.918 -0.4473 -0.2848 -0.1411
 1466TIP3   OH225956   3.245   4.429   1.399  0.4115  0.6834  0.3787
 1466TIP3    H125957   3.307   4.357   1.406 -0.0297  0.3402  0.7959
 1466TIP3    H225958   3.163   4.388   1.372  0.2592  1.0809  0.2217
 1467TIP3   OH225959   6.793   0.154   7.432 -0.1706 -0.1804 -0.6093
 1467TIP3    H125960   6.700   0.174   7.421  0.3674  2.9306 -0.5893
 1467TIP3    H225961   6.820   0.116   7.348 -1.1295  0.5547 -1.2721
 1468TIP3   OH225962   1.616   0.305   8.048 -0.1913 -0.4444  0.3609
 1468TIP3    H125963   1.646   0.287   8.137  0.1800 -1.7617 -0.0085
 1468TIP3    H225964   1.525   0.332   8.058  0.0812  0.2411  1.1923
 1469TIP3   OH225965   5.999   5.245   2.225 -0.2357  0.2227 -0.5318
 1469TIP3    H125966   5.946   5.179   2.269 -0.8542  3.0638  3.5800
 1469TIP3    H225967   6.085   5.238   2.266 -0.4354  2.1145  0.3205
 1470TIP3   OH225968   2.352   5.336   8.378 -0.2866  0.4876 -0.0446
 1470TIP3    H125969   2.408   5.362   8.305 -2.2687  0.6160 -1.6266
 1470TIP3    H225970   2.325   5.247   8.357  0.0775  0.0701  1.1918
 1471TIP3   OH225971   3.705   0.938   0.140 -0.3581  0.4628 -0.6347
 1471TIP3    H125972   3.754   1.017   0.118 -0.0371  0.6352  0.6053
 1471TIP3    H225973   3.771   0.877   0.174 -1.0753  1.1835  2.3693
 1472TIP3   OH225974   5.558   0.932   1.868  0.0343  0.1628 -0.0519
 1472TIP3    H125975   5.572   0.841   1.844  0.9678  0.0451  0.8638
 1472TIP3    H225976   5.646   0.967   1.883 -0.3062  1.2074 -0.3416
 1473TIP3   OH225977   3.824   0.164   8.214  0.4371  0.3117 -0.4415
 1473TIP3    H125978   3.772   0.154   8.294  0.8015  0.5809 -0.1696
 1473TIP3    H225979   3.876   0.083   8.209 -0.4030 -0.2156 -1.0151
 1474TIP3   OH225980   1.709   1.844   0.217 -1.0588  0.0336 -0.1917
 1474TIP3    H125981   1.675   1.773   0.163 -1.8167  1.0578 -1.0928
 1474TIP3    H225982   1.679   1.924   0.174  0.1789  0.9241  0.5354
 1475TIP3   OH225983   2.412   5.448   6.940  0.7838  0.3012 -0.2694
 1475TIP3    H125984   2.407   5.543   6.927  0.5812  0.3282 -0.0088
 1475TIP3    H225985   2.329   5.426   6.982  1.8118  0.3686  1.9420
 1476TIP3   OH225986   4.192   1.103   1.149 -0.1802  0.1745 -0.1228
 1476TIP3    H125987   4.243   1.026   1.123  1.5862  1.2593 -0.0305
 1476TIP3    H225988   4.252   1.155   1.201 -1.0716  2.0266 -0.8547
 1477TIP3   OH225989   6.544   0.028   1.350  0.3194  0.4339 -0.0000
 1477TIP3    H125990   6.578   0.116   1.331  0.1079  0.3185 -0.9869
 1477TIP3    H225991   6.603  -0.007   1.416  1.1532  0.8487 -0.5012
 1478TIP3   OH225992   0.971   1.907   7.627 -0.0758 -0.1763  0.3431
 1478TIP3    H125993   0.990   1.994   7.662  0.2704 -0.3041  0.4695
 1478TIP3    H225994   1.049   1.856   7.646 -0.2763 -0.5129  0.2595
 1479TIP3   OH225995   6.513   6.609   0.077 -0.1178 -0.0458 -0.2398
 1479TIP3    H125996   6.427   6.569   0.087 -0.3058  0.0857 -1.1929
 1479TIP3    H225997   6.508   6.655  -0.007  0.7890  0.2069 -0.1675
 1480TIP3   OH225998   3.454   3.497   1.163 -0.1989  0.2251  0.1493
 1480TIP3    H125999   3.404   3.557   1.107  1.3462 -1.7524 -3.6253
 1480TIP3    H226000   3.524   3.552   1.199 -0.6940  1.3897 -0.5911
 1481TIP3   OH226001   2.005   2.941   8.662 -0.5467 -0.1097  0.1505
 1481TIP3    H126002   2.057   3.007   8.616  0.4422 -1.4513 -0.7384
 1481TIP3    H226003   2.055   2.922   8.741  1.1377 -2.3503 -1.3267
 1482TIP3   OH226004   6.220   1.759   7.966 -0.4295  0.0996  0.5429
 1482TIP3    H126005   6.277   1.818   7.916  0.6121 -2.3017 -1.2841
 1482TIP3    H226006   6.279   1.696   8.006 -1.6714 -1.8569 -0.5423
 1483TIP3   OH226007   5.963   2.486   1.657  0.3585 -0.2208  0.1256
 1483TIP3    H126008   5.910   2.420   1.700  0.3570  0.8437  1.8692
 1483TIP3    H226009   6.047   2.443   1.641  0.0097 -0.9614  0.2447
 1484TIP3   OH226010   2.000   3.291   8.240 -0.2156 -0.3073  0.0110
 1484TIP3    H126011   1.933   3.240   8.285 -0.5264  0.9024  0.9509
 1484TIP3    H226012   2.040   3.229   8.179 -1.4459 -1.3266  0.2098
 1485TIP3   OH226013   3.488   6.009   8.260  0.2169 -0.4598 -0.2620
 1485TIP3    H126014   3.406   6.011   8.211  0.3110  0.9072 -0.4038
 1485TIP3    H226015   3.552   6.050   8.202  0.4245  0.7985  0.8010
 1486TIP3   OH226016   3.137   1.477   1.741  0.8109 -0.3312 -0.3010
 1486TIP3    H126017   3.134   1.541   1.812 -0.5848  0.6820 -1.2008
 1486TIP3    H226018   3.073   1.410   1.766 -0.6100  0.6593 -1.1035
 1487TIP3   OH226019   5.966   0.594   6.515 -0.0028  0.2968  0.2004
 1487TIP3    H126020   5.982   0.597   6.421  2.8922 -0.7625  0.5656
 1487TIP3    H226021   6.020   0.664   6.552 -0.1023 -0.1145  1.1643
 1488TIP3   OH226022   4.523   3.464   2.069 -0.4598  0.1897 -0.0068
 1488TIP3    H126023   4.503   3.532   2.133 -1.9931 -0.7727  0.5858
 1488TIP3    H226024   4.478   3.493   1.989  0.3391  0.7178 -0.2780
 1489TIP3   OH226025   3.778   3.248   0.223  0.5122 -0.4356  0.0376
 1489TIP3    H126026   3.720   3.245   0.298 -1.3634 -1.4223 -1.3694
 1489TIP3    H226027   3.802   3.156   0.208 -0.1735 -0.4114 -1.3170
 1490TIP3   OH226028   1.103   4.617   8.638  0.1522  0.2969 -0.0356
 1490TIP3    H126029   1.165   4.576   8.699  0.0763  0.5402  0.2098
 1490TIP3    H226030   1.121   4.576   8.554  0.4874  0.1950  0.0841
 1491TIP3   OH226031   4.511   5.052   1.644  0.5676 -0.3858  0.2382
 1491TIP3    H126032   4.493   5.057   1.738 -1.3361 -0.0135 -0.0946
 1491TIP3    H226033   4.424   5.058   1.603  1.3784 -0.2525 -1.5539
 1492TIP3   OH226034   3.173   1.971   7.821 -0.4933 -0.3472  0.2254
 1492TIP3    H126035   3.092   1.931   7.854 -0.5099 -0.4133  0.1042
 1492TIP3    H226036   3.181   1.938   7.731 -1.6848  1.6655 -0.6867
 1493TIP3   OH226037   0.081   3.267   8.305  0.3158 -0.5878  0.2671
 1493TIP3    H126038   0.169   3.244   8.337  0.1081  0.5584  1.8086
 1493TIP3    H226039   0.065   3.355   8.341 -0.9436 -0.2282 -1.0828
 1494TIP3   OH226040   5.285   6.763   0.882 -0.2131  0.0453 -0.0829
 1494TIP3    H126041   5.273   6.835   0.820  0.4308  0.9034  0.7557
 1494TIP3    H226042   5.336   6.698   0.834 -1.0558 -0.0053 -0.9516
 1495TIP3   OH226043   4.518   2.055   0.086  0.0890 -0.2466 -0.3065
 1495TIP3    H126044   4.464   2.046   0.164  1.0909 -2.4195  0.2257
 1495TIP3    H226045   4.603   2.085   0.119 -0.0629  0.7894 -0.8295
 1496TIP3   OH226046   3.880   2.511   6.969 -0.4323 -0.2346 -0.0198
 1496TIP3    H126047   3.957   2.502   6.913  0.2192  0.0908  0.8097
 1496TIP3    H226048   3.908   2.567   7.040 -0.6353 -2.2028  1.7113
 1497TIP3   OH226049   2.943   2.903   0.437  0.5679  0.3964 -0.3086
 1497TIP3    H126050   3.009   2.935   0.375  1.4839  0.1691  0.5267
 1497TIP3    H226051   2.944   2.808   0.425  1.1308  0.3064  0.4211
 1498TIP3   OH226052   1.442   2.203   0.392  0.7639  0.3284 -0.1712
 1498TIP3    H126053   1.402   2.145   0.327 -0.2920 -0.6578  1.2885
 1498TIP3    H226054   1.431   2.291   0.356  0.3342 -0.2017 -1.3764
 1499TIP3   OH226055   1.772   2.728   7.566  0.5372  0.9432  0.1459
 1499TIP3    H126056   1.753   2.676   7.489  0.0095  2.0097 -0.4748
 1499TIP3    H226057   1.835   2.676   7.616 -0.1023 -0.3428 -0.3440
 1500TIP3   OH226058   0.241   4.873   8.097 -0.0541 -0.3705 -0.3905
 1500TIP3    H126059   0.150   4.850   8.079 -0.5191  0.3476  0.9129
 1500TIP3    H226060   0.245   4.885   8.192  0.8841  1.7293 -0.6431
 1501TIP3   OH226061   5.033   4.898   7.792  0.7611  0.3105 -0.5088
 1501TIP3    H126062   5.074   4.938   7.869  0.6726  0.3835 -0.4999
 1501TIP3    H226063   4.944   4.933   7.791  0.1259 -1.1232  0.4513
 1502TIP3   OH226064   2.048   3.103   8.030  0.4870  0.4012 -0.5483
 1502TIP3    H126065   2.142   3.118   8.018  0.3050  1.2120 -1.0168
 1502TIP3    H226066   2.012   3.106   7.941  0.2319 -1.4983 -0.5556
 1503TIP3   OH226067   1.616   4.654   7.055  0.1590 -0.2596  0.2715
 1503TIP3    H126068   1.564   4.723   7.096 -0.2751  0.4750 -1.4151
 1503TIP3    H226069   1.699   4.696   7.034 -0.2275 -0.0952 -1.0644
 1504TIP3   OH226070   1.958   2.760   1.350  0.3394 -0.6126  0.2544
 1504TIP3    H126071   1.908   2.817   1.409 -1.1470 -1.4778 -0.1100
 1504TIP3    H226072   1.901   2.748   1.274  0.6962 -2.3681  0.2202
 1505TIP3   OH226073   4.010   4.719   0.364 -0.2712 -0.2103 -0.2825
 1505TIP3    H126074   3.974   4.687   0.281  0.7573 -3.6665  0.4079
 1505TIP3    H226075   4.099   4.746   0.342 -1.2463  2.7952 -0.9322
 1506TIP3   OH226076   2.861   6.069   7.485  0.1089  0.2379  0.1535
 1506TIP3    H126077   2.858   6.024   7.400 -0.9633  0.2496  0.1710
 1506TIP3    H226078   2.944   6.041   7.523  0.5437  0.1205 -0.8351
 1507TIP3   OH226079   5.334   1.468   0.133 -0.1198 -0.3058 -0.1386
 1507TIP3    H126080   5.249   1.511   0.138 -0.2538 -0.5181 -0.5645
 1507TIP3    H226081   5.318   1.387   0.086  0.6111  0.4596 -1.8008
 1508TIP3   OH226082   3.720   1.856   0.571  0.2213 -0.6651 -0.1315
 1508TIP3    H126083   3.748   1.940   0.534 -1.0747  0.4883  1.3176
 1508TIP3    H226084   3.666   1.881   0.646  1.7427 -2.8201  1.8323
 1509TIP3   OH226085   2.618   3.168   1.107 -0.8112 -0.1026 -0.3300
 1509TIP3    H126086   2.637   3.088   1.157 -3.8378 -0.5141  0.3565
 1509TIP3    H226087   2.589   3.137   1.021  0.7789  0.4481 -1.1021
 1510TIP3   OH226088   0.828   1.939   0.538 -0.5199  0.5754 -0.4199
 1510TIP3    H126089   0.786   1.989   0.608 -0.8383 -0.7290  0.3408
 1510TIP3    H226090   0.776   1.859   0.532  0.0848  0.2525 -1.5055
 1511TIP3   OH226091   4.800   1.743   8.611 -0.0951  0.0176  0.1031
 1511TIP3    H126092   4.813   1.665   8.557 -0.9495 -0.1555  0.1378
 1511TIP3    H226093   4.845   1.813   8.563 -0.3690 -0.2476 -0.5439
 1512TIP3   OH226094   6.050   4.768   8.205 -0.2708  0.3821 -0.4368
 1512TIP3    H126095   6.145   4.783   8.209 -0.4104  1.0112  1.1161
 1512TIP3    H226096   6.042   4.680   8.169  0.9712 -0.1697  0.5500
 1513TIP3   OH226097   6.435   1.783   0.437  0.0633  0.6440  0.8605
 1513TIP3    H126098   6.455   1.876   0.440  1.1376  0.4298  0.8994
 1513TIP3    H226099   6.510   1.741   0.479  0.5159 -0.3605 -0.8280
 1514TIP3   OH226100   3.089   4.522   0.926  0.0804  0.1125  0.0618
 1514TIP3    H126101   3.137   4.597   0.961 -0.1321 -0.5154  1.7701
 1514TIP3    H226102   3.124   4.447   0.974 -1.6837 -0.5189  0.4015
 1515TIP3   OH226103   2.668   0.126   0.665 -0.5711  0.4047  0.3190
 1515TIP3    H126104   2.670   0.182   0.588  0.2662 -2.3641 -1.8436
 1515TIP3    H226105   2.761   0.109   0.685 -0.7892  0.5007  1.5098
 1516TIP3   OH226106   3.675   3.699   1.470 -0.0262 -0.2223  0.3057
 1516TIP3    H126107   3.588   3.730   1.444  0.0378 -0.0164  0.3301
 1516TIP3    H226108   3.686   3.733   1.559 -0.1912 -0.8126  0.5532
 1517TIP3   OH226109   2.316   2.702   0.011 -0.1310  0.1073 -0.5562
 1517TIP3    H126110   2.288   2.778  -0.040  2.9760  1.8017 -0.0046
 1517TIP3    H226111   2.254   2.633  -0.012 -2.1027  2.3120 -2.3814
 1518TIP3   OH226112   2.496   3.579   0.965 -0.1938  0.2283 -0.5157
 1518TIP3    H126113   2.415   3.618   0.932 -0.6354 -0.1675  0.0692
 1518TIP3    H226114   2.536   3.648   1.017 -0.0114  0.5160 -1.0301
 1519TIP3   OH226115   4.483   2.337   2.287  0.2611 -0.4361 -0.9166
 1519TIP3    H126116   4.486   2.249   2.250  1.2418  0.0993 -2.1716
 1519TIP3    H226117   4.573   2.355   2.313 -0.3004 -0.6282  1.4651
 1520TIP3   OH226118   6.568   0.899   0.488 -0.0508  0.4313 -0.7188
 1520TIP3    H126119   6.542   0.824   0.541 -0.1097 -1.0523 -2.7177
 1520TIP3    H226120   6.485   0.940   0.464 -0.0652  0.6218 -0.3543
 1521TIP3   OH226121   0.792   2.575   8.359 -0.5398  0.1583  0.1317
 1521TIP3    H126122   0.845   2.553   8.282 -0.0769  0.9439  0.2138
 1521TIP3    H226123   0.703   2.586   8.324 -1.0915 -2.9912  0.2701
 1522TIP3   OH226124   3.233   2.270   1.091  0.0753  0.7842  0.4261
 1522TIP3    H126125   3.188   2.346   1.054 -0.0926  0.3840 -0.2049
 1522TIP3    H226126   3.285   2.235   1.019 -1.3469 -0.8399  0.1049
 1523TIP3   OH226127   2.350   5.219   7.661 -0.5829  0.6324 -0.2859
 1523TIP3    H126128   2.286   5.243   7.728  1.5966  0.9757  1.8065
 1523TIP3    H226129   2.354   5.123   7.665  0.2407  0.6960  0.8210
 1524TIP3   OH226130   4.746   1.616   7.773 -0.0723  0.1198 -0.0028
 1524TIP3    H126131   4.767   1.610   7.866 -2.2582 -0.4298  0.5030
 1524TIP3    H226132   4.676   1.551   7.760  0.2737  0.0910 -2.0621
 1525TIP3   OH226133   1.362   5.723   0.555 -0.1281 -0.1658  0.0240
 1525TIP3    H126134   1.423   5.786   0.593 -0.5012  0.2938 -0.1335
 1525TIP3    H226135   1.303   5.776   0.501  1.0010 -0.8942 -2.0374
 1526TIP3   OH226136   4.488   0.772   8.439  0.2998  0.3198  0.1621
 1526TIP3    H126137   4.495   0.770   8.535  0.6440 -0.3034  0.1307
 1526TIP3    H226138   4.446   0.689   8.417 -0.1587  0.6438 -0.2075
 1527TIP3   OH226139   2.944   5.479   7.473  0.0318 -0.7767 -0.7609
 1527TIP3    H126140   2.916   5.503   7.385  0.1108 -1.5043 -0.9952
 1527TIP3    H226141   2.891   5.401   7.494  0.4956 -1.0117 -0.4407
 1528TIP3   OH226142   1.855   5.916   1.976 -0.0183  0.0150  0.3437
 1528TIP3    H126143   1.784   5.979   1.992 -0.2149  0.3263 -1.5752
 1528TIP3    H226144   1.920   5.938   2.042 -0.8530  1.0540  0.8644
 1529TIP3   OH226145   4.020   5.652   6.996  0.6158  0.2762  0.2025
 1529TIP3    H126146   4.090   5.653   6.931 -0.0420  0.4985 -0.5206
 1529TIP3    H226147   4.017   5.742   7.030  1.0429  0.1288  0.6407
 1530TIP3   OH226148   3.780   4.338   8.085  0.7065 -0.1292  0.1384
 1530TIP3    H126149   3.731   4.274   8.035  2.4101  0.3371 -2.3011
 1530TIP3    H226150   3.714   4.397   8.121 -0.6318 -0.7397 -1.2344
 1531TIP3   OH226151   0.656   1.355   0.082 -0.0583  0.6035 -0.0336
 1531TIP3    H126152   0.662   1.428   0.020  2.7803 -1.5340 -2.5866
 1531TIP3    H226153   0.578   1.307   0.055  0.9349 -0.0897 -1.8618
 1532TIP3   OH226154   1.662   6.080   2.074 -0.4422  0.3752 -0.2995
 1532TIP3    H126155   1.611   6.057   2.152 -2.4725 -2.1214 -2.1780
 1532TIP3    H226156   1.639   6.171   2.057 -0.4356  0.7901  1.6396
 1533TIP3   OH226157   4.567   3.490   1.076 -0.1207  0.9709 -0.2258
 1533TIP3    H126158   4.591   3.543   1.000 -3.0433  1.2339 -1.0899
 1533TIP3    H226159   4.551   3.403   1.040 -2.2118  1.2605 -0.1343
 1534TIP3   OH226160   3.625   4.570   8.067 -0.2244 -0.0902 -0.4021
 1534TIP3    H126161   3.613   4.564   7.972 -0.7060  2.8041 -0.6141
 1534TIP3    H226162   3.702   4.625   8.078 -0.5608  0.1475  0.8947
 1535TIP3   OH226163   4.094   1.342   8.576  0.5116 -0.3056 -0.2943
 1535TIP3    H126164   4.002   1.335   8.603  0.5958 -1.7860 -0.2826
 1535TIP3    H226165   4.143   1.343   8.658  0.4825  1.9544 -0.2397
 1536TIP3   OH226166   2.172   1.596   1.017  0.7707 -0.2192 -0.5938
 1536TIP3    H126167   2.149   1.688   1.004  0.1850  0.1147  2.1511
 1536TIP3    H226168   2.194   1.564   0.929  2.4689  2.9035 -1.4735
 1537TIP3   OH226169   5.142   4.174   6.495  0.4449  0.1850  1.0621
 1537TIP3    H126170   5.195   4.171   6.574  1.8993  1.8534  0.2140
 1537TIP3    H226171   5.084   4.098   6.502  2.3655 -1.2435  2.4301
 1538TIP3   OH226172   0.788   1.085   7.606 -0.1225 -0.6790 -0.1984
 1538TIP3    H126173   0.842   1.156   7.638 -2.2604  1.2962 -0.6964
 1538TIP3    H226174   0.836   1.005   7.630  1.5357  0.8423  1.9394
 1539TIP3   OH226175   0.983   6.183   6.932 -0.1965  0.4847 -0.3764
 1539TIP3    H126176   1.017   6.113   6.877  0.3454 -1.2404  1.9601
 1539TIP3    H226177   0.901   6.148   6.967 -0.0147  1.0676  0.6785
 1540TIP3   OH226178   4.817   3.912   7.879 -0.4594 -0.2530  0.6287
 1540TIP3    H126179   4.806   4.003   7.851  0.2706  0.7100  3.1744
 1540TIP3    H226180   4.727   3.879   7.886 -0.7987  0.6270  0.6664
 1541TIP3   OH226181   4.177   1.587   1.612 -0.2150  0.4506 -0.5263
 1541TIP3    H126182   4.174   1.518   1.679 -3.6074 -0.1986 -1.1813
 1541TIP3    H226183   4.169   1.540   1.529  0.4499  1.4735 -1.1931
 1542TIP3   OH226184   2.710   4.323   0.871 -0.4371 -0.1186 -0.5326
 1542TIP3    H126185   2.621   4.355   0.888 -0.5176 -0.5180 -0.1538
 1542TIP3    H226186   2.767   4.389   0.911 -0.5129  0.7708 -1.8470
 1543TIP3   OH226187   0.901   4.877   1.643  0.6452  0.2598  0.7848
 1543TIP3    H126188   0.924   4.829   1.722 -1.6024 -1.2080  0.6565
 1543TIP3    H226189   0.825   4.929   1.668 -1.6792 -2.0559 -0.8213
 1544TIP3   OH226190   3.331   2.742   0.416 -0.1756 -0.2257  0.0589
 1544TIP3    H126191   3.308   2.695   0.336 -1.2553 -1.3522  1.0106
 1544TIP3    H226192   3.402   2.691   0.455 -0.7025 -0.5468  0.6070
 1545TIP3   OH226193   1.128   1.807   6.532  0.1438  0.0127 -0.5862
 1545TIP3    H126194   1.153   1.900   6.537 -0.6726  0.2983 -1.5588
 1545TIP3    H226195   1.130   1.787   6.438 -0.6646 -0.6755 -0.4631
 1546TIP3   OH226196   4.997   3.503   8.623  0.5719  0.5874  0.4994
 1546TIP3    H126197   4.994   3.420   8.672 -0.0280  0.2641 -0.0742
 1546TIP3    H226198   5.081   3.541   8.647  1.1654 -0.5160  0.2368
 1547TIP3   OH226199   0.442   0.988   0.181  0.0610  0.5941  0.0322
 1547TIP3    H126200   0.528   0.948   0.191 -0.3984 -0.0118  2.1459
 1547TIP3    H226201   0.384   0.936   0.237 -1.4237  1.7392 -0.3547
 1548TIP3   OH226202   3.402   2.323   8.650  0.2067  0.0764 -0.0108
 1548TIP3    H126203   3.317   2.340   8.691  0.2873  2.2771 -0.6467
 1548TIP3    H226204   3.381   2.279   8.568 -0.1444 -1.4659  0.8740
 1549TIP3   OH226205   4.403   3.620   0.029  0.7144  0.1322 -0.8010
 1549TIP3    H126206   4.321   3.572   0.021  0.6757 -0.0716  0.5212
 1549TIP3    H226207   4.436   3.627  -0.061  0.1233 -1.3135 -1.1635
 1550TIP3   OH226208   0.770   3.281   7.632 -0.3312 -0.3329  0.6704
 1550TIP3    H126209   0.865   3.287   7.632 -0.1984 -1.7789  1.8540
 1550TIP3    H226210   0.746   3.266   7.541  0.5877 -0.1778  0.3984
 1551TIP3   OH226211   6.521   4.736   0.490 -0.0723  0.3997  0.2737
 1551TIP3    H126212   6.549   4.708   0.403  1.0916  2.8945 -0.2251
 1551TIP3    H226213   6.426   4.749   0.482 -0.4053 -1.7531  0.1281
 1552TIP3   OH226214   2.456   6.507   0.342  0.6679  0.3638 -0.3832
 1552TIP3    H126215   2.413   6.585   0.378 -1.1152 -1.1652  0.9861
 1552TIP3    H226216   2.458   6.522   0.248 -0.0688  1.8444 -0.1892
 1553TIP3   OH226217   3.299   3.060   6.712 -0.0891  0.0133  0.1029
 1553TIP3    H126218   3.216   3.015   6.696 -0.5481  0.1919  1.7829
 1553TIP3    H226219   3.333   3.079   6.625 -1.7865 -0.1146 -0.6370
 1554TIP3   OH226220   1.937   3.060   6.766 -0.1395 -0.4819  0.2902
 1554TIP3    H126221   1.860   3.114   6.743 -0.6327 -1.4224 -0.3124
 1554TIP3    H226222   1.989   3.057   6.686  0.0609 -0.6216  0.4253
 1555TIP3   OH226223   3.438   1.434   6.361  0.0156 -0.3804 -0.0456
 1555TIP3    H126224   3.531   1.431   6.337  0.3950 -0.5672  1.3817
 1555TIP3    H226225   3.393   1.447   6.278  1.3266 -0.1224 -0.7498
 1556TIP3   OH226226   1.670   2.071   5.989  0.4178  0.3800  0.4931
 1556TIP3    H126227   1.619   2.142   6.028 -0.6923  0.6859 -1.3763
 1556TIP3    H226228   1.606   2.016   5.945  1.5974  0.3150 -1.2664
 1557TIP3   OH226229   5.540   6.568   8.191  0.2814  0.4868 -0.3410
 1557TIP3    H126230   5.574   6.506   8.127 -0.9732 -1.3886  0.7017
 1557TIP3    H226231   5.617   6.602   8.235  1.0115 -0.3912 -0.8981
 1558TIP3   OH226232   6.566   3.038   0.252  0.5092 -0.1575  0.5102
 1558TIP3    H126233   6.635   3.092   0.214  0.8814 -0.4408  0.7826
 1558TIP3    H226234   6.563   2.960   0.196 -1.2654  0.9026 -1.0090
 1559TIP3   OH226235   0.388   3.609   2.050 -0.3156 -0.4400 -0.2695
 1559TIP3    H126236   0.481   3.628   2.042 -0.4238  0.2700  0.1053
 1559TIP3    H226237   0.351   3.685   2.094 -0.9939 -0.9364  0.0411
 1560TIP3   OH226238   5.860   6.244   8.388 -0.4524  0.6288  0.4205
 1560TIP3    H126239   5.868   6.335   8.359  1.5971  0.4756  0.2928
 1560TIP3    H226240   5.950   6.220   8.413 -0.6835 -1.7340 -0.7313
 1561TIP3   OH226241   2.963   0.464   7.362  0.2424 -0.1495  0.0065
 1561TIP3    H126242   2.871   0.488   7.358 -0.3499 -2.2215  0.1597
 1561TIP3    H226243   3.003   0.506   7.286 -0.9117  0.4361 -0.2864
 1562TIP3   OH226244   5.508   6.033   8.655  0.2070  0.1111 -0.0734
 1562TIP3    H126245   5.435   6.085   8.624  0.4995  0.1372 -0.7219
 1562TIP3    H226246   5.575   6.042   8.588  1.6213  1.7931  1.4551
 1563TIP3   OH226247   5.082   2.653   0.960 -0.3967  0.1185  0.5709
 1563TIP3    H126248   5.050   2.705   0.886 -1.8761 -0.7506  0.5625
 1563TIP3    H226249   5.092   2.716   1.031  0.7114  0.9073 -0.2409
 1564TIP3   OH226250   6.186   5.380   0.228 -0.0028 -0.0777  0.0270
 1564TIP3    H126251   6.173   5.296   0.184  2.0558  0.3699 -1.5869
 1564TIP3    H226252   6.105   5.428   0.212 -1.1592 -1.6357  0.8448
 1565TIP3   OH226253   2.235   1.037   7.151  0.0536 -0.1107  0.4646
 1565TIP3    H126254   2.248   1.132   7.141 -0.3080  0.0388  1.3118
 1565TIP3    H226255   2.284   0.998   7.078  0.0218  0.7370 -0.0256
 1566TIP3   OH226256   2.382   4.249   8.748 -0.3034 -0.3231  0.7082
 1566TIP3    H126257   2.299   4.210   8.776 -0.2006 -0.7027  0.4885
 1566TIP3    H226258   2.423   4.182   8.693 -1.5217  1.1857 -2.2771
 1567TIP3   OH226259   0.985   2.096   7.173  0.8630  0.1359  0.2092
 1567TIP3    H126260   0.974   2.115   7.080 -0.9012  0.4748  0.4623
 1567TIP3    H226261   1.075   2.123   7.192  0.3238  2.8536 -0.7321
 1568TIP3   OH226262   2.667   1.800   8.161 -0.2193 -0.4230  0.0904
 1568TIP3    H126263   2.587   1.833   8.119 -1.2667 -3.2221 -0.2988
 1568TIP3    H226264   2.721   1.878   8.173 -3.1246  1.6664  0.6956
 1569TIP3   OH226265   6.784   1.092   8.545  0.0535  0.3150 -0.0597
 1569TIP3    H126266   6.765   1.031   8.474 -1.1677  1.8312 -1.1238
 1569TIP3    H226267   6.698   1.129   8.568  0.4136 -0.1713  2.2774
 1570TIP3   OH226268   5.694   2.925   0.086  0.2660 -0.3538 -0.0584
 1570TIP3    H126269   5.694   3.000   0.025  0.8466  0.4963  0.9567
 1570TIP3    H226270   5.688   2.848   0.029  2.3188  0.3400 -1.3275
 1571TIP3   OH226271   5.782   1.423   0.979 -0.0212  0.7020 -0.0740
 1571TIP3    H126272   5.746   1.468   1.055 -1.1499  0.5028 -0.4638
 1571TIP3    H226273   5.791   1.491   0.912 -0.8001  0.5404 -0.3503
 1572TIP3   OH226274   4.085   3.620   1.707  0.1217 -0.3999 -0.0669
 1572TIP3    H126275   4.043   3.686   1.762  1.1530 -0.1830  0.4939
 1572TIP3    H226276   4.020   3.551   1.698 -0.2738 -0.1798  0.9734
 1573TIP3   OH226277   3.491   4.365   0.293 -0.0704 -0.3345 -0.3277
 1573TIP3    H126278   3.548   4.435   0.262  1.2461 -0.9113  0.6716
 1573TIP3    H226279   3.410   4.409   0.319  0.1812  0.6000 -1.0821
 1574TIP3   OH226280   2.181   6.156   7.641 -0.0570 -0.4703 -0.6102
 1574TIP3    H126281   2.263   6.193   7.608  0.4486  1.8903  2.7304
 1574TIP3    H226282   2.207   6.075   7.684  0.6483  0.3638  0.6074
 1575TIP3   OH226283   0.749   6.207   2.247  0.2445  0.1275  0.3012
 1575TIP3    H126284   0.804   6.238   2.319  1.2111  0.3705 -0.5141
 1575TIP3    H226285   0.754   6.112   2.252  1.4957  0.1391 -0.2954
 1576TIP3   OH226286   1.457   0.969   8.680 -0.0485  0.6256 -0.1709
 1576TIP3    H126287   1.472   0.943   8.772 -1.2956 -0.0518 -0.1378
 1576TIP3    H226288   1.377   1.021   8.682  0.1643  0.9879 -0.8222
 1577TIP3   OH226289   4.351   1.676   7.828 -0.2141  0.1801  0.4701
 1577TIP3    H126290   4.256   1.661   7.825  0.0867 -2.0406  0.8803
 1577TIP3    H226291   4.388   1.592   7.854  1.8860  1.0285  0.3789
 1578TIP3   OH226292   5.552   1.905   1.098  0.1072 -0.6184  0.4094
 1578TIP3    H126293   5.647   1.905   1.088  0.1494 -1.1226  0.7843
 1578TIP3    H226294   5.534   1.830   1.155 -0.5322 -0.6409  0.1820
 1579TIP3   OH226295   1.411   5.312   0.565  0.1916  0.6403  0.8431
 1579TIP3    H126296   1.424   5.359   0.483 -1.1086 -0.2347  0.0929
 1579TIP3    H226297   1.494   5.321   0.612  0.9640  1.1511 -0.5746
 1580TIP3   OH226298   1.347   2.157   0.670 -0.0344  0.0113 -0.1075
 1580TIP3    H126299   1.377   2.066   0.671  0.1441  0.0205 -1.7033
 1580TIP3    H226300   1.373   2.190   0.583 -0.8867  1.3126  0.1032
 1581TIP3   OH226301   5.436   4.107   2.230  0.5350  0.2220 -0.3610
 1581TIP3    H126302   5.407   4.165   2.159  0.0735 -1.0523 -1.2518
 1581TIP3    H226303   5.417   4.157   2.310 -0.7204  0.9265 -1.0597
 1582TIP3   OH226304   5.749   5.130   0.688  0.1518  0.3965 -0.7617
 1582TIP3    H126305   5.680   5.196   0.690  0.5629  0.8303  0.8925
 1582TIP3    H226306   5.703   5.047   0.684 -0.6695  0.5390  2.6388
 1583TIP3   OH226307   2.637   4.073   1.458 -0.5952 -0.0787 -0.2326
 1583TIP3    H126308   2.635   4.027   1.542  0.3332 -2.3482 -1.3736
 1583TIP3    H226309   2.587   4.154   1.474 -3.2137 -1.8860  1.6332
 1584TIP3   OH226310   3.618   5.181   6.303 -0.4925  0.0262 -0.1256
 1584TIP3    H126311   3.662   5.211   6.383 -0.9877 -0.9383  0.5352
 1584TIP3    H226312   3.532   5.222   6.307 -0.3416  0.3729 -0.4228
 1585TIP3   OH226313   3.186   0.243   8.680 -0.2495 -0.1715  0.0600
 1585TIP3    H126314   3.251   0.173   8.677  1.1043  1.0592 -0.6963
 1585TIP3    H226315   3.102   0.199   8.665  0.3704 -1.8016  1.0954
 1586TIP3   OH226316   5.578   3.669   0.839 -0.6193  0.2520  0.4367
 1586TIP3    H126317   5.593   3.710   0.754  2.0841 -1.3722  0.0195
 1586TIP3    H226318   5.590   3.576   0.824 -0.6044 -0.1432  2.5052
 1587TIP3   OH226319   0.970   2.926   7.044  0.3435  0.2286 -0.3154
 1587TIP3    H126320   0.980   3.004   7.100 -0.0560  0.4591 -0.5624
 1587TIP3    H226321   1.005   2.855   7.097  2.5748  0.8609 -0.8270
 1588TIP3   OH226322   3.762   3.752   0.869 -0.6147 -0.5609  0.0485
 1588TIP3    H126323   3.764   3.824   0.931  2.7502 -1.3232  1.0222
 1588TIP3    H226324   3.782   3.792   0.784 -1.0438 -0.0878  0.1662
 1589TIP3   OH226325   0.157   1.640   0.483 -0.1743 -0.3366 -0.3209
 1589TIP3    H126326   0.120   1.666   0.399 -0.9576 -0.5182 -0.0376
 1589TIP3    H226327   0.119   1.554   0.501  2.0731 -1.5872 -1.0725
 1590TIP3   OH226328   3.716   1.186   1.771 -0.5296  0.3217  0.3443
 1590TIP3    H126329   3.677   1.106   1.735  0.1177  0.6901 -1.2437
 1590TIP3    H226330   3.789   1.155   1.825 -1.3434 -0.2265  1.1541
 1591TIP3   OH226331   6.193   1.148   0.132 -0.0835  0.1712  0.9782
 1591TIP3    H126332   6.169   1.060   0.162 -0.3083 -0.5414 -1.0948
 1591TIP3    H226333   6.277   1.136   0.087 -0.9196  0.6231 -0.8226
 1592TIP3   OH226334   0.520   3.594   7.335 -0.4934 -0.4229  0.4324
 1592TIP3    H126335   0.567   3.663   7.288  2.4352 -2.5359 -0.0085
 1592TIP3    H226336   0.480   3.542   7.266 -1.1877 -0.2042  0.6652
 1593TIP3   OH226337   5.684   3.706   6.442 -0.1654  0.1446  0.1863
 1593TIP3    H126338   5.640   3.791   6.448  2.7618  1.7397  0.5203
 1593TIP3    H226339   5.704   3.696   6.348 -0.1588 -0.0010  0.2020
 1594TIP3   OH226340   0.501   2.588   7.562  0.2246  0.5255 -0.4856
 1594TIP3    H126341   0.445   2.516   7.590  0.5225  0.6724  0.5110
 1594TIP3    H226342   0.448   2.667   7.574 -0.6564  0.3944 -3.0061
 1595TIP3   OH226343   2.302   0.914   0.175 -0.3456  0.5937  0.0837
 1595TIP3    H126344   2.267   0.825   0.176  1.6755 -0.2781  1.8469
 1595TIP3    H226345   2.386   0.906   0.128 -0.4500  1.7097 -0.3124
 1596TIP3   OH226346   2.865   2.940   1.258  0.0555 -0.1980 -0.9467
 1596TIP3    H126347   2.824   2.867   1.212 -1.2568  0.8180 -1.4594
 1596TIP3    H226348   2.808   2.957   1.332 -0.1624  0.8672 -1.3369
 1597TIP3   OH226349   4.608   5.368   8.027 -0.5120  1.1079 -0.2031
 1597TIP3    H126350   4.583   5.291   8.077  0.6508  2.1901  2.2247
 1597TIP3    H226351   4.525   5.411   8.006 -1.0881  0.0030 -0.2354
 1598TIP3   OH226352   4.296   5.389   2.334  0.2182  0.5704  0.2237
 1598TIP3    H126353   4.335   5.331   2.269  0.4245  0.8237  0.1215
 1598TIP3    H226354   4.309   5.344   2.417  0.3648  0.4616  0.1421
 1599TIP3   OH226355   6.723   1.441   0.048  0.2506  0.1256 -0.2136
 1599TIP3    H126356   6.631   1.414   0.053 -0.1873  1.4901 -0.5857
 1599TIP3    H226357   6.772   1.361   0.066 -1.0142 -0.4878  0.6744
 1600TIP3   OH226358   3.265   1.045   1.703 -0.1594 -0.1726 -0.0484
 1600TIP3    H126359   3.320   1.064   1.627 -1.2155  1.0814 -0.5319
 1600TIP3    H226360   3.286   0.954   1.725 -1.1005 -1.2196 -2.9493
 1601TIP3   OH226361   3.125   1.471   7.585  0.2059 -0.0639 -0.7495
 1601TIP3    H126362   3.125   1.480   7.489  2.2416 -0.6699 -0.8554
 1601TIP3    H226363   3.072   1.394   7.602  0.3178 -0.3034 -1.4396
 1602TIP3   OH226364   4.401   0.377   1.769  0.4537 -0.2288  0.7056
 1602TIP3    H126365   4.497   0.379   1.779  0.5502  0.6443 -0.1990
 1602TIP3    H226366   4.387   0.345   1.680  0.0047  1.9867 -0.0714
 1603TIP3   OH226367   5.757   3.265   1.486 -0.2710  0.9876 -0.4235
 1603TIP3    H126368   5.712   3.347   1.507 -1.0696  0.0124  1.9705
 1603TIP3    H226369   5.754   3.214   1.567  1.0211 -1.0543 -1.5715
 1604TIP3   OH226370   5.917   0.298   7.375 -0.1230  0.2292 -0.8242
 1604TIP3    H126371   5.851   0.342   7.429  1.1758  0.8666  0.2966
 1604TIP3    H226372   5.893   0.205   7.380 -1.9336  0.6032 -1.8699
 1605TIP3   OH226373   1.328   0.843   7.576 -0.2047  0.4566  0.0825
 1605TIP3    H126374   1.276   0.822   7.499  0.5940  0.2086 -0.4030
 1605TIP3    H226375   1.267   0.888   7.635 -1.0360 -0.1020 -0.3321
 1606TIP3   OH226376   6.573   3.569   0.494 -0.0782 -0.6644  0.5168
 1606TIP3    H126377   6.665   3.579   0.468  0.1122 -1.5427  0.7950
 1606TIP3    H226378   6.523   3.605   0.421  0.4826 -0.9335 -0.0097
 1607TIP3   OH226379   1.433   4.498   8.426  0.5160  0.3221  0.2412
 1607TIP3    H126380   1.521   4.483   8.394  0.0544 -0.0653 -0.8942
 1607TIP3    H226381   1.411   4.586   8.396  0.1203 -0.0024 -0.4503
 1608TIP3   OH226382   4.610   5.302   6.807  0.3342 -0.6054 -0.3129
 1608TIP3    H126383   4.676   5.369   6.821 -0.9818  0.6664  0.0280
 1608TIP3    H226384   4.609   5.289   6.712  0.3768  0.1019 -0.4129
 1609TIP3   OH226385   5.523   6.274   7.853 -0.2824 -0.3110 -0.0118
 1609TIP3    H126386   5.521   6.301   7.761 -0.1039  1.0134  0.3613
 1609TIP3    H226387   5.431   6.264   7.877 -0.4280  1.3450  0.2170
 1610TIP3   OH226388   0.731   4.548   1.008 -0.2133  0.5401 -0.0282
 1610TIP3    H126389   0.776   4.611   0.952  0.3550  1.3088  1.2459
 1610TIP3    H226390   0.756   4.463   0.973  1.3524  0.9744 -0.0379
 1611TIP3   OH226391   2.103   3.709   7.412 -0.1031 -0.2109  0.5251
 1611TIP3    H126392   2.049   3.713   7.333 -1.2712 -2.3921  1.1422
 1611TIP3    H226393   2.182   3.758   7.389 -0.9700  0.3484 -1.5158
 1612TIP3   OH226394   5.040   6.403   7.032  0.1727  0.0976  0.3297
 1612TIP3    H126395   5.016   6.311   7.038 -0.8292  0.3397  0.2069
 1612TIP3    H226396   4.986   6.437   6.961  1.5838  0.4624 -0.5929
 1613TIP3   OH226397   4.374   5.485   7.450 -0.0271  0.5377 -0.2113
 1613TIP3    H126398   4.416   5.422   7.392  0.2808  0.2816  0.2772
 1613TIP3    H226399   4.384   5.570   7.406 -2.1823  0.0321 -1.8490
 1614TIP3   OH226400   5.256   3.750   7.806  0.3392 -0.2794  0.1106
 1614TIP3    H126401   5.177   3.700   7.782  0.1763  0.5072 -1.1249
 1614TIP3    H226402   5.246   3.767   7.900 -0.2640 -1.3989  0.2667
 1615TIP3   OH226403   3.753   1.821   7.158 -0.0624  0.3035  0.0288
 1615TIP3    H126404   3.808   1.890   7.196  1.5639 -2.2439  2.7780
 1615TIP3    H226405   3.804   1.787   7.085  0.7889 -0.1602  0.8099
 1616TIP3   OH226406   6.778   5.713   8.126  0.1851  0.2386 -0.2607
 1616TIP3    H126407   6.823   5.695   8.208  0.6107 -0.8379 -0.7257
 1616TIP3    H226408   6.698   5.660   8.130  0.6220 -0.4906 -0.8984
 1617TIP3   OH226409   5.231   5.886   7.030  0.2512 -0.2859  0.5528
 1617TIP3    H126410   5.196   5.905   7.116 -0.7477  0.5027 -0.0063
 1617TIP3    H226411   5.154   5.864   6.977  0.7731 -0.1174 -0.2968
 1618TIP3   OH226412   3.760   0.486   8.816 -0.4170 -0.1503 -0.2696
 1618TIP3    H126413   3.693   0.523   8.874  0.4561  0.2448  0.5089
 1618TIP3    H226414   3.831   0.550   8.817  0.5808 -1.2199  0.0571
 1619TIP3   OH226415   2.209   6.578   1.195  0.0748  0.3845  0.0267
 1619TIP3    H126416   2.169   6.625   1.121 -0.5777  0.6650  0.5446
 1619TIP3    H226417   2.222   6.646   1.261  2.5698  0.5647 -0.5514
 1620TIP3   OH226418   1.538   0.721   8.366  0.4964  1.2447 -0.0565
 1620TIP3    H126419   1.506   0.640   8.327 -0.4321  1.8639 -0.5879
 1620TIP3    H226420   1.568   0.774   8.292 -0.1664  1.9360  0.1525
 1621TIP3   OH226421   5.714   5.819   2.107  0.1683  0.1084  0.2117
 1621TIP3    H126422   5.706   5.732   2.068 -0.0664  0.2517 -0.0563
 1621TIP3    H226423   5.636   5.829   2.161  0.8629 -0.4062  1.3591
 1622TIP3   OH226424   6.372   6.210   8.525  0.1778  0.3905  0.2616
 1622TIP3    H126425   6.311   6.283   8.515  0.5784  0.6471 -0.3577
 1622TIP3    H226426   6.421   6.207   8.442 -0.3867 -1.0897 -0.0563
 1623TIP3   OH226427   5.163   6.668   1.115  0.1043  0.1465 -0.3059
 1623TIP3    H126428   5.229   6.693   1.051  0.7162  0.1181  0.3006
 1623TIP3    H226429   5.086   6.720   1.092  0.6828  1.0007 -0.3616
 1624TIP3   OH226430   4.999   4.512   8.198 -0.8512 -0.0165  0.0032
 1624TIP3    H126431   5.001   4.488   8.105 -3.0526  0.1058 -0.1323
 1624TIP3    H226432   4.959   4.436   8.241 -3.2847  1.3174  0.2733
 1625TIP3   OH226433   4.112   5.861   0.986  0.3090 -0.1949 -0.1364
 1625TIP3    H126434   4.026   5.827   1.012  0.5487  0.3738  1.5811
 1625TIP3    H226435   4.170   5.785   0.988 -0.4352 -0.9298 -3.0126
 1626TIP3   OH226436   1.993   4.375   1.340  0.4655 -0.3621  0.7461
 1626TIP3    H126437   2.022   4.296   1.294 -0.6415 -1.2304  1.4856
 1626TIP3    H226438   1.916   4.347   1.389  1.0006  0.7941  2.3081
 1627TIP3   OH226439   1.809   3.711   8.377 -0.2316  1.1717  0.2782
 1627TIP3    H126440   1.758   3.784   8.343 -1.6364  0.9202  1.7253
 1627TIP3    H226441   1.756   3.633   8.356  0.3812  0.7268  0.3417
 1628TIP3   OH226442   2.525   3.654   7.080  0.3058 -0.0461  0.8752
 1628TIP3    H126443   2.521   3.570   7.035 -0.5371  0.3526  0.1608
 1628TIP3    H226444   2.589   3.642   7.149  0.2473 -1.2522  0.7365
 1629TIP3   OH226445   4.788   5.301   1.364  0.2671  0.1370 -0.0640
 1629TIP3    H126446   4.818   5.303   1.455  2.7897  2.1030 -0.8341
 1629TIP3    H226447   4.809   5.213   1.333  1.5096  0.1684  0.6413
 1630TIP3   OH226448   6.770   0.507   8.808  0.1216 -0.5692  0.2986
 1630TIP3    H126449   6.807   0.444   8.747  1.1190  0.5075 -0.2401
 1630TIP3    H226450   6.739   0.579   8.752  1.6453  0.7331  1.0553
 1631TIP3   OH226451   0.584   4.218   7.130 -0.1544  0.3782  0.1924
 1631TIP3    H126452   0.590   4.217   7.034  1.3075 -1.6183  0.2470
 1631TIP3    H226453   0.497   4.182   7.148 -0.6616  1.2903 -0.3794
 1632TIP3   OH226454   2.297   2.721   8.463 -0.0220  0.3082  0.0808
 1632TIP3    H126455   2.384   2.728   8.503 -0.1667 -0.0421  0.4599
 1632TIP3    H226456   2.307   2.760   8.376  0.1555  1.6176  0.6722
 1633TIP3   OH226457   5.152   1.009   7.634 -0.2641 -0.3845  0.0006
 1633TIP3    H126458   5.186   0.919   7.630 -0.2155 -0.4949  2.0330
 1633TIP3    H226459   5.214   1.055   7.690  0.1469  1.1768 -1.6197
 1634TIP3   OH226460   1.520   3.046   6.660  0.1394  0.3800 -0.6663
 1634TIP3    H126461   1.491   3.129   6.697  1.8693  1.2353 -1.1178
 1634TIP3    H226462   1.579   3.010   6.726  0.3253  0.1066 -0.9777
 1635TIP3   OH226463   1.494   2.374   7.545 -0.5684 -0.1328  0.0160
 1635TIP3    H126464   1.501   2.377   7.450 -2.5834  1.4348 -0.1467
 1635TIP3    H226465   1.469   2.284   7.565  0.1839 -0.5593 -0.8699
 1636TIP3   OH226466   3.832   1.162   7.852 -0.2675  0.3215 -0.3835
 1636TIP3    H126467   3.797   1.073   7.852  1.3017 -0.3359  0.6040
 1636TIP3    H226468   3.886   1.167   7.931 -0.7990  2.3594 -0.1062
 1637TIP3   OH226469   5.831   2.019   8.721  0.3412 -0.4123  0.4165
 1637TIP3    H126470   5.818   2.049   8.631  0.8479 -1.3860  0.0105
 1637TIP3    H226471   5.744   2.029   8.761  0.3244  0.8797  0.0942
 1638TIP3   OH226472   4.977   3.244   8.738  0.4968 -0.3115 -0.3810
 1638TIP3    H126473   4.953   3.268   8.828  0.0911 -3.2651  0.4043
 1638TIP3    H226474   4.899   3.200   8.704  1.4940 -1.4292 -1.2830
 1639TIP3   OH226475   0.630   5.539   6.534 -0.4546 -0.3908 -0.1010
 1639TIP3    H126476   0.704   5.478   6.532 -1.2749 -1.4364  0.0239
 1639TIP3    H226477   0.576   5.513   6.459  0.4078  1.8609 -1.5958
 1640TIP3   OH226478   0.289   0.074   2.114  0.3247 -0.2798 -0.0687
 1640TIP3    H126479   0.307   0.104   2.203 -0.8302 -0.0192  0.0923
 1640TIP3    H226480   0.368   0.094   2.065  1.4076 -1.4359  1.1435
 1641TIP3   OH226481   0.600   2.666   1.347  0.2642  0.0048  0.1824
 1641TIP3    H126482   0.569   2.665   1.437 -0.9773 -0.2599 -0.2278
 1641TIP3    H226483   0.539   2.723   1.301  0.8049  0.0323 -0.5249
 1642TIP3   OH226484   1.068   1.418   0.683 -0.7731 -0.5756  0.0202
 1642TIP3    H126485   1.028   1.503   0.700  0.0294 -0.2996  0.5730
 1642TIP3    H226486   1.051   1.367   0.762 -0.4210 -0.6040  0.0788
 1643TIP3   OH226487   5.594   1.337   7.270 -0.2212  0.2856 -0.2588
 1643TIP3    H126488   5.568   1.276   7.338 -2.1428 -0.8748 -1.9003
 1643TIP3    H226489   5.636   1.409   7.316  0.0584 -1.2083  1.9496
 1644TIP3   OH226490   2.080   4.317   0.507  0.1134  0.0497 -0.3451
 1644TIP3    H126491   2.133   4.248   0.468 -0.1965 -1.1327  1.2220
 1644TIP3    H226492   2.118   4.398   0.475  3.0615 -0.7181  0.9330
 1645TIP3   OH226493   4.880   5.288   7.116 -0.2347 -0.1777 -0.3791
 1645TIP3    H126494   4.858   5.380   7.134  1.1738  0.5042 -1.8226
 1645TIP3    H226495   4.801   5.239   7.139 -1.2577  1.4821 -0.1897
 1646TIP3   OH226496   0.522   0.636   2.499  0.4847  0.3304 -0.3711
 1646TIP3    H126497   0.498   0.688   2.422  0.7505 -0.2341 -0.8409
 1646TIP3    H226498   0.567   0.699   2.557  0.6433  0.6658 -0.8532
 1647TIP3   OH226499   6.222   6.191   0.881  0.2159  0.1124 -0.6702
 1647TIP3    H126500   6.183   6.117   0.928  0.9573  0.3320  0.3198
 1647TIP3    H226501   6.257   6.152   0.800  3.3735 -1.3116  1.1971
 1648TIP3   OH226502   0.723   6.032   6.358 -0.0733  0.5610  0.3951
 1648TIP3    H126503   0.745   6.075   6.441 -1.0122 -1.2435  1.6297
 1648TIP3    H226504   0.677   6.099   6.308 -0.8562  1.2353  1.9538
 1649TIP3   OH226505   3.080   5.129   8.792 -0.0118 -0.0350  0.7259
 1649TIP3    H126506   3.164   5.087   8.810  0.7578  1.4816  0.8562
 1649TIP3    H226507   3.100   5.193   8.723 -2.0217 -2.7970 -2.7232
 1650TIP3   OH226508   0.827   4.194   8.296  0.2943  0.6757  0.3048
 1650TIP3    H126509   0.756   4.131   8.309  0.9287 -0.0191  0.4630
 1650TIP3    H226510   0.858   4.178   8.207  1.2007 -0.0216  0.7325
 1651TIP3   OH226511   2.917   5.787   0.134  0.0113  0.0823 -0.3300
 1651TIP3    H126512   2.981   5.854   0.112 -0.2627  0.3800 -0.2223
 1651TIP3    H226513   2.833   5.832   0.133  0.0272  0.2511  1.8436
 1652TIP3   OH226514   3.510   3.097   0.121 -0.5325  0.1036 -0.1805
 1652TIP3    H126515   3.545   3.183   0.145 -1.5519  0.7351 -0.9350
 1652TIP3    H226516   3.453   3.113   0.046 -1.1727 -1.1471  0.0076
 1653TIP3   OH226517   2.463   2.779   1.730  0.0149 -0.2823  0.2521
 1653TIP3    H126518   2.491   2.831   1.805  0.8080  0.0316 -0.2490
 1653TIP3    H226519   2.518   2.700   1.734 -0.1757 -0.4198  0.1904
 1654TIP3   OH226520   0.259   0.827   7.751 -0.2734 -0.3845  0.3279
 1654TIP3    H126521   0.345   0.851   7.785 -0.0434 -0.4093 -0.2192
 1654TIP3    H226522   0.197   0.874   7.807  0.0723 -0.8367  1.0936
 1655TIP3   OH226523   1.412   6.631   0.938 -0.0586 -0.2568 -0.0011
 1655TIP3    H126524   1.498   6.634   0.981  0.5154 -2.8513 -0.7837
 1655TIP3    H226525   1.412   6.707   0.880  1.0248  0.7053  1.1847
 1656TIP3   OH226526   3.177   1.519   8.490  0.0003 -0.4433  0.0930
 1656TIP3    H126527   3.147   1.597   8.442 -0.6524  0.2305  1.5342
 1656TIP3    H226528   3.215   1.463   8.422 -0.4916  0.6498 -1.1463
 1657TIP3   OH226529   2.751   4.626   0.649  0.2402 -0.4043  0.4817
 1657TIP3    H126530   2.745   4.674   0.732  0.9084 -0.4026  0.5358
 1657TIP3    H226531   2.843   4.600   0.643 -0.2978 -2.5595  0.9311
 1658TIP3   OH226532   2.548   3.574   0.331 -0.1036  0.0279  0.0612
 1658TIP3    H126533   2.561   3.487   0.369  1.4627 -0.0436 -0.5771
 1658TIP3    H226534   2.584   3.634   0.396 -0.3263  0.1332  0.0882
 1659TIP3   OH226535   0.290   5.686   7.397 -0.0986  0.4195  0.4107
 1659TIP3    H126536   0.368   5.733   7.369 -0.0122 -0.2483 -0.4895
 1659TIP3    H226537   0.322   5.608   7.442 -0.2086 -0.6469 -1.2830
 1660TIP3   OH226538   2.892   0.895   8.071  0.0344 -0.4830  0.3579
 1660TIP3    H126539   2.914   0.847   7.991  0.8039 -0.5435  0.6007
 1660TIP3    H226540   2.798   0.882   8.082 -0.3424  0.5292 -1.2160
 1661TIP3   OH226541   0.821   4.365   0.416 -0.2801  0.0930  0.1254
 1661TIP3    H126542   0.871   4.295   0.457  0.9978  0.4108 -0.8358
 1661TIP3    H226543   0.874   4.444   0.429 -1.1848  0.6961  0.2629
 1662TIP3   OH226544   5.462   4.198   0.401  0.3331  0.3032 -0.3201
 1662TIP3    H126545   5.406   4.181   0.325  0.0166  0.9372 -0.2334
 1662TIP3    H226546   5.411   4.168   0.476  1.7149 -2.9638 -0.4972
 1663TIP3   OH226547   5.340   2.242   7.209  0.5053  0.1902  0.6276
 1663TIP3    H126548   5.357   2.291   7.128  0.2642 -0.6300  0.0621
 1663TIP3    H226549   5.401   2.279   7.273  1.4322  0.1560 -0.2081
 1664TIP3   OH226550   4.160   2.600   8.644 -0.2113  0.1049  0.1779
 1664TIP3    H126551   4.132   2.532   8.583 -0.8184 -0.3252  0.9232
 1664TIP3    H226552   4.249   2.574   8.669 -0.4320 -0.4131  0.4445
 1665TIP3   OH226553   0.028   3.880   1.959  0.3342  0.5372 -0.6563
 1665TIP3    H126554   0.072   3.927   2.029 -0.5567  1.3134 -0.5924
 1665TIP3    H226555   0.092   3.815   1.930  0.3497 -0.4951  1.5411
 1666TIP3   OH226556   3.801   4.566   6.170 -0.5212  0.6352  0.3955
 1666TIP3    H126557   3.863   4.601   6.234 -0.9515  0.4907  0.9006
 1666TIP3    H226558   3.738   4.637   6.156  0.4100  1.2245 -1.0260
 1667TIP3   OH226559   4.951   0.232   0.400 -0.1108 -0.5540  0.2350
 1667TIP3    H126560   5.011   0.300   0.369 -0.3290  0.1821  1.3758
 1667TIP3    H226561   4.880   0.232   0.335  0.3067 -0.2896 -0.2327
 1668TIP3   OH226562   3.282   5.043   0.268 -0.3708 -0.0239 -0.5209
 1668TIP3    H126563   3.306   4.951   0.283  0.4937  0.4165  1.0825
 1668TIP3    H226564   3.310   5.061   0.179 -0.9005 -1.4148 -0.9988
 1669TIP3   OH226565   0.932   3.992   6.545  0.0867  0.0924  0.3770
 1669TIP3    H126566   1.008   4.038   6.580 -0.4660  0.7392  0.7509
 1669TIP3    H226567   0.967   3.937   6.475  1.0921 -0.5603  1.3506
 1670TIP3   OH226568   0.952   1.029   1.717 -0.5736  0.9338 -0.8376
 1670TIP3    H126569   0.867   1.044   1.757 -0.3819  0.4147 -0.2244
 1670TIP3    H226570   1.010   1.010   1.790  0.0825  1.3199 -1.2468
 1671TIP3   OH226571   0.541   6.330   2.102 -0.5516 -0.2785  0.2874
 1671TIP3    H126572   0.607   6.303   2.165 -0.2650  1.1012  0.6268
 1671TIP3    H226573   0.492   6.251   2.081  0.2025 -1.0065  1.2358
 1672TIP3   OH226574   2.955   2.465   6.047  0.8236 -0.0178  0.6059
 1672TIP3    H126575   2.968   2.526   5.975 -0.7871 -0.8145 -0.4207
 1672TIP3    H226576   2.875   2.495   6.089  1.2326 -0.1297  1.4876
 1673TIP3   OH226577   1.693   1.638   7.371 -0.0916 -0.3414  0.4346
 1673TIP3    H126578   1.688   1.669   7.462 -0.3301 -1.6788  0.9169
 1673TIP3    H226579   1.765   1.575   7.372  1.1071  0.9699 -0.7594
 1674TIP3   OH226580   5.659   1.469   6.330 -0.7123  0.3910  0.2644
 1674TIP3    H126581   5.736   1.525   6.344 -1.3430  1.5981 -0.8725
 1674TIP3    H226582   5.616   1.506   6.253 -2.2393 -0.4808  0.6581
 1675TIP3   OH226583   2.159   4.744   7.782  0.0357  0.0639  0.0866
 1675TIP3    H126584   2.160   4.797   7.702 -1.6416 -0.1198 -0.0972
 1675TIP3    H226585   2.067   4.719   7.793  0.7174 -2.7570  0.1896
 1676TIP3   OH226586   5.658   5.545   2.008 -0.9217  0.0352  0.3901
 1676TIP3    H126587   5.689   5.480   2.071 -0.2734 -0.1414 -0.0978
 1676TIP3    H226588   5.566   5.559   2.031 -0.8689 -0.5107  0.9555
 1677TIP3   OH226589   4.516   1.706   2.544  0.6961 -0.1136 -0.0351
 1677TIP3    H126590   4.456   1.718   2.617 -2.2775 -0.9196 -2.1726
 1677TIP3    H226591   4.509   1.788   2.494  2.9784  0.5817  0.6407
 1678TIP3   OH226592   1.548   6.662   6.965 -0.0660  0.0940 -0.3614
 1678TIP3    H126593   1.606   6.592   6.937 -1.3572 -1.3792  0.4833
 1678TIP3    H226594   1.465   6.644   6.921 -0.5251  0.8772  0.1608
 1679TIP3   OH226595   3.346   6.153   1.257 -0.9808  0.1667 -0.0390
 1679TIP3    H126596   3.414   6.154   1.324 -0.3200 -1.0913 -0.6477
 1679TIP3    H226597   3.281   6.217   1.287 -1.1781 -1.0046  2.2812
 1680TIP3   OH226598   6.278   4.913   1.322 -0.1379 -0.3070 -0.4647
 1680TIP3    H126599   6.296   4.819   1.328 -0.5448 -0.4159 -0.9500
 1680TIP3    H226600   6.310   4.948   1.406  0.5773 -0.7783 -0.5267
 1681TIP3   OH226601   4.804   4.000   7.300 -0.3512  0.3416 -0.2939
 1681TIP3    H126602   4.718   4.018   7.263  0.1287 -0.3414 -1.8204
 1681TIP3    H226603   4.814   3.905   7.294  1.0674  0.5261 -1.5092
 1682TIP3   OH226604   5.544   3.667   1.755 -0.5721 -0.0017 -0.0157
 1682TIP3    H126605   5.502   3.582   1.767  1.3963 -1.2772 -1.4814
 1682TIP3    H226606   5.475   3.723   1.719 -1.9164 -0.9480  0.9889
 1683TIP3   OH226607   6.670   5.532   1.320  0.1736  0.1791  0.2844
 1683TIP3    H126608   6.751   5.489   1.348  0.4404 -0.1414 -0.9407
 1683TIP3    H226609   6.669   5.614   1.368  0.8608 -0.1310  0.8566
 1684TIP3   OH226610   0.860   1.854   7.946 -0.3003 -0.0467  0.2072
 1684TIP3    H126611   0.859   1.944   7.980  0.6496 -0.3801  1.1913
 1684TIP3    H226612   0.797   1.855   7.874 -0.6340  1.2955  0.4812
 1685TIP3   OH226613   0.929   1.164   8.486  0.0998 -0.1024  0.8594
 1685TIP3    H126614   0.863   1.214   8.438  1.1455  0.3698 -0.1357
 1685TIP3    H226615   0.932   1.205   8.572 -0.9461 -0.1801  0.9473
 1686TIP3   OH226616   0.709   1.992   7.091  0.7079  0.2647 -0.3133
 1686TIP3    H126617   0.670   1.992   7.003  0.4136  2.0017 -0.2004
 1686TIP3    H226618   0.779   2.057   7.086  1.7543 -0.7689  0.3093
 1687TIP3   OH226619   2.856   5.556   7.893  0.3177  0.0358 -0.0313
 1687TIP3    H126620   2.876   5.550   7.987  0.1583  0.9362  0.0699
 1687TIP3    H226621   2.815   5.472   7.872  1.9020 -0.8594  0.3147
 1688TIP3   OH226622   1.695   1.159   0.053 -0.2589  0.1235  0.7718
 1688TIP3    H126623   1.780   1.144   0.094 -0.8110  0.6565  2.1571
 1688TIP3    H226624   1.641   1.085   0.082 -0.1293 -0.5312 -0.5779
 1689TIP3   OH226625   4.840   0.305   8.127  0.3510  0.0012 -0.7351
 1689TIP3    H126626   4.906   0.283   8.193 -0.7751  1.5269  1.0084
 1689TIP3    H226627   4.762   0.324   8.178 -1.0241 -0.2689 -2.6571
 1690TIP3   OH226628   3.802   5.423   8.611 -0.0790 -0.4802 -0.3686
 1690TIP3    H126629   3.756   5.347   8.647 -2.2744 -0.4064 -2.7421
 1690TIP3    H226630   3.798   5.410   8.516  0.2738  2.1601 -0.8111
 1691TIP3   OH226631   2.418   1.565   0.231  0.2049 -0.3644 -0.8472
 1691TIP3    H126632   2.365   1.510   0.289 -0.8541  2.0114  0.6047
 1691TIP3    H226633   2.382   1.549   0.144 -2.8897  0.9446  0.0436
 1692TIP3   OH226634   2.212   6.395   0.386 -0.4427  0.7927  0.3998
 1692TIP3    H126635   2.164   6.478   0.381 -0.1226  0.9244 -1.2328
 1692TIP3    H226636   2.304   6.420   0.376 -0.3424  0.2515 -0.1170
 1693TIP3   OH226637   4.109   4.468   1.573  0.0010 -0.9004 -0.4754
 1693TIP3    H126638   4.021   4.474   1.608  0.1530  1.0758 -0.3285
 1693TIP3    H226639   4.157   4.415   1.637 -0.3677  0.4766  1.0015
 1694TIP3   OH226640   4.002   0.772   2.648 -0.0299  0.2084 -0.0858
 1694TIP3    H126641   3.987   0.834   2.577 -1.7604  1.3086  1.1537
 1694TIP3    H226642   4.066   0.816   2.704  2.7119 -1.4046 -1.7292
 1695TIP3   OH226643   2.641   3.993   6.113  0.5522  0.1128 -0.4337
 1695TIP3    H126644   2.723   3.945   6.116 -0.1452 -1.0832  0.6452
 1695TIP3    H226645   2.617   4.006   6.205  0.1206  1.5122 -0.7154
 1696TIP3   OH226646   5.662   4.027   8.067  0.1990  0.2986 -0.1364
 1696TIP3    H126647   5.587   4.019   8.126  1.0721 -2.7909  0.7255
 1696TIP3    H226648   5.727   4.077   8.117 -0.2195  0.4390  0.2737
 1697TIP3   OH226649   4.051   4.053   8.189  0.2514 -0.0514 -0.6473
 1697TIP3    H126650   4.116   4.023   8.252  0.5271  0.2504 -0.7824
 1697TIP3    H226651   4.024   3.974   8.142  0.5920 -0.1674 -0.6522
 1698TIP3   OH226652   2.287   4.316   8.372  0.0494 -0.5542  0.0582
 1698TIP3    H126653   2.316   4.387   8.429 -0.1992 -1.3308  1.2072
 1698TIP3    H226654   2.354   4.310   8.305  0.9355 -0.2983  0.8900
 1699TIP3   OH226655   3.288   1.474   7.835 -0.3125 -0.5098  0.2333
 1699TIP3    H126656   3.327   1.540   7.893 -0.7903 -0.1693  0.1650
 1699TIP3    H226657   3.200   1.460   7.869  0.2226 -2.1082  1.0729
 1700TIP3   OH226658   0.789   4.022   1.010 -0.7854 -0.1701  0.3731
 1700TIP3    H126659   0.788   4.099   0.954  1.8374 -0.5751 -0.3496
 1700TIP3    H226660   0.732   4.045   1.084 -0.7736  2.0819 -0.2567
 1701TIP3   OH226661   2.280   2.414   0.376 -0.0961 -0.2002  0.1092
 1701TIP3    H126662   2.251   2.324   0.363 -1.1277 -0.1045  1.5452
 1701TIP3    H226663   2.273   2.429   0.470  2.1199  0.7174  0.1955
 1702TIP3   OH226664   4.867   4.900   8.105  0.0755  0.1355 -0.4909
 1702TIP3    H126665   4.959   4.899   8.131  0.1580  0.8921 -0.7331
 1702TIP3    H226666   4.826   4.965   8.162 -0.3959 -0.4774 -0.1175
 1703TIP3   OH226667   5.811   5.429   7.455 -0.0260 -0.2008 -0.0940
 1703TIP3    H126668   5.833   5.521   7.437 -1.4092  0.1685 -0.0006
 1703TIP3    H226669   5.895   5.388   7.476  0.5521  1.1574  0.3437
 1704TIP3   OH226670   5.877   2.914   7.852 -0.2450 -0.1686  0.1019
 1704TIP3    H126671   5.897   2.934   7.760  0.5793  0.2819  0.3651
 1704TIP3    H226672   5.866   2.819   7.854 -1.4093 -0.0684 -0.6639
 1705TIP3   OH226673   2.353   2.769   0.290  0.2034 -0.0917  0.4007
 1705TIP3    H126674   2.396   2.684   0.276 -0.1388 -0.5153  1.7839
 1705TIP3    H226675   2.317   2.792   0.204  1.4573 -0.6926 -0.3039
 1706TIP3   OH226676   0.287   3.053   1.890  0.0763  0.5084 -0.2906
 1706TIP3    H126677   0.353   3.035   1.823  0.3258  0.3299  0.0013
 1706TIP3    H226678   0.291   2.978   1.949  0.0087  0.7657  0.0464
 1707TIP3   OH226679   5.071   5.386   8.513 -0.1019 -0.5490  0.1055
 1707TIP3    H126680   5.078   5.309   8.458  2.2793  0.4407 -1.1227
 1707TIP3    H226681   5.162   5.415   8.526 -0.7167  0.5254  2.7732
 1708TIP3   OH226682   1.130   5.975   1.468  0.4998 -0.0167  0.6147
 1708TIP3    H126683   1.121   5.922   1.547 -0.0656  0.1682  0.6769
 1708TIP3    H226684   1.096   5.918   1.398 -4.1174  1.6067  1.1825
 1709TIP3   OH226685   6.211   1.800   1.294  0.6219 -0.5384 -0.0243
 1709TIP3    H126686   6.210   1.867   1.225  0.1005 -0.7067 -0.1909
 1709TIP3    H226687   6.296   1.757   1.285  2.2835  2.0553  2.0376
 1710TIP3   OH226688   6.253   1.382   1.178  0.2689 -0.1350 -0.5338
 1710TIP3    H126689   6.222   1.343   1.260 -0.7073 -0.0515 -0.8512
 1710TIP3    H226690   6.347   1.396   1.192  0.2199 -0.6325  0.3628
 1711TIP3   OH226691   2.981   5.091   0.197  0.6900  0.1412 -0.4022
 1711TIP3    H126692   3.005   5.095   0.104 -1.2552  0.5093 -0.9376
 1711TIP3    H226693   3.047   5.033   0.236  0.6112 -1.3626 -2.3296
 1712TIP3   OH226694   1.450   2.364   0.832  0.5839 -0.1961 -0.0318
 1712TIP3    H126695   1.494   2.318   0.761  2.8710 -0.1017  1.2046
 1712TIP3    H226696   1.358   2.340   0.823  1.1381 -2.0192 -1.6423
 1713TIP3   OH226697   1.202   5.129   0.547 -0.0007 -0.0174 -0.2681
 1713TIP3    H126698   1.118   5.173   0.547 -0.4086 -0.7648  0.4627
 1713TIP3    H226699   1.266   5.199   0.555 -0.5086  0.6022 -1.3186
 1714TIP3   OH226700   0.028   2.727   7.161 -0.0182 -0.6587  0.3321
 1714TIP3    H126701   0.120   2.755   7.158 -0.4267  0.7767  0.1048
 1714TIP3    H226702  -0.017   2.800   7.205 -1.2700 -0.6531 -0.9003
 1715TIP3   OH226703   4.504   1.599   2.084  0.0485  0.1851 -0.1487
 1715TIP3    H126704   4.488   1.684   2.124 -3.7053 -1.0010  1.4105
 1715TIP3    H226705   4.459   1.603   2.000 -1.2809 -0.5609  0.4883
 1716TIP3   OH226706   2.706   4.245   8.351 -0.2367  0.4785 -0.0760
 1716TIP3    H126707   2.708   4.210   8.262 -0.5977 -0.2474  0.1973
 1716TIP3    H226708   2.689   4.339   8.339 -0.9237  0.2748 -0.7388
 1717TIP3   OH226709   5.878   0.669   1.877  0.0071 -0.3437 -0.1413
 1717TIP3    H126710   5.933   0.686   1.800  0.3323  1.3911  0.4272
 1717TIP3    H226711   5.926   0.604   1.927  1.9357  1.5664  0.6429
 1718TIP3   OH226712   3.586   5.453   6.502  0.1124 -0.9749  0.5449
 1718TIP3    H126713   3.658   5.389   6.501  0.6825 -0.3676  1.5410
 1718TIP3    H226714   3.626   5.533   6.468  0.1953 -0.3643  2.0046
 1719TIP3   OH226715   5.654   0.365   7.859 -0.6265 -0.4514  0.1275
 1719TIP3    H126716   5.628   0.327   7.943  1.0189 -0.7676  0.5431
 1719TIP3    H226717   5.603   0.445   7.851 -1.2661 -0.7473  1.1341
 1720TIP3   OH226718   3.883   5.378   7.545  0.1140 -0.5395 -0.0112
 1720TIP3    H126719   3.827   5.422   7.609  0.1775  1.9812 -1.5439
 1720TIP3    H226720   3.972   5.387   7.581  0.2168  1.3780 -0.6289
 1721TIP3   OH226721   3.806   3.128   7.079  0.3470  0.0360 -0.2977
 1721TIP3    H126722   3.819   3.134   7.174  0.6177 -0.6087 -0.2962
 1721TIP3    H226723   3.762   3.210   7.057  1.8598  0.9973  0.1089
 1722TIP3   OH226724   6.020   0.251   7.685  0.0973  0.5235 -0.2089
 1722TIP3    H126725   5.988   0.162   7.696  0.1479  0.4209 -0.8443
 1722TIP3    H226726   5.999   0.273   7.594  0.8446  0.8533 -0.3115
 1723TIP3   OH226727   2.242   4.605   8.144  0.2847 -0.0696 -0.2787
 1723TIP3    H126728   2.280   4.585   8.058 -0.1348  0.4222 -0.5910
 1723TIP3    H226729   2.179   4.534   8.159  0.9226 -0.5910 -0.0058
 1724TIP3   OH226730   0.844   5.870   7.995 -0.0903  0.4834 -0.1568
 1724TIP3    H126731   0.779   5.801   7.982 -0.5788  0.9705 -0.3739
 1724TIP3    H226732   0.915   5.848   7.935 -0.1512  0.0592 -0.0739
 1725TIP3   OH226733   3.221   0.961   0.826  0.7312 -0.6128  0.0277
 1725TIP3    H126734   3.136   0.935   0.791  1.2012 -2.4361  0.1547
 1725TIP3    H226735   3.246   1.037   0.773 -1.5089  0.7724  0.8178
 1726TIP3   OH226736   5.463   1.065   8.121 -0.1404 -0.2322 -0.2433
 1726TIP3    H126737   5.372   1.037   8.113 -0.3106  0.0500  0.5751
 1726TIP3    H226738   5.494   1.023   8.201  0.3608 -0.0909 -0.3576
 1727TIP3   OH226739   3.294   2.753   7.374  0.3262 -0.0678  0.1311
 1727TIP3    H126740   3.296   2.722   7.284  1.0583 -1.2460  0.5180
 1727TIP3    H226741   3.207   2.728   7.406  0.3322 -0.3008 -0.0316
 1728TIP3   OH226742   6.597   2.297   1.978  0.2125  0.4914  0.7874
 1728TIP3    H126743   6.614   2.374   2.032 -0.9261  2.5861 -1.5930
 1728TIP3    H226744   6.521   2.255   2.019 -0.7860  2.1672  0.7852
 1729TIP3   OH226745   2.727   5.326   1.259  0.3097 -0.6535 -0.0252
 1729TIP3    H126746   2.754   5.331   1.167 -0.5251 -0.7310 -0.2775
 1729TIP3    H226747   2.717   5.233   1.275  1.1328 -0.6886  0.3569
 1730TIP3   OH226748   5.621   5.821   7.401  0.3922  0.5840 -0.2561
 1730TIP3    H126749   5.591   5.906   7.433 -3.2390 -1.1079  1.4303
 1730TIP3    H226750   5.665   5.781   7.476  1.8105  0.7742 -0.9502
 1731TIP3   OH226751   6.031   1.518   0.833 -0.4711  0.2789  0.4341
 1731TIP3    H126752   6.014   1.425   0.818 -0.8040  0.2631  0.8839
 1731TIP3    H226753   6.112   1.520   0.883 -1.0427  0.1642  1.3944
 1732TIP3   OH226754   2.458   4.431   6.735  0.2032 -0.0052 -0.1919
 1732TIP3    H126755   2.554   4.423   6.730  0.0121 -1.7591 -2.2592
 1732TIP3    H226756   2.429   4.435   6.644 -1.7115  0.5426  0.3991
 1733TIP3   OH226757   6.677   1.185   6.614 -0.2248  0.1905 -0.2212
 1733TIP3    H126758   6.728   1.134   6.551  0.4981 -1.1984  1.4024
 1733TIP3    H226759   6.669   1.127   6.690 -0.5040  2.0280  1.2103
 1734TIP3   OH226760   5.760   0.984   0.153 -0.2001  0.0519  1.0318
 1734TIP3    H126761   5.811   0.935   0.088  1.7118  0.6116  2.0108
 1734TIP3    H226762   5.699   1.036   0.102  0.9079  0.1008 -0.3003
 1735TIP3   OH226763   3.850   6.613   0.402  0.5667  0.0072  0.0120
 1735TIP3    H126764   3.903   6.658   0.336 -0.4098 -1.1545 -1.6373
 1735TIP3    H226765   3.769   6.590   0.356 -0.4060 -0.3242  1.7983
 1736TIP3   OH226766   3.730   1.605   8.558 -0.0589  0.2132  0.7169
 1736TIP3    H126767   3.669   1.540   8.524 -0.2951  1.6589 -1.8510
 1736TIP3    H226768   3.675   1.670   8.601 -0.1656  0.4220  0.2767
 1737TIP3   OH226769   6.167   4.104   7.150 -0.5544 -1.0728  0.0827
 1737TIP3    H126770   6.212   4.136   7.072 -2.3225  0.6584 -0.2871
 1737TIP3    H226771   6.228   4.124   7.221  0.5382 -1.5252 -0.6930
 1738TIP3   OH226772   4.083   6.399   1.568 -0.1670 -0.3532  0.0264
 1738TIP3    H126773   4.098   6.385   1.475 -1.6774 -1.4499 -0.0874
 1738TIP3    H226774   4.171   6.399   1.607  0.5974  1.5217 -1.5367
 1739TIP3   OH226775   2.515   4.866   0.623 -0.1898 -0.0227 -0.0315
 1739TIP3    H126776   2.514   4.917   0.704 -0.4948  0.8941 -0.6047
 1739TIP3    H226777   2.428   4.825   0.619  0.2232 -1.0123  0.6756
 1740TIP3   OH226778   3.088   5.735   7.976 -0.2699 -0.4938  0.4124
 1740TIP3    H126779   3.168   5.788   7.973  0.9326 -2.1424  1.6105
 1740TIP3    H226780   3.099   5.671   7.906 -1.7263  0.7806 -1.0410
 1741TIP3   OH226781   2.751   1.520   0.025 -0.2867  0.0067 -0.0857
 1741TIP3    H126782   2.725   1.570  -0.053  1.6850 -1.3515 -1.7289
 1741TIP3    H226783   2.827   1.568   0.059 -0.4314 -0.0557  0.3322
 1742TIP3   OH226784   3.948   4.444   7.588  0.5063 -0.3186  0.3171
 1742TIP3    H126785   4.042   4.458   7.595  0.6475 -1.2091  0.3723
 1742TIP3    H226786   3.932   4.433   7.494  0.3535  0.4623  0.2467
 1743TIP3   OH226787   1.829   6.628   0.951 -0.0355  0.0658 -0.0070
 1743TIP3    H126788   1.752   6.618   1.007 -0.2864  0.4757 -0.2744
 1743TIP3    H226789   1.798   6.608   0.863  0.0175  0.8056 -0.1999
 1744TIP3   OH226790   5.431   3.252   7.913 -0.5983  0.1006 -0.1214
 1744TIP3    H126791   5.435   3.320   7.980 -0.1364  0.1138 -0.1587
 1744TIP3    H226792   5.408   3.172   7.962  0.4248 -0.0326  0.1701
 1745TIP3   OH226793   4.819   1.248   7.693  0.2258  0.2526 -0.1045
 1745TIP3    H126794   4.830   1.154   7.679 -2.6705  0.2057 -3.5133
 1745TIP3    H226795   4.725   1.259   7.708  0.4874  2.6400  0.2133
 1746TIP3   OH226796   6.421   4.644   1.827 -0.1046 -0.3335  0.0390
 1746TIP3    H126797   6.512   4.618   1.814 -0.1350  0.3178 -1.7379
 1746TIP3    H226798   6.400   4.615   1.916  1.5184 -1.3925  0.1135
 1747TIP3   OH226799   3.775   5.661   7.644 -0.4069  0.3775  0.1254
 1747TIP3    H126800   3.728   5.605   7.581 -0.8810  0.4230  0.4367
 1747TIP3    H226801   3.708   5.720   7.678 -0.0579  0.6436  0.3536
 1748TIP3   OH226802   0.539   5.059   6.738 -0.1271 -0.1694 -0.0417
 1748TIP3    H126803   0.527   5.146   6.699 -0.2936  0.0830  0.5550
 1748TIP3    H226804   0.460   5.011   6.714  0.9430 -0.9187 -2.2862
 1749TIP3   OH226805   0.259   5.121   7.750  0.3836  0.1253  0.1581
 1749TIP3    H126806   0.178   5.173   7.752 -0.6279 -1.4006  1.4031
 1749TIP3    H226807   0.287   5.117   7.841 -0.3218 -2.5385  0.3364
 1750TIP3   OH226808   1.557   0.012   1.717 -0.4159 -0.1013 -0.2262
 1750TIP3    H126809   1.463   0.020   1.732 -0.1531  0.8456  1.1171
 1750TIP3    H226810   1.590  -0.035   1.795  0.2771 -0.0447 -0.4740
 1751TIP3   OH226811   3.492   4.134   1.139  0.2956 -0.2025  0.4246
 1751TIP3    H126812   3.520   4.165   1.053  1.1946 -0.1993  0.7027
 1751TIP3    H226813   3.535   4.194   1.201  1.1123 -1.2755  0.9254
 1752TIP3   OH226814   2.967   0.639   2.480 -0.2288  0.0170 -0.6894
 1752TIP3    H126815   3.035   0.611   2.540 -0.3787 -0.3374 -0.6778
 1752TIP3    H226816   2.967   0.735   2.485 -1.9817 -0.0046  1.8604
 1753TIP3   OH226817   3.866   3.072   7.351  0.2048 -0.3100  0.3500
 1753TIP3    H126818   3.848   2.978   7.350 -1.2791 -0.1198 -2.6049
 1753TIP3    H226819   3.804   3.108   7.414 -0.3669 -1.1379  0.2779
 1754TIP3   OH226820   1.748   3.317   8.656 -0.9298  0.1565 -0.3371
 1754TIP3    H126821   1.754   3.366   8.738 -2.1668  1.8421 -1.2131
 1754TIP3    H226822   1.693   3.370   8.600 -1.1624 -1.5913 -1.8465
 1755TIP3   OH226823   4.379   2.422   2.001 -0.4322  0.5915  0.1552
 1755TIP3    H126824   4.406   2.398   2.090  0.9605  0.4658 -0.2755
 1755TIP3    H226825   4.415   2.510   1.988 -0.8077  0.6933 -0.2098
 1756TIP3   OH226826   5.826   1.978   6.412  0.5272 -0.3772 -0.3239
 1756TIP3    H126827   5.894   2.044   6.415 -0.1262  0.3001 -0.1118
 1756TIP3    H226828   5.859   1.912   6.351  0.8637  0.5140 -1.1358
 1757TIP3   OH226829   5.089   4.279   6.829 -0.3645 -0.2917 -0.0416
 1757TIP3    H126830   5.138   4.219   6.773  0.6362  1.8964 -1.6988
 1757TIP3    H226831   5.156   4.323   6.881 -1.1587 -1.1871  1.8070
 1758TIP3   OH226832   5.831   0.940   7.460 -0.0241  0.0812  0.3293
 1758TIP3    H126833   5.909   0.959   7.512 -0.1960 -1.5548  1.2854
 1758TIP3    H226834   5.843   0.849   7.433 -1.7272 -0.3127  0.7699
 1759TIP3   OH226835   2.455   4.623   1.508  0.2822 -1.0359 -0.1957
 1759TIP3    H126836   2.375   4.647   1.462  0.2583  0.6774  0.6856
 1759TIP3    H226837   2.431   4.620   1.600  1.3785  0.2377  0.1551
 1760TIP3   OH226838   6.380   2.682   1.611 -0.3772 -0.1238 -0.0217
 1760TIP3    H126839   6.322   2.754   1.587  1.4571  1.8263  1.0121
 1760TIP3    H226840   6.336   2.637   1.683 -0.3079  1.8431  1.3226
 1761TIP3   OH226841   2.530   5.693   0.541 -0.1683  0.3198  0.2927
 1761TIP3    H126842   2.524   5.772   0.487  1.8698 -0.6519 -1.5302
 1761TIP3    H226843   2.494   5.624   0.485 -0.5242 -0.2851  1.2641
 1762TIP3   OH226844   0.279   2.572   0.102 -0.0426  0.1491  0.3019
 1762TIP3    H126845   0.246   2.640   0.161  0.3087  1.2435 -0.7346
 1762TIP3    H226846   0.323   2.510   0.160 -0.7807  0.5489  1.3174
 1763TIP3   OH226847   6.515   5.274   0.686 -0.0733  0.3496  0.1365
 1763TIP3    H126848   6.498   5.359   0.644  0.3686 -0.4200 -1.7281
 1763TIP3    H226849   6.593   5.288   0.739  1.7888  0.5149 -2.4155
 1764TIP3   OH226850   0.246   2.838   7.031 -0.6233  0.5293  0.2541
 1764TIP3    H126851   0.272   2.909   7.090 -0.7934  0.3873  0.5042
 1764TIP3    H226852   0.172   2.873   6.982 -1.2907  0.2213  1.0170
 1765TIP3   OH226853   3.415   3.688   0.218 -0.4454 -0.2915 -0.6229
 1765TIP3    H126854   3.486   3.753   0.221 -0.3424 -0.4493  0.7024
 1765TIP3    H226855   3.337   3.739   0.195 -0.5874  0.5548  1.5100
 1766TIP3   OH226856   3.098   0.566   1.101 -0.2608  0.2504 -0.9487
 1766TIP3    H126857   3.036   0.592   1.033  0.0080 -1.8105 -2.0754
 1766TIP3    H226858   3.183   0.568   1.058 -0.1326 -1.4830 -0.8442
 1767TIP3   OH226859   1.286   3.079   2.028 -0.1568 -0.9570  0.0355
 1767TIP3    H126860   1.312   2.997   2.070  0.4103 -1.4799 -1.2812
 1767TIP3    H226861   1.346   3.088   1.954 -0.6976  0.2719 -0.2769
 1768TIP3   OH226862   5.693   2.231   6.551 -0.7262  0.2497  0.0882
 1768TIP3    H126863   5.716   2.150   6.505 -2.6005  0.3936 -1.2150
 1768TIP3    H226864   5.696   2.299   6.483 -1.1483  0.9143  0.7106
 1769TIP3   OH226865   0.686   1.259   0.731  0.3245  0.7927 -0.3654
 1769TIP3    H126866   0.720   1.316   0.664  0.3289  1.0310 -0.1608
 1769TIP3    H226867   0.591   1.275   0.731  0.4093  1.3141  0.1688
 1770TIP3   OH226868   2.474   6.508   2.016 -0.2908  0.0674 -0.4402
 1770TIP3    H126869   2.547   6.568   2.029 -0.3126 -0.4018  2.4977
 1770TIP3    H226870   2.514   6.421   2.024 -1.1222 -0.1903  1.3762
 1771TIP3   OH226871   3.087   0.164   6.613 -0.7829  0.0887 -0.1951
 1771TIP3    H126872   3.042   0.223   6.674 -1.1470 -0.2528 -0.1269
 1771TIP3    H226873   3.130   0.222   6.550  1.0535  0.5110  1.3708
 1772TIP3   OH226874   2.107   0.477   7.635  0.0397 -0.3168 -0.4104
 1772TIP3    H126875   2.138   0.544   7.695  1.3211 -0.9879 -0.2949
 1772TIP3    H226876   2.186   0.438   7.598 -0.6557 -1.7558 -0.4765
 1773TIP3   OH226877   3.308   4.774   2.159 -0.0332  0.3775  0.0549
 1773TIP3    H126878   3.262   4.856   2.175 -0.6888 -0.3144  2.0400
 1773TIP3    H226879   3.240   4.707   2.169  1.1220 -0.6061  2.0587
 1774TIP3   OH226880   0.052   5.867   7.339  0.6410  0.0944 -0.2151
 1774TIP3    H126881   0.123   5.813   7.374 -0.2143 -0.7586  0.2305
 1774TIP3    H226882   0.073   5.874   7.245  0.3220 -1.7666 -0.4727
 1775TIP3   OH226883   6.700   5.704   0.827  0.1763 -0.5110  0.3281
 1775TIP3    H126884   6.761   5.649   0.875  0.7991 -0.2047 -0.0908
 1775TIP3    H226885   6.642   5.740   0.894  0.3364 -0.9596  0.7111
 1776TIP3   OH226886   1.415   5.501   1.633 -0.2326  0.3158  0.5587
 1776TIP3    H126887   1.476   5.434   1.604 -1.6244 -1.7947  2.1950
 1776TIP3    H226888   1.357   5.515   1.558 -1.4832 -2.2859  0.9190
 1777TIP3   OH226889   1.748   0.371   7.038 -1.0382  0.2713 -0.1453
 1777TIP3    H126890   1.823   0.319   7.067  0.8107  2.5431 -0.4684
 1777TIP3    H226891   1.696   0.385   7.117  1.0070  1.8101  1.0505
 1778TIP3   OH226892   5.748   4.235   8.819  0.1814  0.7696  0.2883
 1778TIP3    H126893   5.677   4.178   8.792  0.7602  0.3868 -0.4519
 1778TIP3    H226894   5.811   4.232   8.747  2.6917 -1.7938  2.3330
 1779TIP3   OH226895   5.120   3.305   1.387  0.3292 -0.1342 -0.1291
 1779TIP3    H126896   5.025   3.306   1.402  0.2650 -2.4888  0.0752
 1779TIP3    H226897   5.128   3.295   1.292  0.4555  2.0281 -0.3821
 1780TIP3   OH226898   3.879   4.641   1.226  0.6824 -0.4313  0.0884
 1780TIP3    H126899   3.871   4.661   1.319 -0.6326 -1.5267  0.2426
 1780TIP3    H226900   3.973   4.624   1.214  0.6643 -1.9631  1.6166
 1781TIP3   OH226901   6.129   0.367   8.711  0.0348  0.1424  0.1126
 1781TIP3    H126902   6.058   0.335   8.655  0.9943  0.6108 -1.4168
 1781TIP3    H226903   6.084   0.416   8.780 -1.1437  0.5652 -0.9153
 1782TIP3   OH226904   0.753   5.026   6.937 -0.1156  0.0931  0.0083
 1782TIP3    H126905   0.671   5.016   6.889 -0.7933 -0.4327  1.2422
 1782TIP3    H226906   0.819   5.036   6.869 -0.9159 -1.5318 -1.0718
 1783TIP3   OH226907   3.975   5.916   0.494  0.3483  0.2224 -0.0090
 1783TIP3    H126908   4.005   5.831   0.525  0.5474  0.2282 -0.1845
 1783TIP3    H226909   4.023   5.930   0.412 -0.4160  0.0535 -0.4949
 1784TIP3   OH226910   2.603   5.583   1.633  0.2533 -0.2304 -0.5558
 1784TIP3    H126911   2.543   5.657   1.635  0.3013 -0.1613 -1.3306
 1784TIP3    H226912   2.560   5.516   1.688  0.0664  0.2518 -0.1090
 1785TIP3   OH226913   6.421   5.435   8.839 -0.5284 -0.2344  0.0637
 1785TIP3    H126914   6.355   5.365   8.843 -0.1745 -0.8622 -2.9332
 1785TIP3    H226915   6.380   5.503   8.786  1.3100 -0.8218 -2.2424
 1786TIP3   OH226916   6.404   2.459   0.551 -0.0827 -0.2931  0.2777
 1786TIP3    H126917   6.499   2.456   0.535  0.1589 -0.3332  1.5816
 1786TIP3    H226918   6.368   2.395   0.490  0.8573 -1.0778  0.5086
 1787TIP3   OH226919   5.476   5.184   6.856 -0.4095  0.5174 -0.7290
 1787TIP3    H126920   5.385   5.181   6.885 -0.2495 -0.4644 -0.2877
 1787TIP3    H226921   5.512   5.261   6.900 -0.7086  0.2082  0.0840
 1788TIP3   OH226922   5.533   6.035   0.072  0.3386 -0.3446 -0.2568
 1788TIP3    H126923   5.463   6.036   0.138  0.4988 -0.0836 -0.0887
 1788TIP3    H226924   5.487   6.042  -0.012  0.2335  1.4880 -0.0929
 1789TIP3   OH226925   3.672   3.347   2.424  0.4994 -0.3551  0.3492
 1789TIP3    H126926   3.717   3.284   2.368  0.4584  0.7895 -1.0026
 1789TIP3    H226927   3.582   3.349   2.390  1.1218  2.3190 -1.3519
 1790TIP3   OH226928   4.396   2.879   1.040  0.4763  0.3520 -0.4047
 1790TIP3    H126929   4.485   2.914   1.045  0.3372  0.5709  1.8858
 1790TIP3    H226930   4.368   2.871   1.132 -0.5411 -3.1065 -0.8545
 1791TIP3   OH226931   5.404   2.130   1.203 -0.5789 -0.0335  0.2250
 1791TIP3    H126932   5.324   2.120   1.255  0.2749 -1.4073  1.3121
 1791TIP3    H226933   5.427   2.041   1.177 -0.1510  0.4857 -1.2804
 1792TIP3   OH226934   0.718   4.579   6.938 -0.1056  0.1141  0.8773
 1792TIP3    H126935   0.719   4.611   6.847  1.7517  2.5505  1.6438
 1792TIP3    H226936   0.630   4.602   6.970 -0.0579  1.1964  0.2878
 1793TIP3   OH226937   6.551   2.432   1.664 -0.3087 -0.3852  0.3262
 1793TIP3    H126938   6.602   2.503   1.626 -1.5445  1.4069  1.8510
 1793TIP3    H226939   6.503   2.395   1.589 -0.0147  0.7078 -0.4260
 1794TIP3   OH226940   3.366   1.158   7.302  0.7381 -1.0105  0.7860
 1794TIP3    H126941   3.306   1.089   7.274 -0.6758  0.7562 -0.7741
 1794TIP3    H226942   3.356   1.161   7.398 -0.5536 -1.7487  0.6912
 1795TIP3   OH226943   0.081   2.109   0.635  0.0956 -0.0055  0.8132
 1795TIP3    H126944   0.135   2.037   0.601 -3.2036 -1.5872 -1.6640
 1795TIP3    H226945   0.038   2.072   0.712  0.7212  0.4231  1.3738
 1796TIP3   OH226946   4.084   4.288   8.018  0.2853  0.3500  0.0650
 1796TIP3    H126947   3.993   4.312   8.005  0.1613 -0.1715 -0.0718
 1796TIP3    H226948   4.081   4.210   8.073  0.4554 -1.5394 -2.4203
 1797TIP3   OH226949   2.678   0.010   8.730 -0.0707  0.0027 -0.0887
 1797TIP3    H126950   2.651  -0.062   8.788  0.3833  0.7333  1.0664
 1797TIP3    H226951   2.621   0.002   8.654 -4.7028  2.2124  2.7030
 1798TIP3   OH226952   1.626   1.848   7.181 -0.2464 -0.2996 -0.2359
 1798TIP3    H126953   1.552   1.837   7.120 -1.9847 -0.0534  1.7247
 1798TIP3    H226954   1.627   1.768   7.232  1.1365 -0.4589 -0.4797
 1799TIP3   OH226955   2.011   1.273   5.995 -0.3993 -0.4278 -0.4763
 1799TIP3    H126956   1.939   1.334   6.010 -0.3405 -0.2193 -1.0386
 1799TIP3    H226957   1.975   1.187   6.016 -0.1541 -0.1121  1.4572
 1800TIP3   OH226958   4.323   0.958   7.280 -0.8064  0.5680 -0.3462
 1800TIP3    H126959   4.403   0.907   7.295 -1.0910  0.6748  1.9285
 1800TIP3    H226960   4.254   0.907   7.322 -1.4709  1.7617  0.0454
 1801TIP3   OH226961   2.660   2.188   0.862 -0.0691  0.2789 -0.6575
 1801TIP3    H126962   2.654   2.279   0.833 -2.2047  0.2430 -0.4979
 1801TIP3    H226963   2.617   2.188   0.948  1.1211 -0.6595 -0.0214
 1802TIP3   OH226964   5.708   3.251   7.667  0.3958  0.3060 -0.9032
 1802TIP3    H126965   5.699   3.340   7.633 -0.7426  0.6174  0.1506
 1802TIP3    H226966   5.766   3.260   7.743 -1.3096  0.5337  0.4408
 1803TIP3   OH226967   1.040   5.980   0.057  0.7791  0.3263 -0.7505
 1803TIP3    H126968   0.968   5.988  -0.004  0.2956 -1.6233 -0.5211
 1803TIP3    H226969   1.076   5.892   0.041  0.7514 -0.1974  1.5869
 1804TIP3   OH226970   2.757   1.066   8.604 -0.2810  0.0379 -0.3591
 1804TIP3    H126971   2.678   1.028   8.642 -0.6270 -0.3417 -1.4206
 1804TIP3    H226972   2.764   1.025   8.518  1.1138  0.0192 -0.2542
 1805TIP3   OH226973   0.334   3.020   0.067  0.2006  0.0506 -0.0283
 1805TIP3    H126974   0.301   3.100   0.026  0.6577  0.5201  0.5105
 1805TIP3    H226975   0.280   2.950   0.030  0.7739  0.4160 -1.6689
 1806TIP3   OH226976   2.716   1.968   0.648 -0.3041 -0.9660 -0.2999
 1806TIP3    H126977   2.676   2.049   0.680  0.4176 -1.1083  1.0555
 1806TIP3    H226978   2.714   1.910   0.724  1.0021 -1.5257 -0.6648
 1807TIP3   OH226979   1.140   1.528   7.863  0.5624  0.6947 -0.0494
 1807TIP3    H126980   1.178   1.471   7.796 -1.1476 -0.5266 -0.0437
 1807TIP3    H226981   1.165   1.486   7.946  1.5037  1.4434  0.0706
 1808TIP3   OH226982   5.625   4.488   7.517  0.4411 -0.1413 -0.3543
 1808TIP3    H126983   5.551   4.427   7.507 -0.1639  0.3681  0.7862
 1808TIP3    H226984   5.672   4.483   7.434 -2.0249  1.0244 -1.9389
 1809TIP3   OH226985   0.490   4.054   2.093  0.3650  0.2636 -0.1712
 1809TIP3    H126986   0.441   4.128   2.058 -0.1996 -0.0251  0.0038
 1809TIP3    H226987   0.573   4.093   2.123 -0.6206  1.1636  1.5541
 1810TIP3   OH226988   5.170   0.798   7.982 -0.0360  0.3935  0.1802
 1810TIP3    H126989   5.203   0.711   8.000 -0.9764 -0.0422 -0.1424
 1810TIP3    H226990   5.183   0.847   8.063 -1.8741 -0.7924  1.2566
 1811TIP3   OH226991   2.315   5.871   8.048  0.2504  0.5630 -0.0920
 1811TIP3    H126992   2.318   5.966   8.041 -0.3030  0.6874  1.0837
 1811TIP3    H226993   2.266   5.842   7.971 -4.8027  1.7169  2.3456
 1812TIP3   OH226994   2.849   4.978   7.313  0.3902  0.2939  0.3913
 1812TIP3    H126995   2.862   4.884   7.300  2.6321  0.6908 -0.9006
 1812TIP3    H226996   2.754   4.989   7.316  0.0706 -2.1333  1.8305
 1813TIP3   OH226997   1.732   0.610   6.546 -0.8133  0.1755 -0.1791
 1813TIP3    H126998   1.746   0.518   6.525  0.5892 -0.1425  1.8554
 1813TIP3    H226999   1.804   0.656   6.503 -0.4917  0.0828  0.2523
 1814TIP3   OH227000   5.616   4.796   0.072 -0.2860 -0.1044 -0.2530
 1814TIP3    H127001   5.560   4.783  -0.004  0.0245 -1.0154 -0.3372
 1814TIP3    H227002   5.672   4.869   0.048  0.0878 -0.6444 -1.0709
 1815TIP3   OH227003   2.057   4.371   8.223  0.2828 -0.4330 -0.4816
 1815TIP3    H127004   2.133   4.360   8.279  0.3859 -0.6450 -0.6642
 1815TIP3    H227005   2.005   4.438   8.267  1.3011  0.8235 -1.1378
 1816TIP3   OH227006   5.604   1.218   6.934 -0.1157  0.1323  0.1477
 1816TIP3    H127007   5.540   1.213   7.005 -1.2076 -2.6648 -0.9142
 1816TIP3    H227008   5.560   1.270   6.866  0.4628  1.7798  0.9735
 1817TIP3   OH227009   3.385   5.313   0.019  0.0807  0.4025  0.0280
 1817TIP3    H127010   3.457   5.329   0.081  1.8987  1.3012 -2.1753
 1817TIP3    H227011   3.355   5.400  -0.006  0.7230  0.1501 -1.7623
 1818TIP3   OH227012   1.081   3.640   7.712  0.2878  0.1876 -0.1927
 1818TIP3    H127013   0.993   3.613   7.739  0.3331  1.1515  1.0038
 1818TIP3    H227014   1.113   3.568   7.658 -0.4350 -1.1478  1.0777
 1819TIP3   OH227015   2.579   6.642   8.037  0.0627 -0.5809  0.3429
 1819TIP3    H127016   2.562   6.735   8.046 -1.8683 -0.9308  0.7232
 1819TIP3    H227017   2.674   6.636   8.024  0.3669  1.3436  1.3314
 1820TIP3   OH227018   4.482   6.165   0.623  0.1702  0.2872  0.1560
 1820TIP3    H127019   4.530   6.246   0.640  0.7697 -0.1262  0.4726
 1820TIP3    H227020   4.453   6.136   0.709 -1.4524  1.0125 -0.1277
 1821TIP3   OH227021   2.442   4.924   7.614  0.6044 -0.3038  0.0544
 1821TIP3    H127022   2.369   4.927   7.553 -1.0178  3.7264  1.8663
 1821TIP3    H227023   2.418   4.855   7.676 -0.9366 -0.0784 -0.2538
 1822TIP3   OH227024   5.636   4.414   0.392  0.0917 -0.4684 -0.1676
 1822TIP3    H127025   5.564   4.353   0.412 -0.2396  0.5417  2.0376
 1822TIP3    H227026   5.599   4.473   0.326 -0.3042 -1.3418 -0.7507
 1823TIP3   OH227027   2.508   6.481   7.371  0.5824  0.4179  0.0976
 1823TIP3    H127028   2.453   6.560   7.376  0.6505  0.6559 -2.2076
 1823TIP3    H227029   2.578   6.504   7.310  0.6256 -1.4092 -0.5950
 1824TIP3   OH227030   2.515   4.797   7.979  0.6356 -0.0119  0.3044
 1824TIP3    H127031   2.457   4.870   7.955 -2.5577 -2.4741 -0.1244
 1824TIP3    H227032   2.532   4.810   8.072 -0.4106  0.9182  0.3841
 1825TIP3   OH227033   2.659   3.998   2.015  0.2304 -0.2601 -0.2884
 1825TIP3    H127034   2.744   3.982   2.055 -0.0827  1.3787  1.1284
 1825TIP3    H227035   2.660   4.092   1.993 -1.7264  0.1505  1.1301
 1826TIP3   OH227036   3.063   0.046   8.462 -0.1585  0.0789  0.1669
 1826TIP3    H127037   3.126  -0.026   8.457  0.1997  0.4194 -0.3292
 1826TIP3    H227038   2.995   0.024   8.400  0.0791  0.2860 -0.1703
 1827TIP3   OH227039   2.997   1.863   2.037 -0.5679  0.5354  0.3532
 1827TIP3    H127040   2.950   1.937   2.076 -1.3150 -0.4428  1.3596
 1827TIP3    H227041   3.087   1.873   2.068 -0.7844  0.7156  0.9285
 1828TIP3   OH227042   3.173   2.725   7.760 -0.3094 -0.2979 -0.0927
 1828TIP3    H127043   3.123   2.768   7.830 -0.8889 -1.7372  0.4195
 1828TIP3    H227044   3.151   2.633   7.768  0.7194 -0.6823 -1.3047
 1829TIP3   OH227045   5.460   1.514   0.968 -0.0088  0.0381 -0.3612
 1829TIP3    H127046   5.495   1.584   1.024 -1.9427  0.5033  0.3553
 1829TIP3    H227047   5.376   1.548   0.938 -0.2722 -1.3663 -1.3089
 1830TIP3   OH227048   3.070   5.220   0.746  0.1222 -0.1370 -0.0367
 1830TIP3    H127049   3.027   5.156   0.690  0.6994 -1.2404  0.7533
 1830TIP3    H227050   3.003   5.288   0.760 -1.1094 -1.4091  0.5208
 1831TIP3   OH227051   3.433   3.100   7.615 -0.1057  0.1005  0.1569
 1831TIP3    H127052   3.357   3.045   7.594 -0.1409 -0.3894  1.4743
 1831TIP3    H227053   3.507   3.054   7.576  0.0227 -1.5443  2.1198
 1832TIP3   OH227054   0.658   1.747   6.141  0.0926  0.2363  0.0354
 1832TIP3    H127055   0.602   1.708   6.074 -0.6348  1.0408  0.1647
 1832TIP3    H227056   0.643   1.841   6.133  0.0546  0.3467  1.2832
 1833TIP3   OH227057   6.287   4.941   8.207 -0.3046 -0.5200  0.6925
 1833TIP3    H127058   6.358   4.881   8.228  1.6687  1.3729 -0.1352
 1833TIP3    H227059   6.307   5.020   8.259 -1.9484 -0.0304  0.6250
 1834TIP3   OH227060   0.054   1.821   6.901 -0.3495  0.2139 -0.5291
 1834TIP3    H127061   0.102   1.815   6.983 -0.4233  2.5941 -0.2347
 1834TIP3    H227062  -0.027   1.772   6.916 -0.3415  0.5878  0.7989
 1835TIP3   OH227063   4.954   0.045   0.995 -0.2755  0.1172  0.3362
 1835TIP3    H127064   4.944   0.138   0.976  1.4053 -0.1717 -2.6281
 1835TIP3    H227065   4.866   0.009   0.983 -0.2689  0.8128 -2.6774
 1836TIP3   OH227066   5.068   3.649   7.377  0.0808 -0.5212 -0.0756
 1836TIP3    H127067   5.060   3.700   7.297 -0.5963 -0.2887  0.1396
 1836TIP3    H227068   5.013   3.572   7.362 -2.0126  0.6596  1.0602
 1837TIP3   OH227069   4.004   4.607   7.342 -0.6158  0.0125 -0.0521
 1837TIP3    H127070   3.974   4.652   7.263  0.5726 -0.4094 -0.7589
 1837TIP3    H227071   4.041   4.525   7.311  1.2152  0.4785  0.7906
 1838TIP3   OH227072   5.634   6.294   7.241 -0.8258  0.3252  0.3534
 1838TIP3    H127073   5.632   6.369   7.301 -1.1636  1.9649 -1.6208
 1838TIP3    H227074   5.682   6.326   7.165 -0.3520 -1.7251 -0.2679
 1839TIP3   OH227075   4.746   4.878   8.680  0.4356 -0.4228 -0.0793
 1839TIP3    H127076   4.726   4.792   8.716  1.3709 -0.7961 -0.4318
 1839TIP3    H227077   4.744   4.865   8.585 -0.6798  0.2463 -0.1704
 1840TIP3   OH227078   4.690   4.349   0.015  0.1627 -0.2122 -0.6246
 1840TIP3    H127079   4.700   4.444   0.013  0.1353 -0.1444  1.0176
 1840TIP3    H227080   4.779   4.315   0.008  0.2670 -0.0250 -0.2485
 1841TIP3   OH227081   4.673   4.771   0.270  0.5690 -0.2953 -0.1013
 1841TIP3    H127082   4.598   4.715   0.251 -0.8844  1.0381  1.3988
 1841TIP3    H227083   4.649   4.856   0.232  0.6688  0.5064  1.5432
 1842TIP3   OH227084   0.755   3.357   1.229 -0.0741  0.4004  0.0857
 1842TIP3    H127085   0.732   3.433   1.282 -2.8672  0.7022 -1.3869
 1842TIP3    H227086   0.708   3.285   1.270 -1.1689  0.3893 -1.1513
 1843TIP3   OH227087   2.478   2.536   7.209 -0.4784  0.5430 -0.0077
 1843TIP3    H127088   2.566   2.567   7.187 -0.0850 -0.2992  0.3439
 1843TIP3    H227089   2.470   2.454   7.161  0.4984 -1.4993  3.0675
 1844TIP3   OH227090   0.076   2.370   0.350 -0.0600  0.4450  0.0220
 1844TIP3    H127091   0.130   2.291   0.359  0.8240  0.6562 -2.6669
 1844TIP3    H227092   0.129   2.440   0.389  0.9284  0.3551 -1.0960
 1845TIP3   OH227093   4.179   6.023   1.189  0.1891  0.0483  0.5482
 1845TIP3    H127094   4.136   5.985   1.112 -0.9646  3.0508 -0.4559
 1845TIP3    H227095   4.260   6.060   1.154  0.4194  0.0682  1.1026
 1846TIP3   OH227096   1.231   4.067   8.306 -0.2496  0.3577  0.6868
 1846TIP3    H127097   1.180   4.044   8.384 -0.6820  1.2544  0.6859
 1846TIP3    H227098   1.194   4.012   8.236 -0.7577  0.5134  0.8319
 1847TIP3   OH227099   5.438   2.036   1.914 -0.1240  0.2451  0.3804
 1847TIP3    H127100   5.380   2.108   1.893  1.1227  0.6879 -1.7658
 1847TIP3    H227101   5.509   2.075   1.966 -0.3716  0.1894  0.7694
 1848TIP3   OH227102   2.814   1.969   7.936 -0.1916  0.9197  0.0936
 1848TIP3    H127103   2.814   2.026   8.013  2.2481  1.4264 -0.2070
 1848TIP3    H227104   2.829   2.028   7.862 -1.1386  0.2686 -0.6413
 1849TIP3   OH227105   0.254   0.370   8.788 -0.3818  0.1258 -0.1234
 1849TIP3    H127106   0.197   0.326   8.726 -0.5287 -0.5747  0.4963
 1849TIP3    H227107   0.304   0.432   8.735 -1.1678  0.2008 -0.7842
 1850TIP3   OH227108   4.067   2.203   0.599  0.0979 -0.2281 -0.2677
 1850TIP3    H127109   4.041   2.270   0.535 -0.5149  2.0908  2.2384
 1850TIP3    H227110   4.001   2.208   0.668  1.3506 -1.8083  1.1420
 1851TIP3   OH227111   2.511   2.357   0.509  0.2320 -0.0285  0.4008
 1851TIP3    H127112   2.438   2.362   0.448 -0.3129 -0.0210  1.0472
 1851TIP3    H227113   2.489   2.420   0.578  1.4277  0.8901 -0.0103
 1852TIP3   OH227114   1.999   4.581   8.397 -0.3766  0.3571 -0.7355
 1852TIP3    H127115   2.057   4.654   8.422  0.5142 -1.1239  2.0096
 1852TIP3    H227116   1.929   4.583   8.462 -0.0916 -1.4394 -0.3203
 1853TIP3   OH227117   3.070   3.346   6.878 -0.2190  0.4187 -0.5316
 1853TIP3    H127118   2.996   3.382   6.829 -0.6438 -0.6611 -0.7079
 1853TIP3    H227119   3.147   3.384   6.836 -0.6577  1.5670 -0.3394
 1854TIP3   OH227120   4.477   0.807   0.992 -0.8145 -0.4984  0.6185
 1854TIP3    H127121   4.405   0.814   0.930  1.9106  0.2412 -2.7660
 1854TIP3    H227122   4.498   0.714   0.994  0.7436 -0.2871 -1.8572
 1855TIP3   OH227123   5.790   1.172   8.343  0.1301  0.0885 -0.0414
 1855TIP3    H127124   5.787   1.184   8.248 -1.8992 -1.6874 -0.2772
 1855TIP3    H227125   5.846   1.096   8.356  0.9846  0.7594  0.2608
 1856TIP3   OH227126   5.867   6.514   8.317  0.2764  0.1942  0.4375
 1856TIP3    H127127   5.911   6.479   8.240 -1.0677 -0.5569 -0.0229
 1856TIP3    H227128   5.843   6.603   8.293 -0.5038 -0.1702 -0.2017
 1857TIP3   OH227129   0.655   5.012   1.753  0.2770  0.0330  0.0665
 1857TIP3    H127130   0.656   4.933   1.806  0.2324  0.1353  0.2199
 1857TIP3    H227131   0.568   5.012   1.712 -0.2343  0.6996  1.1189
 1858TIP3   OH227132   0.364   4.674   0.454 -0.0855 -0.0961 -0.1292
 1858TIP3    H127133   0.427   4.605   0.473  0.0247  0.0332 -0.0198
 1858TIP3    H227134   0.307   4.677   0.531 -0.7098 -0.7345 -0.5505
 1859TIP3   OH227135   0.319   5.124   7.996  0.1467 -0.2723 -0.3459
 1859TIP3    H127136   0.246   5.182   8.018  1.0637  1.0295 -0.5892
 1859TIP3    H227137   0.292   5.038   8.027 -0.8888  0.4551  0.8509
 1860TIP3   OH227138   0.939   1.675   0.709  0.5655  0.6739  0.3920
 1860TIP3    H127139   0.865   1.674   0.648  0.7316 -0.7494  0.1700
 1860TIP3    H227140   0.909   1.728   0.782  0.0576  1.7304 -0.5475
 1861TIP3   OH227141   2.616   5.571   7.150 -0.1661  0.4928 -0.5814
 1861TIP3    H127142   2.645   5.559   7.060  0.0912  0.1453 -0.4576
 1861TIP3    H227143   2.695   5.560   7.202 -0.4903 -0.3633 -0.2430
 1862TIP3   OH227144   4.345   0.497   7.279  0.5430  0.4309  0.0148
 1862TIP3    H127145   4.419   0.452   7.237 -0.1097 -0.2838 -0.3867
 1862TIP3    H227146   4.347   0.466   7.370 -0.1368 -0.7448 -0.3528
 1863TIP3   OH227147   1.428   3.184   7.517  0.3766 -0.5714 -0.5758
 1863TIP3    H127148   1.473   3.262   7.486 -0.7742  0.6103  0.5972
 1863TIP3    H227149   1.393   3.143   7.437  0.1682  0.6431 -1.1264
 1864TIP3   OH227150   1.435   6.474   7.302  0.0306  0.1720  0.3592
 1864TIP3    H127151   1.346   6.465   7.268  0.4383  0.2560 -0.7684
 1864TIP3    H227152   1.480   6.395   7.273  0.5440  0.5145  0.2052
 1865TIP3   OH227153   6.045   4.919   2.228 -0.4875  0.3888  0.0361
 1865TIP3    H127154   5.987   4.865   2.283 -1.7522  1.3184 -0.3333
 1865TIP3    H227155   6.105   4.960   2.291  0.5210 -1.4093  0.3218
 1866TIP3   OH227156   4.991   2.667   8.375 -0.0622  0.1388  0.1827
 1866TIP3    H127157   4.900   2.672   8.347 -0.1462 -0.2167  0.3891
 1866TIP3    H227158   4.995   2.721   8.455  0.2197  1.3178 -0.5922
 1867TIP3   OH227159   1.908   1.816   7.124  0.5602 -0.2815 -0.1234
 1867TIP3    H127160   1.911   1.859   7.038 -0.1614 -0.9405 -0.4852
 1867TIP3    H227161   1.823   1.841   7.160  0.9600  0.1944  0.5195
 1868TIP3   OH227162   5.810   5.982   7.176  0.4982  0.2733  0.5668
 1868TIP3    H127163   5.860   6.010   7.253 -0.2907  0.1977  1.1224
 1868TIP3    H227164   5.869   5.997   7.102  1.5807 -0.4460  1.2658
 1869TIP3   OH227165   3.573   3.428   8.016 -0.0771  0.3641  0.2747
 1869TIP3    H127166   3.546   3.385   7.935  0.8548  0.3023 -0.0113
 1869TIP3    H227167   3.611   3.512   7.987 -1.1355  1.0318  0.7627
 1870TIP3   OH227168   0.659   3.152   1.402 -0.3888  0.2387  0.2896
 1870TIP3    H127169   0.655   3.141   1.497 -4.3711 -0.6873  0.1787
 1870TIP3    H227170   0.574   3.190   1.378  1.0399  1.9113 -2.8040
 1871TIP3   OH227171   3.178   1.056   6.389  0.3378 -0.3846  0.1090
 1871TIP3    H127172   3.155   1.149   6.386  1.4515 -0.0076  1.8408
 1871TIP3    H227173   3.117   1.019   6.453 -1.0013 -1.1802 -1.5419
 1872TIP3   OH227174   0.406   1.667   1.628 -0.4033 -0.4234 -0.1928
 1872TIP3    H127175   0.442   1.740   1.678  1.2544 -0.6409 -0.9979
 1872TIP3    H227176   0.314   1.663   1.653  0.5649 -1.3461  3.8592
 1873TIP3   OH227177   3.344   2.291   0.515  0.0041 -0.7068 -0.7836
 1873TIP3    H127178   3.307   2.281   0.603  1.0408 -0.0059 -0.2582
 1873TIP3    H227179   3.376   2.204   0.492  0.8669 -0.6220  0.0585
 1874TIP3   OH227180   5.677   5.560   0.222  0.1608  0.5949  0.2713
 1874TIP3    H127181   5.606   5.511   0.264 -1.0811  1.7952 -0.3136
 1874TIP3    H227182   5.659   5.652   0.243  2.0879  0.8790  0.8605
 1875TIP3   OH227183   2.878   1.537   8.340  0.3470 -0.4674 -0.3100
 1875TIP3    H127184   2.919   1.454   8.317  0.5026 -0.5399  0.2203
 1875TIP3    H227185   2.815   1.515   8.408  0.3700 -0.1572 -0.1849
 1876TIP3   OH227186   0.856   2.191   7.697  0.4363  0.0647 -0.7401
 1876TIP3    H127187   0.849   2.197   7.602  1.4130  0.4690 -0.7995
 1876TIP3    H227188   0.950   2.199   7.715  0.7972 -3.9873 -0.0051
 1877TIP3   OH227189   3.475   4.035   7.333  0.0982 -0.3361  0.4178
 1877TIP3    H127190   3.545   4.097   7.357  0.2936  0.0655 -1.1130
 1877TIP3    H227191   3.416   4.086   7.277 -0.3332 -1.2281  0.0523
 1878TIP3   OH227192   6.208   3.850   8.143  0.2280  0.4867 -0.5196
 1878TIP3    H127193   6.205   3.759   8.174 -2.9242  0.8126  0.5151
 1878TIP3    H227194   6.207   3.843   8.048 -1.9236 -0.6642 -0.4810
 1879TIP3   OH227195   1.555   1.964   7.443 -0.5922  0.7619  0.0871
 1879TIP3    H127196   1.599   1.953   7.358  0.7707 -0.7424  0.9367
 1879TIP3    H227197   1.465   1.988   7.420 -0.5385 -0.6231 -1.8205
 1880TIP3   OH227198   0.138   4.987   7.222  0.5326 -0.0517  0.9408
 1880TIP3    H127199   0.169   5.070   7.187  1.4477  0.2077  2.2503
 1880TIP3    H227200   0.054   5.007   7.263  0.6806  0.1967  1.1221
 1881TIP3   OH227201   1.391   4.273   8.245 -0.0326  0.3871 -0.1051
 1881TIP3    H127202   1.388   4.328   8.323 -0.2159 -1.8073  1.5154
 1881TIP3    H227203   1.309   4.224   8.247  1.4076 -2.1563  0.2557
 1882TIP3   OH227204   2.422   2.244   1.524  0.1087 -0.0036 -0.0008
 1882TIP3    H127205   2.445   2.281   1.610  1.7588  0.1953 -0.5009
 1882TIP3    H227206   2.487   2.175   1.510 -0.0877  0.0373 -1.1435
 1883TIP3   OH227207   5.950   2.251   1.828  0.2664  0.0796 -0.2170
 1883TIP3    H127208   5.889   2.313   1.869  0.9194  0.7387 -0.2126
 1883TIP3    H227209   5.954   2.177   1.888 -0.6905 -0.0624 -0.3254
 1884TIP3   OH227210   4.912   3.436   7.421 -0.4594 -0.3767 -0.1985
 1884TIP3    H127211   4.856   3.359   7.422 -0.8352 -0.1073  0.6176
 1884TIP3    H227212   4.853   3.509   7.439  0.0548 -0.0164  0.0613
 1885TIP3   OH227213   5.921   5.051   0.460  0.2600 -0.0283 -0.0472
 1885TIP3    H127214   5.832   5.085   0.448  0.7096  0.5238 -2.1834
 1885TIP3    H227215   5.967   5.075   0.380  2.2282 -0.7083  0.8231
 1886TIP3   OH227216   3.010   5.948   0.415 -0.4503 -0.3007 -1.0013
 1886TIP3    H127217   3.045   5.986   0.495  4.8329 -1.6672 -2.2523
 1886TIP3    H227218   2.956   6.017   0.376 -0.6525  1.4717  2.1707
 1887TIP3   OH227219   4.496   2.428   1.127 -0.0220 -0.3090  0.4649
 1887TIP3    H127220   4.458   2.486   1.193  1.2047  0.4949  0.4880
 1887TIP3    H227221   4.553   2.370   1.177  0.0561 -0.4232  0.2405
 1888TIP3   OH227222   4.837   4.587   6.902 -0.3060 -0.6987  0.7109
 1888TIP3    H127223   4.926   4.618   6.882  0.3865 -1.7502  1.9974
 1888TIP3    H227224   4.784   4.618   6.829  1.1048  0.0173 -0.0570
 1889TIP3   OH227225   2.654   6.030   8.491  0.0624  0.3986  0.5324
 1889TIP3    H127226   2.600   5.955   8.466 -1.1314  1.3742  0.0832
 1889TIP3    H227227   2.720   5.994   8.550 -0.2567 -1.0603  0.0346
 1890TIP3   OH227228   6.496   3.885   8.803 -0.2433 -0.3141  0.6973
 1890TIP3    H127229   6.409   3.925   8.809 -0.6430 -1.2670  1.4480
 1890TIP3    H227230   6.480   3.791   8.800  0.7371 -0.4812  0.1713
 1891TIP3   OH227231   0.312   4.079   0.250 -0.7943 -0.4421  0.0177
 1891TIP3    H127232   0.294   4.173   0.253  0.1941  0.0380 -3.7079
 1891TIP3    H227233   0.231   4.040   0.217 -0.6336 -0.6597 -0.1197
 1892TIP3   OH227234   1.204   1.100   8.690 -0.3480  0.4686  0.3184
 1892TIP3    H127235   1.136   1.062   8.635 -0.3287 -0.3913  0.8594
 1892TIP3    H227236   1.163   1.108   8.776 -0.2399  1.3850  0.2891
 1893TIP3   OH227237   1.318   0.959   8.332  0.1642 -0.0207  0.2561
 1893TIP3    H127238   1.361   0.874   8.329  0.0472 -0.0557 -1.2821
 1893TIP3    H227239   1.385   1.021   8.304  0.6232  0.6057  2.5442
 1894TIP3   OH227240   6.190   3.199   7.684 -0.5943  0.3576 -0.0777
 1894TIP3    H127241   6.195   3.229   7.593  0.4020  1.3108  0.2744
 1894TIP3    H227242   6.255   3.129   7.690 -0.2020  0.7356  0.0662
 1895TIP3   OH227243   1.088   6.537   1.914 -0.0330  0.2092  0.0022
 1895TIP3    H127244   1.102   6.568   2.004  0.7659 -0.6131  0.1702
 1895TIP3    H227245   1.166   6.565   1.867 -0.2901  0.3226 -0.3607
 1896TIP3   OH227246   6.563   5.663   1.938  0.1719  0.2543  0.1962
 1896TIP3    H127247   6.557   5.646   2.032 -0.5791 -1.7845 -0.1654
 1896TIP3    H227248   6.656   5.668   1.921  0.3507 -0.2494  0.9335
 1897TIP3   OH227249   4.404   3.122   0.696 -0.0643 -0.1608 -0.1425
 1897TIP3    H127250   4.425   3.039   0.653 -1.9415 -0.5235 -0.4625
 1897TIP3    H227251   4.341   3.098   0.764 -2.5463  1.2107 -1.7973
 1898TIP3   OH227252   0.436   1.215   8.188 -0.1042  0.1728  0.2706
 1898TIP3    H127253   0.447   1.173   8.103  0.5257  1.8979 -0.5393
 1898TIP3    H227254   0.525   1.225   8.222 -0.1147  1.8406 -0.0895
 1899TIP3   OH227255   5.638   3.020   6.562  0.2241  0.2121  0.2173
 1899TIP3    H127256   5.682   3.105   6.560  1.1357 -0.2011  1.5496
 1899TIP3    H227257   5.691   2.964   6.506  0.8917 -0.0485  1.1006
 1900TIP3   OH227258   1.708   2.466   1.217  0.4253  0.1962 -0.6217
 1900TIP3    H127259   1.662   2.508   1.289  0.5086 -0.3426 -0.2491
 1900TIP3    H227260   1.783   2.422   1.258  0.4345 -0.1715 -1.0185
 1901TIP3   OH227261   5.217   5.569   7.916 -0.3384  0.4316 -0.3698
 1901TIP3    H127262   5.300   5.562   7.964 -0.5899 -0.4571 -0.0415
 1901TIP3    H227263   5.224   5.651   7.868  1.3460 -0.2957 -1.4991
 1902TIP3   OH227264   5.132   0.965   6.332  0.5362  0.5258  0.1865
 1902TIP3    H127265   5.211   0.994   6.287  1.5583 -1.1985  0.7854
 1902TIP3    H227266   5.145   0.872   6.347 -2.8079 -0.5208 -2.1441
 1903TIP3   OH227267   2.985   2.432   0.916 -0.1098  0.3343  0.3314
 1903TIP3    H127268   2.927   2.500   0.881  1.1589  1.0669 -0.4324
 1903TIP3    H227269   3.030   2.474   0.990 -1.7322 -0.7601  2.0164
 1904TIP3   OH227270   6.686   1.615   1.540 -0.0104  0.0532  0.5483
 1904TIP3    H127271   6.666   1.708   1.546  0.2072  0.0288  2.0047
 1904TIP3    H227272   6.601   1.574   1.522  0.0368  0.5753 -1.0558
 1905TIP3   OH227273   1.130   0.251   0.615  0.7697  0.1494  0.0735
 1905TIP3    H127274   1.181   0.171   0.624  0.1959 -0.3356 -0.8479
 1905TIP3    H227275   1.056   0.227   0.559 -0.8119  0.6775  1.7961
 1906TIP3   OH227276   2.960   3.887   8.555  0.0610  0.3452 -0.1640
 1906TIP3    H127277   3.028   3.943   8.520  0.5322  0.0086  0.2027
 1906TIP3    H227278   2.886   3.899   8.496  0.0982  1.4619 -0.0098
 1907TIP3   OH227279   6.107   1.820   8.284  0.4635  0.2624  0.4755
 1907TIP3    H127280   6.064   1.813   8.369  0.5167 -1.4931  0.4075
 1907TIP3    H227281   6.048   1.774   8.224  1.2716 -0.0591 -0.0865
 1908TIP3   OH227282   2.582   1.858   7.156 -0.2496  0.9349  0.2896
 1908TIP3    H127283   2.631   1.889   7.232  1.6632 -1.0783 -0.0292
 1908TIP3    H227284   2.630   1.892   7.081 -1.2420  1.6201 -0.0636
 1909TIP3   OH227285   5.788   5.603   1.563  0.2295  0.0967  0.6720
 1909TIP3    H127286   5.851   5.655   1.613 -0.0704  1.5711 -0.4235
 1909TIP3    H227287   5.818   5.609   1.473  1.0598 -2.9554  0.6462
 1910TIP3   OH227288   2.789   5.095   8.130 -0.2759  0.3539 -0.6304
 1910TIP3    H127289   2.697   5.118   8.145 -0.5998 -0.6137 -0.9986
 1910TIP3    H227290   2.808   5.028   8.196  0.3840  1.0498 -0.1048
 1911TIP3   OH227291   6.739   3.367   0.620  0.0281  0.3204  0.3949
 1911TIP3    H127292   6.764   3.394   0.531 -2.9636  0.0106 -0.6710
 1911TIP3    H227293   6.712   3.276   0.611 -1.0016  0.4897  1.4384
 1912TIP3   OH227294   1.641   0.574   0.726  0.5950 -0.0291 -0.8018
 1912TIP3    H127295   1.677   0.659   0.752  2.0395 -0.2836 -1.8887
 1912TIP3    H227296   1.580   0.594   0.655 -1.0664  0.3308  0.6358
 1913TIP3   OH227297   4.442   4.181   0.781  0.1645  0.3017  0.5646
 1913TIP3    H127298   4.412   4.156   0.694  1.3049 -2.4329  0.8643
 1913TIP3    H227299   4.377   4.245   0.811 -1.3757 -0.1951 -1.4793
 1914TIP3   OH227300   6.448   2.462   6.398 -0.0920  0.4712 -0.2209
 1914TIP3    H127301   6.362   2.469   6.358 -0.9576 -0.3425  1.4296
 1914TIP3    H227302   6.499   2.411   6.334 -1.0538  0.2809 -0.8605
 1915TIP3   OH227303   3.472   3.783   0.523  0.1772  0.1465  0.3267
 1915TIP3    H127304   3.410   3.741   0.464  0.3656  0.7100 -0.2809
 1915TIP3    H227305   3.552   3.731   0.517 -0.3348 -0.8019  1.3925
 1916TIP3   OH227306   5.130   4.832   1.773 -0.1735  0.1939 -0.0643
 1916TIP3    H127307   5.179   4.832   1.855 -0.5911  0.3535  0.1899
 1916TIP3    H227308   5.081   4.750   1.773 -1.0755  0.7213  0.4012
 1917TIP3   OH227309   6.001   1.618   1.209  0.0820  0.1444 -0.5594
 1917TIP3    H127310   5.944   1.681   1.164 -0.2469  1.5248  1.6182
 1917TIP3    H227311   6.076   1.671   1.237  0.6121 -0.8191 -0.1207
 1918TIP3   OH227312   5.393   5.192   7.145 -0.1773  0.8399 -0.1465
 1918TIP3    H127313   5.377   5.245   7.222 -0.7751  0.2581  0.1355
 1918TIP3    H227314   5.312   5.196   7.095  0.3804  1.6439 -1.0180
 1919TIP3   OH227315   1.648   3.491   8.253 -0.1175 -0.3331  0.0611
 1919TIP3    H127316   1.686   3.422   8.306 -0.8688 -0.1495  0.8731
 1919TIP3    H227317   1.631   3.450   8.168  3.7117  0.1092 -1.1031
 1920TIP3   OH227318   2.563   6.612   0.963  0.0411  0.6499 -0.1224
 1920TIP3    H127319   2.598   6.646   1.045  0.8933 -1.6047  0.5049
 1920TIP3    H227320   2.637   6.566   0.922 -0.5752  1.0533 -1.7888
 1921TIP3   OH227321   2.211   6.420   7.389 -0.4586  0.0885 -0.5034
 1921TIP3    H127322   2.185   6.464   7.470 -2.2295 -0.1561 -0.9172
 1921TIP3    H227323   2.275   6.355   7.418 -1.3164 -0.2356  0.7629
 1922TIP3   OH227324   5.250   5.809   0.397  0.1075  0.0100 -0.3004
 1922TIP3    H127325   5.193   5.777   0.326  1.6367 -0.5517 -1.3221
 1922TIP3    H227326   5.275   5.730   0.445 -0.3986  0.3204  0.4894
 1923TIP3   OH227327   3.054   0.425   1.931  0.1153 -0.1943  1.1116
 1923TIP3    H127328   3.139   0.468   1.929 -0.3557  0.7671  1.3570
 1923TIP3    H227329   2.999   0.481   1.985 -0.6127 -0.9274  1.1584
 1924TIP3   OH227330   1.634   2.253   6.849  0.1591 -0.0872 -0.1262
 1924TIP3    H127331   1.728   2.245   6.862  0.4071  1.6878 -0.5284
 1924TIP3    H227332   1.625   2.306   6.770 -1.1421  1.0113  0.7041
 1925TIP3   OH227333   5.714   4.074   0.471 -0.7286  0.3532  0.3688
 1925TIP3    H127334   5.747   4.087   0.382  1.7450  3.2177  1.5317
 1925TIP3    H227335   5.631   4.121   0.474 -1.5550 -0.9531 -0.7199
 1926TIP3   OH227336   4.513   6.376   1.252  0.5496  0.5856 -0.2215
 1926TIP3    H127337   4.490   6.283   1.250  2.1819  0.1690 -1.0616
 1926TIP3    H227338   4.479   6.407   1.336  1.0355 -1.0540  0.6134
 1927TIP3   OH227339   3.444   0.052   0.899  0.7116 -0.4593  0.1234
 1927TIP3    H127340   3.489   0.058   0.983 -0.8716  0.5885  0.9477
 1927TIP3    H227341   3.351   0.065   0.920  0.3700  0.9721 -1.8982
 1928TIP3   OH227342   2.951   1.229   7.950  0.4364 -0.1854  0.5185
 1928TIP3    H127343   2.937   1.161   7.884  2.4429 -0.3960  0.2600
 1928TIP3    H227344   2.885   1.211   8.017 -0.8715 -0.6789 -0.8491
 1929TIP3   OH227345   1.039   3.239   7.580  0.1643  0.1652 -0.2860
 1929TIP3    H127346   1.099   3.309   7.553  0.8091 -0.8321 -1.5869
 1929TIP3    H227347   1.042   3.176   7.507 -1.7111 -0.3921  0.0720
 1930TIP3   OH227348   1.833   2.129   1.439  0.5565  0.5821  0.6003
 1930TIP3    H127349   1.857   2.047   1.398 -0.3686  0.2684  0.6632
 1930TIP3    H227350   1.891   2.194   1.399  1.9355 -0.2266  1.2168
 1931TIP3   OH227351   3.510   0.993   8.187  0.0518 -0.3504 -0.2966
 1931TIP3    H127352   3.566   1.057   8.144  1.6502 -0.0381  2.0595
 1931TIP3    H227353   3.449   1.046   8.239  1.4460 -0.6250  1.7410
 1932TIP3   OH227354   0.993   6.550   8.536  0.5276 -0.7163  0.3783
 1932TIP3    H127355   0.983   6.460   8.569 -0.8701 -0.2088  1.4330
 1932TIP3    H227356   0.944   6.604   8.598  0.3506  0.6455 -0.9016
 1933TIP3   OH227357   2.822   0.007   8.341  0.3607  0.4283  0.0087
 1933TIP3    H127358   2.731  -0.003   8.369  0.0189  1.6135 -0.5814
 1933TIP3    H227359   2.831   0.101   8.324  1.3227  0.1457 -1.1808
 1934TIP3   OH227360   3.825   3.614   7.100  0.7986 -0.1471  0.0384
 1934TIP3    H127361   3.899   3.598   7.041 -0.1484  1.0973 -1.5515
 1934TIP3    H227362   3.762   3.663   7.048 -0.9047 -0.6083  1.5422
 1935TIP3   OH227363   3.696   5.848   0.536  0.6357  0.4058  0.2064
 1935TIP3    H127364   3.657   5.929   0.502  0.4415 -1.4008 -4.6649
 1935TIP3    H227365   3.788   5.869   0.547  0.7226  1.2423 -1.6289
 1936TIP3   OH227366   4.340   4.819   7.281  0.8040  0.4309 -0.0587
 1936TIP3    H127367   4.272   4.842   7.218 -0.2092 -0.9383  0.4923
 1936TIP3    H227368   4.413   4.787   7.227  0.4992  0.6168 -0.5883
 1937TIP3   OH227369   5.628   6.005   7.947  0.0218  0.6569  0.4906
 1937TIP3    H127370   5.583   5.980   8.028 -0.5850  1.8984  0.5539
 1937TIP3    H227371   5.647   6.098   7.957  1.5941  0.4212 -0.0361
 1938TIP3   OH227372   5.559   4.946   2.391  0.0125  0.0004  0.1569
 1938TIP3    H127373   5.471   4.953   2.355  0.0458  1.4603  0.3202
 1938TIP3    H227374   5.599   4.874   2.342 -0.5026  0.8130 -1.5188
 1939TIP3   OH227375   5.703   3.087   6.142 -0.7191  0.9822 -0.5005
 1939TIP3    H127376   5.679   3.010   6.092 -0.7675  0.7561 -0.1353
 1939TIP3    H227377   5.620   3.121   6.175 -0.5937  0.4781  0.3610
 1940TIP3   OH227378   0.420   4.775   8.700  0.0976  0.1128 -0.6585
 1940TIP3    H127379   0.390   4.710   8.636 -2.1361  1.2498 -0.8657
 1940TIP3    H227380   0.434   4.855   8.649  2.3778 -0.0221 -0.3368
 1941TIP3   OH227381   2.078   0.090   0.971  0.0412 -0.4169  0.2578
 1941TIP3    H127382   2.031   0.074   1.053 -1.5634 -0.0314 -0.5509
 1941TIP3    H227383   2.113   0.178   0.980 -0.7686 -0.0911  0.2348
 1942TIP3   OH227384   0.859   3.992   7.484  0.0379 -0.0691 -0.1276
 1942TIP3    H127385   0.913   4.022   7.412 -0.5948  0.9345 -0.2046
 1942TIP3    H227386   0.769   3.997   7.450 -0.2432  0.1571  0.6259
 1943TIP3   OH227387   4.781   5.766   1.297  0.4317  0.3019  0.7172
 1943TIP3    H127388   4.815   5.681   1.268  0.1884  0.5472 -0.3213
 1943TIP3    H227389   4.842   5.830   1.262  0.4230  0.5793  1.2070
 1944TIP3   OH227390   1.392   2.115   6.843 -0.3625 -1.0292  0.4251
 1944TIP3    H127391   1.319   2.169   6.873  0.1016 -0.8422  1.2285
 1944TIP3    H227392   1.469   2.170   6.854 -0.0256 -1.4369  0.1440
 1945TIP3   OH227393   3.570   2.588   8.361 -0.2753 -0.0064 -0.2672
 1945TIP3    H127394   3.650   2.538   8.373 -0.3298 -0.0022  0.1320
 1945TIP3    H227395   3.545   2.615   8.449 -0.5680  0.2215 -0.4181
 1946TIP3   OH227396   2.875   5.921   1.201 -0.1035  0.2801 -0.1634
 1946TIP3    H127397   2.954   5.886   1.160  0.6309  0.0161  1.3958
 1946TIP3    H227398   2.804   5.894   1.143  0.5533 -2.7475  0.2703
 1947TIP3   OH227399   0.238   5.290   7.131  0.1044  0.1303 -0.4451
 1947TIP3    H127400   0.321   5.277   7.084  0.0656 -2.7873  0.0788
 1947TIP3    H227401   0.171   5.278   7.065 -0.0110  3.1633 -1.0146
 1948TIP3   OH227402   4.554   5.516   7.071 -0.3504 -0.0897 -0.0069
 1948TIP3    H127403   4.549   5.607   7.100  1.4848  0.0737 -0.0802
 1948TIP3    H227404   4.609   5.518   6.993 -1.0774 -1.1524 -0.5737
 1949TIP3   OH227405   6.789   1.035   0.721  0.0946 -0.1042  0.3780
 1949TIP3    H127406   6.863   1.072   0.673  0.3795 -1.0717  0.0452
 1949TIP3    H227407   6.718   1.031   0.658  0.5383 -1.6003 -0.0824
 1950TIP3   OH227408   0.935   5.119   1.938 -0.2004  0.5892  0.0582
 1950TIP3    H127409   0.993   5.165   1.999 -0.2903  0.7241  0.0425
 1950TIP3    H227410   0.921   5.181   1.866 -1.0643  0.9030  0.4770
 1951TIP3   OH227411   4.833   4.308   6.938  0.7429 -0.4154  0.0696
 1951TIP3    H127412   4.820   4.394   6.979 -0.6579  0.8337 -2.7886
 1951TIP3    H227413   4.924   4.311   6.907  0.5849  0.2165 -0.3606
 1952TIP3   OH227414   3.132   0.830   0.248 -0.2847 -0.0492  0.3657
 1952TIP3    H127415   3.193   0.838   0.175 -3.3056  0.0914 -2.3474
 1952TIP3    H227416   3.077   0.908   0.243 -1.7867 -0.9570  1.5930
 1953TIP3   OH227417   1.560   3.092   0.959  0.3075 -0.1440 -0.0217
 1953TIP3    H127418   1.547   3.183   0.931 -0.0224  0.2263  1.2759
 1953TIP3    H227419   1.552   3.095   1.054  0.7713 -1.4631  0.0748
 1954TIP3   OH227420   0.465   1.843   8.720 -0.3394 -0.0441  0.1460
 1954TIP3    H127421   0.420   1.779   8.774 -2.8472 -0.2595 -1.9869
 1954TIP3    H227422   0.533   1.793   8.675 -1.5813 -1.0418 -0.7009
 1955TIP3   OH227423   4.316   0.340   1.047  0.0453  0.0371 -0.4899
 1955TIP3    H127424   4.228   0.342   1.085 -0.2179 -0.2735 -1.0732
 1955TIP3    H227425   4.338   0.247   1.042  1.0182  0.1544  1.0132
 1956TIP3   OH227426   0.304   4.349   0.302  0.6224 -0.0458 -0.9066
 1956TIP3    H127427   0.332   4.438   0.280 -2.1461  1.4349  0.8684
 1956TIP3    H227428   0.380   4.309   0.345  1.6449  1.7678 -0.9376
 1957TIP3   OH227429   4.227   3.692   1.450 -0.0239  0.6279 -0.0974
 1957TIP3    H127430   4.290   3.760   1.475 -1.4767  2.2568 -0.6966
 1957TIP3    H227431   4.198   3.654   1.533  1.9743 -0.4411  0.1842
 1958TIP3   OH227432   0.934   5.434   7.924 -0.3872  0.3061  0.0780
 1958TIP3    H127433   0.860   5.493   7.911  0.0588  0.3325 -3.1914
 1958TIP3    H227434   0.894   5.348   7.939 -1.0474  0.6462  0.2853
 1959TIP3   OH227435   4.418   1.053   8.659  0.2640 -0.0579 -0.4675
 1959TIP3    H127436   4.351   1.021   8.719 -0.6894 -0.1746 -1.5663
 1959TIP3    H227437   4.494   1.070   8.715 -0.3875 -0.7653  0.6683
 1960TIP3   OH227438   6.135   4.876   8.568  0.4907 -0.0031 -0.1439
 1960TIP3    H127439   6.091   4.937   8.628  0.9899 -0.5040  0.7575
 1960TIP3    H227440   6.157   4.930   8.492 -0.2200  0.6380  0.0871
 1961TIP3   OH227441   4.814   6.660   8.083  1.0867 -0.2270 -0.1229
 1961TIP3    H127442   4.766   6.635   8.162  0.7327  0.9414  0.0418
 1961TIP3    H227443   4.899   6.689   8.115  0.9562  0.2119 -0.1671
 1962TIP3   OH227444   6.753   3.832   1.308  0.7356  0.2267  0.0210
 1962TIP3    H127445   6.785   3.811   1.396  0.4964 -0.1713  0.0133
 1962TIP3    H227446   6.695   3.759   1.285  0.2733  0.6625 -0.2009
 1963TIP3   OH227447   5.987   1.729   1.660  0.3738 -0.5823 -0.8283
 1963TIP3    H127448   6.030   1.785   1.725 -0.6696 -1.8772  1.0575
 1963TIP3    H227449   5.936   1.790   1.606 -1.6754  0.2875  1.8918
 1964TIP3   OH227450   3.778   1.705   6.720  0.3490  0.4385 -0.0342
 1964TIP3    H127451   3.806   1.692   6.810  0.5913  0.2665 -0.1351
 1964TIP3    H227452   3.855   1.684   6.667 -0.2232 -0.9295 -0.3576
 1965TIP3   OH227453   1.328   4.932   0.690  0.2004 -0.3285 -0.2338
 1965TIP3    H127454   1.289   5.006   0.644 -1.3382 -1.7859 -1.4186
 1965TIP3    H227455   1.272   4.857   0.667  0.7971 -1.5927  2.1244
 1966TIP3   OH227456   2.084   5.842   0.939 -0.3465 -0.2540  0.2721
 1966TIP3    H127457   2.078   5.822   0.846 -2.3977 -0.2420  0.3396
 1966TIP3    H227458   2.018   5.910   0.953  0.1196 -0.0592  1.6827
 1967TIP3   OH227459   2.199   1.445   0.762 -0.3252 -0.0162  0.6737
 1967TIP3    H127460   2.275   1.406   0.717 -0.4236 -0.8834  1.2211
 1967TIP3    H227461   2.159   1.371   0.808 -2.2168  0.1828 -0.5614
 1968TIP3   OH227462   2.696   4.929   2.345 -0.3352 -0.0355 -0.5824
 1968TIP3    H127463   2.789   4.909   2.342 -0.3543 -0.5593  1.1158
 1968TIP3    H227464   2.654   4.855   2.300  0.0253 -0.1363 -0.7580
 1969TIP3   OH227465   2.116   3.381   7.003 -0.2615  0.4482  0.2280
 1969TIP3    H127466   2.184   3.436   7.042  2.0102 -0.2292 -2.4685
 1969TIP3    H227467   2.091   3.428   6.923 -1.9272 -0.0830  0.4012
 1970TIP3   OH227468   4.597   4.118   8.006 -0.0369 -0.5785  0.0082
 1970TIP3    H127469   4.567   4.031   7.980  2.0086 -1.3444 -0.0216
 1970TIP3    H227470   4.601   4.114   8.102  2.1169 -1.3670 -0.0358
 1971TIP3   OH227471   6.324   1.135   6.815 -0.1282  0.0557  0.4148
 1971TIP3    H127472   6.263   1.184   6.870 -2.2545 -1.0438 -0.8520
 1971TIP3    H227473   6.378   1.202   6.773 -0.2656  1.0431  1.7326
 1972TIP3   OH227474   2.447   3.931   7.880  0.2715  0.3432  0.2033
 1972TIP3    H127475   2.373   3.879   7.849  0.7199 -2.7554  3.6842
 1972TIP3    H227476   2.409   3.994   7.940  0.2367  0.2698  0.2592
 1973TIP3   OH227477   2.832   2.807   6.797  0.3651  0.1991 -0.6270
 1973TIP3    H127478   2.786   2.803   6.713  1.3230  1.9766 -1.3007
 1973TIP3    H227479   2.818   2.898   6.826  1.7708  0.2012  0.1021
 1974TIP3   OH227480   2.429   6.212   7.188  0.5834  0.2467  0.4336
 1974TIP3    H127481   2.437   6.201   7.094 -0.0789 -0.9641  0.4878
 1974TIP3    H227482   2.512   6.249   7.216  1.2131 -0.4410 -0.4798
 1975TIP3   OH227483   1.140   4.100   6.702  0.2423 -0.0109 -0.7620
 1975TIP3    H127484   1.111   4.189   6.681 -0.8948  0.2302  1.4892
 1975TIP3    H227485   1.236   4.106   6.706  0.1623  2.1523  2.8486
 1976TIP3   OH227486   2.609   5.655   7.812 -0.0580 -0.4460 -0.1903
 1976TIP3    H127487   2.704   5.650   7.820 -0.0867  1.2260  1.7462
 1976TIP3    H227488   2.579   5.566   7.832  1.0345 -0.7931 -0.0088
 1977TIP3   OH227489   1.253   2.061   0.912 -0.4880 -0.1091 -0.2333
 1977TIP3    H127490   1.298   2.107   0.841  0.7812 -0.5825  0.2381
 1977TIP3    H227491   1.162   2.054   0.882 -0.0969  0.1967 -1.5636
 1978TIP3   OH227492   1.475   2.647   1.329 -0.9492  0.6206 -0.5678
 1978TIP3    H127493   1.417   2.699   1.274 -1.3732  1.1273  0.3385
 1978TIP3    H227494   1.497   2.704   1.402  1.3299  0.7294 -1.2501
 1979TIP3   OH227495   0.050   2.960   0.162  0.4891  0.4648 -0.4255
 1979TIP3    H127496   0.070   3.052   0.173 -0.8500  0.6331  1.0886
 1979TIP3    H227497   0.090   2.935   0.079  1.4695  2.2160 -0.5083
 1980TIP3   OH227498   5.589   5.073   1.544 -0.0691  0.0523  0.5471
 1980TIP3    H127499   5.560   5.010   1.477  0.2425  0.2285  0.2439
 1980TIP3    H227500   5.603   5.154   1.495  2.7727 -0.4862  0.3047
 1981TIP3   OH227501   5.567   2.103   8.787 -0.1523 -0.5234  0.0954
 1981TIP3    H127502   5.497   2.087   8.724 -0.1541  1.0832 -0.3519
 1981TIP3    H227503   5.549   2.042   8.858 -1.7100 -0.5078 -0.2429
 1982TIP3   OH227504   1.162   1.810   0.335  0.2676 -0.0583  0.2018
 1982TIP3    H127505   1.214   1.891   0.339  1.0027 -0.3477 -2.1087
 1982TIP3    H227506   1.219   1.743   0.374  1.3549 -0.2062 -1.5401
 1983TIP3   OH227507   1.658   4.580   7.659  0.1851 -0.3695  0.2618
 1983TIP3    H127508   1.696   4.663   7.688 -0.1608  0.1100 -0.6284
 1983TIP3    H227509   1.664   4.523   7.736 -0.4336  0.7694  1.1875
 1984TIP3   OH227510   0.886   0.688   6.413 -0.3635 -0.2051  0.3557
 1984TIP3    H127511   0.920   0.664   6.499 -0.5309 -1.0605  0.1909
 1984TIP3    H227512   0.924   0.775   6.396  1.5919 -1.0205  0.2807
 1985TIP3   OH227513   5.519   1.574   8.038 -0.4450 -0.0137 -0.2091
 1985TIP3    H127514   5.536   1.481   8.023  1.8496  0.5639 -1.7522
 1985TIP3    H227515   5.552   1.591   8.126  2.0870 -0.1196 -1.0471
 1986TIP3   OH227516   4.995   0.034   1.992  0.0256  0.6577  0.4450
 1986TIP3    H127517   4.915   0.074   1.959 -1.2623 -0.3892  2.1192
 1986TIP3    H227518   4.977  -0.060   1.992  1.3664  0.3743  0.5876
 1987TIP3   OH227519   3.080   5.496   0.454 -0.0324  0.5051 -0.0272
 1987TIP3    H127520   3.101   5.516   0.363 -0.5288  0.7767 -0.0846
 1987TIP3    H227521   3.025   5.570   0.482 -1.7547 -0.6764 -0.1729
 1988TIP3   OH227522   6.534   6.216   0.484 -0.2193 -0.8140 -0.1239
 1988TIP3    H127523   6.459   6.195   0.541 -1.6548  1.3807 -1.0781
 1988TIP3    H227524   6.530   6.150   0.415 -2.3640  0.1873 -1.0636
 1989TIP3   OH227525   6.638   5.977   7.495 -0.3853  0.7445 -0.6693
 1989TIP3    H127526   6.707   5.945   7.436 -1.4546 -0.8986 -1.0761
 1989TIP3    H227527   6.574   5.907   7.497 -2.4534  2.5355 -0.9162
 1990TIP3   OH227528   2.116   1.656   7.233  0.5763 -0.2258 -0.2033
 1990TIP3    H127529   2.065   1.713   7.175  0.1673 -1.3546 -0.9853
 1990TIP3    H227530   2.188   1.624   7.177 -1.5632 -3.8745 -1.1970
 1991TIP3   OH227531   6.585   1.393   0.464 -0.8707 -0.6385 -0.5936
 1991TIP3    H127532   6.610   1.319   0.409 -2.0532  0.7017 -3.1022
 1991TIP3    H227533   6.589   1.469   0.406 -2.4001  0.8732  1.1250
 1992TIP3   OH227534   3.077   3.155   0.551 -0.0831 -0.0035 -0.2632
 1992TIP3    H127535   3.102   3.067   0.523  0.9306  0.8744 -2.3243
 1992TIP3    H227536   3.096   3.157   0.645  1.9852 -1.3064 -0.6080
 1993TIP3   OH227537   4.794   1.460   2.093  0.0181 -0.6773  0.0340
 1993TIP3    H127538   4.885   1.478   2.116 -0.6454  1.8404  1.0124
 1993TIP3    H227539   4.745   1.473   2.174 -1.4413  0.2192 -0.9333
 1994TIP3   OH227540   1.042   5.336   8.406  0.7173 -0.5356 -0.9219
 1994TIP3    H127541   0.947   5.332   8.394  0.5341  0.2004  0.1223
 1994TIP3    H227542   1.077   5.346   8.317 -0.3503  1.6970 -1.1635
 1995TIP3   OH227543   4.620   0.262   0.983  0.0183  0.4383  0.5410
 1995TIP3    H127544   4.641   0.237   1.074 -2.2789 -0.5263  0.8640
 1995TIP3    H227545   4.532   0.228   0.969  0.1357  1.0181 -1.9186
 1996TIP3   OH227546   6.314   4.476   7.916  0.1811 -0.6165 -0.4903
 1996TIP3    H127547   6.320   4.387   7.951  1.9473 -1.9690 -3.7994
 1996TIP3    H227548   6.256   4.469   7.840  1.1587  0.7946 -1.4378
 1997TIP3   OH227549   0.088   5.570   1.700 -0.5995  0.0799  0.2220
 1997TIP3    H127550   0.065   5.540   1.788 -0.5486 -1.6825 -0.3238
 1997TIP3    H227551   0.098   5.664   1.709 -3.6860  0.4156  1.4494
 1998TIP3   OH227552   5.177   0.453   1.350 -0.2180  0.6506 -0.5184
 1998TIP3    H127553   5.168   0.492   1.437  0.5237  0.1207 -0.1897
 1998TIP3    H227554   5.154   0.524   1.289 -1.6593  0.7610  0.1088
 1999TIP3   OH227555   4.552   4.614   1.202 -0.7424 -0.0306 -0.0328
 1999TIP3    H127556   4.474   4.631   1.150 -0.9672 -0.6613  0.0886
 1999TIP3    H227557   4.525   4.628   1.292 -0.7532 -0.3943  0.0198
 2000TIP3   OH227558   5.944   3.202   0.717  0.2642 -0.5064 -0.0376
 2000TIP3    H127559   6.023   3.194   0.663  0.0300 -1.4258 -0.2802
 2000TIP3    H227560   5.951   3.130   0.779 -0.9863 -1.4253 -0.9025
 2001TIP3   OH227561   3.187   2.730   6.582 -0.2907 -0.2728  0.0490
 2001TIP3    H127562   3.120   2.797   6.591 -0.9800 -0.9453  0.0040
 2001TIP3    H227563   3.213   2.735   6.490 -1.0736 -0.7449 -0.2045
 2002TIP3   OH227564   2.780   0.643   7.297  0.2561 -0.1675  0.1607
 2002TIP3    H127565   2.756   0.689   7.217 -0.2101 -0.3167  0.2136
 2002TIP3    H227566   2.703   0.650   7.353 -0.0255 -1.4719 -0.0379
 2003TIP3   OH227567   2.224   3.613   0.479  0.1214 -0.6192 -0.2312
 2003TIP3    H127568   2.191   3.627   0.390 -1.5680 -1.3088  0.2476
 2003TIP3    H227569   2.240   3.701   0.513  1.7935 -0.3721 -1.5419
 2004TIP3   OH227570   2.344   1.105   2.270 -0.7619 -0.0914  0.3574
 2004TIP3    H127571   2.396   1.037   2.314 -1.5765 -0.8150  0.2228
 2004TIP3    H227572   2.259   1.064   2.256 -0.0506 -0.6158 -3.5380
 2005TIP3   OH227573   4.380   3.837   0.216 -0.2317 -0.7037 -0.2055
 2005TIP3    H127574   4.298   3.885   0.230  1.2938  2.6826 -1.7091
 2005TIP3    H227575   4.358   3.772   0.149 -2.2884 -1.8927  1.5115
 2006TIP3   OH227576   4.319   6.016   6.498  0.2005  0.6116 -0.1831
 2006TIP3    H127577   4.254   6.075   6.460 -0.8219 -1.0911 -1.2075
 2006TIP3    H227578   4.278   5.980   6.576  0.7187  1.0102  0.2893
 2007TIP3   OH227579   2.846   1.181   8.198  0.6567 -0.3470  0.4851
 2007TIP3    H127580   2.752   1.199   8.206  0.4500 -1.6216  1.3104
 2007TIP3    H227581   2.857   1.095   8.239  1.9741 -0.8324 -0.8021
 2008TIP3   OH227582   2.134   4.050   1.461 -0.1251 -0.5857 -0.3409
 2008TIP3    H127583   2.222   4.017   1.445 -0.1630 -1.0586  0.3820
 2008TIP3    H227584   2.107   4.087   1.377  1.0778  0.3444 -0.3404
 2009TIP3   OH227585   1.700   3.895   7.280 -0.0377 -0.0237  0.8256
 2009TIP3    H127586   1.752   3.876   7.202 -0.6499  0.5932  0.2475
 2009TIP3    H227587   1.668   3.984   7.267  0.1162  0.2075  1.9434
 2010TIP3   OH227588   5.220   6.292   7.507 -0.6942 -0.1647 -0.6364
 2010TIP3    H127589   5.175   6.321   7.586  1.7504  0.8564  0.4712
 2010TIP3    H227590   5.212   6.366   7.447 -1.7690 -0.5952 -1.0604
 2011TIP3   OH227591   6.592   1.196   7.057  0.3523  0.0119  0.0292
 2011TIP3    H127592   6.500   1.218   7.040 -0.3497 -2.1867  0.5212
 2011TIP3    H227593   6.632   1.279   7.083 -1.2609  1.2106 -1.0873
 2012TIP3   OH227594   2.900   4.325   1.955 -0.0021  0.1193  0.5475
 2012TIP3    H127595   2.813   4.288   1.939  0.6061 -1.7382  1.3709
 2012TIP3    H227596   2.887   4.420   1.945 -1.2271 -0.2962 -3.4433
 2013TIP3   OH227597   3.724   3.588   8.293  0.4465  0.3251  0.3684
 2013TIP3    H127598   3.733   3.657   8.359  1.5977  1.2723 -0.7324
 2013TIP3    H227599   3.814   3.567   8.268  0.0490  1.1297 -2.0170
 2014TIP3   OH227600   5.539   5.280   0.686  0.3599  0.2355  0.2905
 2014TIP3    H127601   5.523   5.251   0.597 -0.3348  0.9083  0.1896
 2014TIP3    H227602   5.554   5.375   0.678  0.0759  0.3359  0.9122
 2015TIP3   OH227603   4.353   1.646   7.232  0.1478 -0.3797  0.0066
 2015TIP3    H127604   4.399   1.564   7.211 -1.7642 -1.7911  1.0488
 2015TIP3    H227605   4.330   1.638   7.324 -0.0128  1.3934  0.1496
 2016TIP3   OH227606   1.511   0.727   0.301  0.1744  0.0354 -0.3692
 2016TIP3    H127607   1.489   0.717   0.394  2.5573 -2.4508  0.0682
 2016TIP3    H227608   1.441   0.682   0.255  1.4693 -3.3551  0.6543
 2017TIP3   OH227609   6.403   4.354   6.402 -0.0695 -0.1006  0.3387
 2017TIP3    H127610   6.493   4.329   6.420  0.2581  0.4795 -0.4064
 2017TIP3    H227611   6.400   4.448   6.420  0.0414  0.3182 -1.5849
 2018TIP3   OH227612   6.669   4.543   1.668  0.5038  0.0695 -0.1151
 2018TIP3    H127613   6.732   4.511   1.734 -1.1542 -0.1161  1.4707
 2018TIP3    H227614   6.704   4.627   1.640  1.1381  0.2780  1.2180
 2019TIP3   OH227615   2.261   4.481   7.822 -0.4312  0.0191 -0.5757
 2019TIP3    H127616   2.215   4.397   7.830  1.6962 -1.2247 -0.9057
 2019TIP3    H227617   2.190   4.546   7.821 -2.0752 -1.4992  2.4625
 2020TIP3   OH227618   1.718   2.687   1.985  0.3944 -0.4096 -0.6873
 2020TIP3    H127619   1.646   2.651   2.037 -0.4645  2.4948  0.3702
 2020TIP3    H227620   1.682   2.768   1.948  2.5541  0.1446 -1.7280
 2021TIP3   OH227621   6.760   0.588   1.857  0.0287  0.7272 -0.3578
 2021TIP3    H127622   6.767   0.663   1.916  0.1695  0.8284 -0.5022
 2021TIP3    H227623   6.666   0.579   1.840  0.1742  2.7481 -2.7298
 2022TIP3   OH227624   2.650   2.943   6.436 -0.0054  0.2604 -0.5967
 2022TIP3    H127625   2.735   2.975   6.408  0.3253  0.2662  0.3743
 2022TIP3    H227626   2.649   2.851   6.411 -0.0301  0.4457 -1.2994
 2023TIP3   OH227627   1.763   2.532   6.624  0.5806 -0.0410  0.3355
 2023TIP3    H127628   1.693   2.466   6.617  1.2666 -0.6062 -2.1238
 2023TIP3    H227629   1.835   2.487   6.668  0.9720 -0.9268 -1.1551
 2024TIP3   OH227630   2.338   1.568   8.808  0.4657  0.4147  0.8270
 2024TIP3    H127631   2.254   1.590   8.768  0.9034  1.6699  0.5370
 2024TIP3    H227632   2.355   1.478   8.780 -0.3724  0.4448  0.1744
 2025TIP3   OH227633   0.070   1.377   0.530 -0.2698 -0.4562  0.2398
 2025TIP3    H127634  -0.019   1.374   0.497 -0.4606  1.8285  0.3685
 2025TIP3    H227635   0.121   1.328   0.466 -1.6243 -2.1296  0.3688
 2026TIP3   OH227636   6.309   6.490   8.493 -0.3699  0.1567 -0.5880
 2026TIP3    H127637   6.385   6.511   8.439 -0.9995  1.2127 -1.0897
 2026TIP3    H227638   6.238   6.542   8.456 -1.0634  0.1149  0.6335
 2027TIP3   OH227639   3.271   4.948   7.657 -0.3836  0.4936  1.1051
 2027TIP3    H127640   3.322   4.887   7.710  0.3158 -0.2083 -0.3012
 2027TIP3    H227641   3.183   4.909   7.654 -0.1904  0.0568  1.0056
 2028TIP3   OH227642   3.402   1.600   7.039  0.0257 -0.6953 -0.4670
 2028TIP3    H127643   3.362   1.639   6.961 -0.3185 -1.6774 -0.8062
 2028TIP3    H227644   3.371   1.654   7.111  0.3254  0.2131 -1.0010
 2029TIP3   OH227645   0.629   6.395   1.356  0.0345  0.2219  0.4701
 2029TIP3    H127646   0.603   6.432   1.272  1.2787  0.0439 -0.0163
 2029TIP3    H227647   0.696   6.330   1.334 -0.8826 -1.1006  1.4471
 2030TIP3   OH227648   6.697   2.777   8.649  0.0772 -0.4849 -0.6157
 2030TIP3    H127649   6.696   2.715   8.576 -3.2660 -0.3143 -0.8430
 2030TIP3    H227650   6.665   2.859   8.612 -0.7587 -0.1222  0.8251
 2031TIP3   OH227651   2.897   3.949   6.211  0.5207  0.3309 -0.0057
 2031TIP3    H127652   2.889   4.040   6.181 -0.0494  0.8703  1.6623
 2031TIP3    H227653   2.963   3.952   6.280 -0.9355 -0.1158  1.4696
 2032TIP3   OH227654   0.910   0.868   1.248  0.1745 -0.2535  0.4473
 2032TIP3    H127655   0.893   0.776   1.266  2.0731 -0.7811 -0.2587
 2032TIP3    H227656   0.852   0.890   1.175 -0.5770 -0.7507  0.8815
 2033TIP3   OH227657   3.012   1.683   8.656  0.0224 -0.0101  0.4960
 2033TIP3    H127658   3.004   1.687   8.752 -2.3366  0.2548  0.3577
 2033TIP3    H227659   3.076   1.613   8.640  1.7061  1.0337  2.2514
 2034TIP3   OH227660   2.249   1.017   8.704 -0.0148 -0.0406  0.1607
 2034TIP3    H127661   2.303   1.053   8.633  0.1498 -0.0238  0.2923
 2034TIP3    H227662   2.163   1.055   8.691 -0.4540 -1.3554 -1.0477
 2035TIP3   OH227663   6.149   0.300   8.187  0.5751  0.2456  0.3381
 2035TIP3    H127664   6.065   0.339   8.212  0.6489  0.7347 -0.1487
 2035TIP3    H227665   6.212   0.371   8.196  0.6853  0.2959 -0.7256
 2036TIP3   OH227666   6.478   3.186   6.750 -0.4866 -0.1543  0.2432
 2036TIP3    H127667   6.458   3.129   6.824  1.5022 -1.5585 -0.1855
 2036TIP3    H227668   6.568   3.216   6.767  0.0397 -0.5500 -1.5559
 2037TIP3   OH227669   4.755   3.073   7.842  0.2295  0.1802 -0.3795
 2037TIP3    H127670   4.729   3.092   7.752 -0.0240  0.3614 -0.2705
 2037TIP3    H227671   4.827   3.011   7.834 -0.1141 -0.1816 -0.6955
 2038TIP3   OH227672   4.237   4.361   7.804  0.2545  0.0925  0.2337
 2038TIP3    H127673   4.190   4.340   7.885 -0.1041  2.3339  0.6800
 2038TIP3    H227674   4.202   4.300   7.739 -0.4217 -0.8705  1.4570
 2039TIP3   OH227675   5.387   1.610   1.310  0.4701  0.0452 -0.0717
 2039TIP3    H127676   5.467   1.562   1.290  0.6221 -0.2295  1.1313
 2039TIP3    H227677   5.356   1.572   1.393 -0.2034  1.0239  0.1446
 2040TIP3   OH227678   1.844   5.642   6.597  0.1476  0.0760 -0.0291
 2040TIP3    H127679   1.927   5.628   6.642  0.5041  3.1711  0.5050
 2040TIP3    H227680   1.867   5.693   6.519 -0.9431 -1.8070 -1.6945
 2041TIP3   OH227681   4.982   2.854   0.765 -0.5516  0.2096  0.4961
 2041TIP3    H127682   4.944   2.939   0.743  1.1336  0.8099 -0.3569
 2041TIP3    H227683   4.935   2.791   0.710 -1.0264  0.7653  0.2575
 2042TIP3   OH227684   4.039   6.282   0.135 -0.1800  0.2491 -0.4781
 2042TIP3    H127685   4.107   6.259   0.072 -1.4048  0.2368 -1.8373
 2042TIP3    H227686   3.982   6.205   0.138 -1.0726  0.8823 -0.6633
 2043TIP3   OH227687   3.795   0.388   8.032  0.3258  0.3823 -0.5896
 2043TIP3    H127688   3.741   0.460   8.065  1.1946  0.7427  0.1009
 2043TIP3    H227689   3.805   0.329   8.107 -1.0577 -0.8982 -1.3786
 2044TIP3   OH227690   2.218   6.643   1.480  0.4316  0.7413  0.2639
 2044TIP3    H127691   2.148   6.708   1.486  0.2945  0.4737  2.7326
 2044TIP3    H227692   2.292   6.685   1.525  1.5852  0.6386 -1.4605
 2045TIP3   OH227693   5.216   5.502   0.435 -0.2682  0.2812 -0.3033
 2045TIP3    H127694   5.138   5.453   0.410 -0.0154  0.7242 -2.0479
 2045TIP3    H227695   5.287   5.461   0.386  0.4260  0.5721  0.4364
 2046TIP3   OH227696   5.508   0.141   1.716 -0.6103  0.5032  0.2228
 2046TIP3    H127697   5.601   0.160   1.708 -0.7073  0.2552 -2.8477
 2046TIP3    H227698   5.465   0.204   1.658 -2.2449 -0.1439  0.6632
 2047TIP3   OH227699   2.483   1.086   1.205  0.3537 -0.0905  0.5047
 2047TIP3    H127700   2.568   1.053   1.175  0.9002  1.1907  0.5426
 2047TIP3    H227701   2.462   1.033   1.281  1.6502  0.2510  1.1374
 2048TIP3   OH227702   1.771   3.507   6.993  0.2529  0.1615  0.7430
 2048TIP3    H127703   1.705   3.450   6.955  1.6882  0.3442 -2.3247
 2048TIP3    H227704   1.758   3.592   6.950  1.5110  0.6077  1.1778
 2049TIP3   OH227705   4.283   5.767   6.986 -0.0233  0.3864 -0.0177
 2049TIP3    H127706   4.335   5.697   6.947  1.3427  0.8509  0.8686
 2049TIP3    H227707   4.245   5.729   7.065 -0.1606  0.3440 -0.1039
 2050TIP3   OH227708   3.415   4.266   7.191 -0.1782  0.1945 -0.3181
 2050TIP3    H127709   3.464   4.280   7.110  1.5576 -0.3934  0.5804
 2050TIP3    H227710   3.383   4.353   7.214 -0.9340  0.3321 -1.7414
 2051TIP3   OH227711   5.495   6.038   7.164  0.0519 -0.0926  0.2799
 2051TIP3    H127712   5.422   6.047   7.226 -0.8579  1.4909 -0.9459
 2051TIP3    H227713   5.551   6.113   7.183  0.8215 -0.7110  0.4868
 2052TIP3   OH227714   4.215   3.935   8.387  0.2131  0.2600  0.1363
 2052TIP3    H127715   4.284   3.969   8.445  0.5012  0.1593 -0.1451
 2052TIP3    H227716   4.217   3.840   8.400  0.1255  0.2576  0.1307
 2053TIP3   OH227717   2.369   0.746   8.176  0.0213 -0.5222  0.4012
 2053TIP3    H127718   2.329   0.672   8.132 -1.4832  0.6006 -0.1974
 2053TIP3    H227719   2.357   0.729   8.269 -1.6301 -0.3474  0.2361
 2054TIP3   OH227720   1.692   3.075   7.068 -0.1301 -0.2178  0.3210
 2054TIP3    H127721   1.719   3.022   7.142 -0.7303 -1.6588 -0.4543
 2054TIP3    H227722   1.771   3.121   7.039  0.9304 -2.3423 -0.3093
 2055TIP3   OH227723   2.344   3.080   8.015  0.9999 -0.0380 -0.0687
 2055TIP3    H127724   2.384   3.165   8.033 -1.8700  1.8127 -1.6192
 2055TIP3    H227725   2.352   3.069   7.920 -0.2654 -0.5516 -0.1400
 2056TIP3   OH227726   3.913   1.255   2.741  0.1437 -0.1759  0.6032
 2056TIP3    H127727   3.909   1.235   2.648 -0.0290 -2.8306  1.0971
 2056TIP3    H227728   3.854   1.330   2.753 -2.7496 -2.0331 -0.9133
 2057TIP3   OH227729   3.039   3.703   7.142  0.1161 -0.1638  0.2175
 2057TIP3    H127730   2.994   3.787   7.140 -0.7796 -0.6456 -0.4242
 2057TIP3    H227731   3.042   3.681   7.235 -0.2392  0.2670  0.3390
 2058TIP3   OH227732   3.134   4.176   7.803  0.2090  0.4876 -0.1640
 2058TIP3    H127733   3.063   4.233   7.832 -0.1766 -0.2345  0.3493
 2058TIP3    H227734   3.213   4.225   7.822 -0.0627  0.3245  1.5223
 2059TIP3   OH227735   6.097   0.669   1.440  0.1735  0.0290 -0.4992
 2059TIP3    H127736   6.193   0.672   1.435  0.5682 -0.5129  3.3455
 2059TIP3    H227737   6.071   0.607   1.372  2.9108 -2.3924  0.4496
 2060TIP3   OH227738   3.650   4.465   8.346 -0.1360  0.0273 -0.6580
 2060TIP3    H127739   3.598   4.521   8.288 -1.0603 -1.8852 -1.8098
 2060TIP3    H227740   3.691   4.525   8.407 -1.8331  1.8672 -1.1971
 2061TIP3   OH227741   1.087   4.451   7.458  1.1712  0.1658  0.1104
 2061TIP3    H127742   1.132   4.402   7.389  0.1411  0.1261 -0.5516
 2061TIP3    H227743   1.115   4.542   7.444 -1.4280  0.7279 -2.4386
 2062TIP3   OH227744   6.773   2.325   7.836 -0.0888  0.2668 -0.1602
 2062TIP3    H127745   6.737   2.411   7.816  1.2645  0.5350 -1.6338
 2062TIP3    H227746   6.697   2.268   7.843 -0.9765  1.4680  0.3271
 2063TIP3   OH227747   0.564   0.206   0.326  0.0782 -0.0936  0.3761
 2063TIP3    H127748   0.517   0.188   0.408 -0.3359 -2.1324 -0.2695
 2063TIP3    H227749   0.500   0.189   0.257  0.9831 -0.2920 -0.4380
 2064TIP3   OH227750   1.880   4.389   6.611 -0.0753  0.1092  0.6288
 2064TIP3    H127751   1.952   4.448   6.631 -0.8661  0.8571  1.3276
 2064TIP3    H227752   1.910   4.339   6.535  0.5346  1.5081 -0.0691
 2065TIP3   OH227753   5.310   0.189   0.722  0.1132 -0.2529  0.0193
 2065TIP3    H127754   5.274   0.193   0.634 -1.0529  1.5097  0.5270
 2065TIP3    H227755   5.256   0.249   0.773  1.8806  0.1316  1.5501
 2066TIP3   OH227756   5.782   0.355   8.142 -0.4266  0.5953  0.0178
 2066TIP3    H127757   5.848   0.425   8.144  1.6961 -1.2701  0.0887
 2066TIP3    H227758   5.822   0.288   8.087 -0.2525 -2.4257  3.4569
 2067TIP3   OH227759   2.300   2.418   0.945  0.3410 -0.0304 -0.1130
 2067TIP3    H127760   2.233   2.482   0.971 -1.0837 -1.1955 -0.7161
 2067TIP3    H227761   2.363   2.418   1.016 -1.8417 -0.9592  1.9734
 2068TIP3   OH227762   1.453   3.612   2.453  0.1579 -0.1034  0.1866
 2068TIP3    H127763   1.483   3.703   2.458 -0.0161 -0.0912  1.1826
 2068TIP3    H227764   1.408   3.606   2.369  0.3410  0.6785  0.0251
 2069TIP3   OH227765   2.291   2.605   7.370  0.5091  0.0237  0.0760
 2069TIP3    H127766   2.346   2.584   7.295 -1.5177 -0.5361 -1.3447
 2069TIP3    H227767   2.306   2.698   7.385  2.0477 -0.1782 -0.0420
 2070TIP3   OH227768   3.837   2.054   0.350  0.3825 -0.4417 -0.1945
 2070TIP3    H127769   3.825   2.143   0.315 -0.0013 -0.0972  0.7702
 2070TIP3    H227770   3.782   1.999   0.294 -1.0193  0.2483  0.4492
 2071TIP3   OH227771   5.530   2.337   7.032  0.7387 -0.6203 -0.5106
 2071TIP3    H127772   5.572   2.251   7.039  1.9927  0.0737  1.2453
 2071TIP3    H227773   5.602   2.399   7.036 -0.3108  0.5693  0.8503
 2072TIP3   OH227774   1.384   4.300   0.069  0.1081  0.1268  0.1013
 2072TIP3    H127775   1.380   4.210   0.102  0.7512 -0.1325 -0.4933
 2072TIP3    H227776   1.452   4.342   0.122  1.5486 -0.4526 -1.2134
 2073TIP3   OH227777   2.969   2.784   2.152 -0.2738 -0.4105 -0.4527
 2073TIP3    H127778   3.008   2.711   2.200 -0.6868 -0.8037 -0.7153
 2073TIP3    H227779   3.016   2.861   2.185  0.7111 -0.8690 -0.7403
 2074TIP3   OH227780   0.729   3.304   8.633 -0.0307 -0.3747 -0.5592
 2074TIP3    H127781   0.656   3.349   8.591 -0.6455  1.9275  2.5626
 2074TIP3    H227782   0.690   3.226   8.672 -0.3157 -0.4263 -0.9495
 2075TIP3   OH227783   0.013   0.647   1.351  0.0823  0.3319 -0.1451
 2075TIP3    H127784   0.086   0.617   1.299 -0.1488 -0.0122 -0.2712
 2075TIP3    H227785   0.040   0.733   1.383  0.5949  0.1484 -0.0770
 2076TIP3   OH227786   6.298   5.183   0.019 -0.4585  0.3687 -0.1732
 2076TIP3    H127787   6.350   5.163   0.096 -1.2346 -0.4603  0.1598
 2076TIP3    H227788   6.211   5.147   0.038 -0.9736  1.1302 -0.9776
 2077TIP3   OH227789   5.116   5.658   0.138  0.7081 -0.1795  0.2209
 2077TIP3    H127790   5.069   5.736   0.109 -0.1123 -1.0617 -0.8767
 2077TIP3    H227791   5.194   5.655   0.083  1.4035  0.5453  1.1330
 2078TIP3   OH227792   3.618   0.919   0.791 -0.4677 -0.1949 -0.0076
 2078TIP3    H127793   3.584   0.950   0.707  0.6981 -1.4775 -1.0137
 2078TIP3    H227794   3.608   0.993   0.851 -0.6800  0.9868 -1.4589
 2079TIP3   OH227795   2.994   5.174   7.477 -0.2363 -0.2756  0.0987
 2079TIP3    H127796   2.901   5.199   7.484 -0.8623 -2.7234  1.7114
 2079TIP3    H227797   3.001   5.134   7.390 -0.4318  0.7872 -0.4204
 2080TIP3   OH227798   3.513   4.487   7.010 -0.2527  0.4109  0.0891
 2080TIP3    H127799   3.580   4.427   6.977 -1.1996  0.6202 -2.4187
 2080TIP3    H227800   3.563   4.559   7.049  0.9046 -1.2674  1.9124
 2081TIP3   OH227801   3.366   0.261   0.439  0.3136 -0.0464 -0.6961
 2081TIP3    H127802   3.384   0.216   0.357 -1.1757  1.7370 -2.0849
 2081TIP3    H227803   3.385   0.353   0.422  1.4969  0.1912  1.4832
 2082TIP3   OH227804   0.996   5.553   1.206  0.2343  0.8032 -0.0721
 2082TIP3    H127805   1.027   5.633   1.163 -2.1634  1.7777 -0.1798
 2082TIP3    H227806   0.995   5.575   1.299  0.0953  0.7117 -0.0515
 2083TIP3   OH227807   4.644   4.649   8.806  0.1149 -0.0701 -0.2331
 2083TIP3    H127808   4.583   4.616   8.740  0.5100  0.9115 -1.1231
 2083TIP3    H227809   4.596   4.641   8.889 -0.4373 -1.2076 -0.6391
 2084TIP3   OH227810   1.843   5.043   1.452 -0.0635  0.6668  0.1332
 2084TIP3    H127811   1.798   5.082   1.377 -2.1503  0.8335  1.3836
 2084TIP3    H227812   1.813   4.952   1.453 -0.0581  0.6692  0.7653
 2085TIP3   OH227813   2.401   2.134   0.653 -0.0183  0.1107  0.1016
 2085TIP3    H127814   2.467   2.191   0.613 -1.4422  2.5256  1.0164
 2085TIP3    H227815   2.320   2.184   0.650 -1.4053 -1.9234  0.9012
 2086TIP3   OH227816   2.807   4.520   2.572  0.1615 -0.1018 -0.6904
 2086TIP3    H127817   2.733   4.534   2.513  0.2116 -1.7866 -1.2188
 2086TIP3    H227818   2.863   4.597   2.559 -1.2159  0.9492 -0.6572
 2087TIP3   OH227819   3.247   4.731   1.012  0.5868  0.3650 -0.1029
 2087TIP3    H127820   3.337   4.697   1.012  0.5568  0.1729  1.9719
 2087TIP3    H227821   3.244   4.792   1.085 -0.2652  2.4943 -1.8069
 2088TIP3   OH227822   5.489   2.988   0.260 -0.3343 -0.1471  0.2951
 2088TIP3    H127823   5.464   2.896   0.268  2.5831 -0.9464  1.5485
 2088TIP3    H227824   5.564   2.988   0.200 -0.8356  1.5709 -0.4066
 2089TIP3   OH227825   5.861   5.456   7.794  0.1862 -0.4622 -0.4820
 2089TIP3    H127826   5.953   5.465   7.818  0.4471 -1.7610 -0.9365
 2089TIP3    H227827   5.841   5.537   7.745  0.8669  0.1470  0.2240
 2090TIP3   OH227828   5.511   3.493   0.248  0.0919 -0.3741 -0.0243
 2090TIP3    H127829   5.463   3.412   0.231 -0.5136  0.0606 -0.4506
 2090TIP3    H227830   5.559   3.476   0.329 -2.4130 -0.1688  1.6517
 2091TIP3   OH227831   3.858   2.488   8.222  0.0496 -0.5054  0.1304
 2091TIP3    H127832   3.874   2.419   8.157 -1.0578  0.4904 -1.2515
 2091TIP3    H227833   3.834   2.565   8.170  2.8427  1.4573  1.4977
 2092TIP3   OH227834   0.209   0.151   8.290 -0.1103  0.0388  0.6666
 2092TIP3    H127835   0.265   0.192   8.356  1.7065  0.0947 -0.8155
 2092TIP3    H227836   0.132   0.208   8.284  0.7998  1.3537  1.0494
 2093TIP3   OH227837   0.117   3.253   6.947  0.3616  0.1219 -0.7365
 2093TIP3    H127838   0.104   3.324   7.010 -0.0876  0.0739 -0.7693
 2093TIP3    H227839   0.190   3.282   6.893  0.4851  0.3484 -0.4507
 2094TIP3   OH227840   5.972   4.004   0.982  0.5280 -0.0268  0.6422
 2094TIP3    H127841   5.898   3.994   0.923  0.1780 -0.0725  1.0852
 2094TIP3    H227842   6.049   3.987   0.927  0.1705 -0.8580  0.3812
 2095TIP3   OH227843   5.755   5.880   0.134 -0.2919 -0.2198  0.1790
 2095TIP3    H127844   5.687   5.933   0.091 -0.1596 -0.5505 -0.4557
 2095TIP3    H227845   5.708   5.832   0.202 -0.4942  0.3718  0.4692
 2096TIP3   OH227846   3.869   0.769   8.270  0.1755 -0.3144 -0.6208
 2096TIP3    H127847   3.900   0.771   8.179 -2.2854  0.2926 -1.5153
 2096TIP3    H227848   3.885   0.858   8.302  1.1923 -0.5723 -0.3763
 2097TIP3   OH227849   6.161   3.669   0.522 -0.1867  0.0511  0.2126
 2097TIP3    H127850   6.073   3.700   0.501 -0.1828  1.2590  1.7611
 2097TIP3    H227851   6.217   3.746   0.511  0.2443 -0.0151  1.6694
 2098TIP3   OH227852   5.258   0.434   0.884 -0.2457 -0.0402  0.0225
 2098TIP3    H127853   5.172   0.477   0.891 -0.7355 -0.9365 -0.2906
 2098TIP3    H227854   5.309   0.471   0.956 -1.0758  0.0960  0.5626
 2099TIP3   OH227855   5.199   1.594   0.809  0.2764  0.0285  0.5260
 2099TIP3    H127856   5.201   1.544   0.891 -1.1795 -1.1302 -0.1059
 2099TIP3    H227857   5.106   1.607   0.791  0.2034 -3.7814 -3.3038
 2100TIP3   OH227858   4.016   6.449   0.842  0.2757  0.0548  0.6994
 2100TIP3    H127859   3.979   6.497   0.768  0.2005  1.0420  1.3728
 2100TIP3    H227860   4.077   6.387   0.802 -0.2810  0.0995 -0.2374
 2101TIP3   OH227861   1.003   0.791   7.388  0.0798 -0.4154 -0.1694
 2101TIP3    H127862   1.094   0.797   7.357 -0.2246  2.1406 -0.8399
 2101TIP3    H227863   0.951   0.787   7.307 -0.4472 -0.6413  0.1810
 2102TIP3   OH227864   3.224   1.790   6.943  0.5517  0.4293  0.1103
 2102TIP3    H127865   3.149   1.787   6.884  0.4065  0.8730  0.2672
 2102TIP3    H227866   3.297   1.818   6.888  1.0749 -1.9310 -0.5038
 2103TIP3   OH227867   3.158   6.537   8.370  0.0140 -0.1163  0.0438
 2103TIP3    H127868   3.208   6.467   8.329  0.3816  0.2864 -0.2058
 2103TIP3    H227869   3.077   6.543   8.318 -0.0552 -0.4021  0.1153
 2104TIP3   OH227870   2.619   3.613   8.753  0.1717 -0.2681  0.4100
 2104TIP3    H127871   2.693   3.594   8.696  2.2263  1.2470  2.4046
 2104TIP3    H227872   2.563   3.672   8.702  1.7619  0.7752 -0.1984
 2105TIP3   OH227873   4.255   6.650   1.772 -0.0772 -0.3623 -0.2674
 2105TIP3    H127874   4.281   6.740   1.753 -0.4569 -0.5090 -1.5786
 2105TIP3    H227875   4.272   6.602   1.690  3.7481 -2.3739  1.4116
 2106TIP3   OH227876   5.449   2.669   0.258  0.2157  0.0041 -0.0587
 2106TIP3    H127877   5.522   2.610   0.277 -0.4446 -0.7198  0.2748
 2106TIP3    H227878   5.389   2.658   0.332  0.2100  1.3120  0.1472
 2107TIP3   OH227879   6.158   4.398   0.432 -0.0696  0.5281  0.2139
 2107TIP3    H127880   6.175   4.444   0.350  1.2159 -2.9733 -1.7082
 2107TIP3    H227881   6.069   4.365   0.423  0.8386 -1.8388 -1.0003
 2108TIP3   OH227882   3.492   5.278   8.524  0.0171 -0.2831 -0.6027
 2108TIP3    H127883   3.539   5.241   8.599 -1.1543  0.4277  0.5025
 2108TIP3    H227884   3.465   5.365   8.552 -0.1484  0.1464 -1.9892
 2109TIP3   OH227885   2.448   1.352   6.229 -0.5771 -0.0729  0.1938
 2109TIP3    H127886   2.494   1.436   6.238 -0.2586 -0.2186 -0.0612
 2109TIP3    H227887   2.414   1.353   6.140  0.1543 -0.5770 -0.0980
 2110TIP3   OH227888   2.351   4.089   7.376 -0.9809 -0.0108 -0.2535
 2110TIP3    H127889   2.407   4.123   7.446 -2.2289 -0.9134  1.2692
 2110TIP3    H227890   2.409   4.081   7.300  1.0678 -1.2512  1.3174
 2111TIP3   OH227891   6.141   4.223   1.857 -0.2572 -0.1782  0.0932
 2111TIP3    H127892   6.126   4.129   1.844 -1.5739  0.0262  0.0055
 2111TIP3    H227893   6.157   4.256   1.769  2.8091 -0.6703  0.3222
 2112TIP3   OH227894   6.272   2.139   0.615 -0.2476 -0.1859  0.4845
 2112TIP3    H127895   6.231   2.055   0.599 -1.4030  0.4271  0.0994
 2112TIP3    H227896   6.235   2.197   0.548  0.5572  0.6137  0.7098
 2113TIP3   OH227897   0.327   4.433   7.866  0.2163  0.2194  0.3284
 2113TIP3    H127898   0.307   4.498   7.933  0.9636  1.1258 -0.2935
 2113TIP3    H227899   0.244   4.391   7.847 -0.0332  0.0368  1.7187
 2114TIP3   OH227900   1.750   6.487   7.151 -0.5978  0.2201  0.3745
 2114TIP3    H127901   1.752   6.443   7.066 -0.7503  1.8996 -0.5330
 2114TIP3    H227902   1.827   6.454   7.196 -0.3258 -0.4500 -0.5459
 2115TIP3   OH227903   4.140   5.599   8.318 -0.1034 -0.3458  0.0874
 2115TIP3    H127904   4.162   5.635   8.404  0.0273  0.6185 -0.3410
 2115TIP3    H227905   4.088   5.521   8.337  0.2775 -0.3741  1.0472
 2116TIP3   OH227906   5.019   1.762   2.001  0.4927 -0.1113  0.2889
 2116TIP3    H127907   5.017   1.673   2.036  0.9646  0.3386  1.5102
 2116TIP3    H227908   5.080   1.757   1.927 -2.2263 -1.5833 -2.0629
 2117TIP3   OH227909   0.767   1.284   8.279 -0.2185  0.1158  0.0862
 2117TIP3    H127910   0.749   1.225   8.206  2.0667 -0.1405 -0.3263
 2117TIP3    H227911   0.841   1.337   8.250 -1.1987  2.1366  1.0591
 2118TIP3   OH227912   5.997   1.286   8.824 -0.0373  0.4845 -0.0131
 2118TIP3    H127913   6.000   1.227   8.748 -3.1111 -1.3984  1.1671
 2118TIP3    H227914   6.065   1.253   8.882 -0.2462 -0.5351 -0.3265
 2119TIP3   OH227915   0.993   6.280   8.329  0.5841  0.0452 -0.5261
 2119TIP3    H127916   1.031   6.252   8.246  0.7338  0.4884 -0.6102
 2119TIP3    H227917   1.067   6.311   8.381  0.5467 -0.6102 -0.0663
 2120TIP3   OH227918   4.815   3.724   7.223 -0.7864 -0.4168  0.6449
 2120TIP3    H127919   4.792   3.771   7.143  0.5778  0.7285  0.8887
 2120TIP3    H227920   4.781   3.636   7.209 -1.9744  0.1849 -0.5157
 2121TIP3   OH227921   1.952   3.159   7.024  0.8186 -0.2169  0.3824
 2121TIP3    H127922   1.984   3.124   6.941  0.9094 -0.6157  0.5812
 2121TIP3    H227923   1.996   3.244   7.033 -0.6992  0.7430 -0.9062
 2122TIP3   OH227924   0.414   1.423   7.747  0.1052  0.0036 -0.1845
 2122TIP3    H127925   0.490   1.418   7.689  1.5864  1.2091  1.4969
 2122TIP3    H227926   0.453   1.429   7.835 -1.9069  1.5860  0.6793
 2123TIP3   OH227927   0.329   3.105   0.976  0.3640 -0.0013 -0.3805
 2123TIP3    H127928   0.285   3.095   1.061 -0.0100  2.9720 -0.1259
 2123TIP3    H227929   0.265   3.150   0.921  2.1406  2.3073 -0.7259
 2124TIP3   OH227930   6.192   5.490   1.993 -0.3620 -0.5837 -0.0995
 2124TIP3    H127931   6.266   5.437   1.963 -1.7591 -1.9040 -1.4453
 2124TIP3    H227932   6.140   5.505   1.914 -0.7833  1.5901  0.5413
 2125TIP3   OH227933   4.579   1.812   0.665 -0.3960 -0.0721 -0.5323
 2125TIP3    H127934   4.630   1.858   0.598 -0.3261 -0.1080 -0.5037
 2125TIP3    H227935   4.572   1.874   0.737 -0.3016 -0.1057 -0.4937
 2126TIP3   OH227936   2.758   2.436   7.454 -0.4503 -0.0231  0.2203
 2126TIP3    H127937   2.826   2.425   7.522  0.6839 -0.0094 -0.8704
 2126TIP3    H227938   2.699   2.502   7.490 -0.5196 -0.8386  1.6749
 2127TIP3   OH227939   2.612   5.533   8.738 -0.2520 -0.2815  0.4803
 2127TIP3    H127940   2.700   5.496   8.731  1.4337  3.0673  1.8017
 2127TIP3    H227941   2.616   5.614   8.689 -2.0266  0.8322  2.0397
 2128TIP3   OH227942   0.035   2.412   0.689 -0.1213 -0.0085 -0.2122
 2128TIP3    H127943  -0.001   2.361   0.617  1.8280 -0.7451 -0.7441
 2128TIP3    H227944   0.127   2.424   0.666  0.0909  1.4602  1.2162
 2129TIP3   OH227945   6.519   0.012   0.935  0.0752 -0.1175  0.8142
 2129TIP3    H127946   6.564  -0.028   0.860 -1.6779 -1.5235  0.4283
 2129TIP3    H227947   6.589   0.053   0.986  1.1952  2.3561 -2.3600
 2130TIP3   OH227948   6.572   0.658   8.337 -0.1963 -0.3459  0.3957
 2130TIP3    H127949   6.569   0.578   8.390 -1.8326 -0.9825 -0.5672
 2130TIP3    H227950   6.491   0.655   8.286 -0.9793  2.6471  1.3053
 2131TIP3   OH227951   4.772   5.641   1.732  0.1279 -0.6654 -0.2314
 2131TIP3    H127952   4.686   5.616   1.699  0.5367 -0.7435 -1.2838
 2131TIP3    H227953   4.833   5.587   1.682  0.7956 -0.5499  0.4454
 2132TIP3   OH227954   6.582   0.270   6.828  0.4613  0.2570  0.2899
 2132TIP3    H127955   6.599   0.186   6.870  0.7324  0.3469  0.3634
 2132TIP3    H227956   6.494   0.294   6.857  0.8153  0.5248  1.1633
 2133TIP3   OH227957   2.545   2.160   1.137  0.6386 -0.0277 -0.7280
 2133TIP3    H127958   2.499   2.209   1.205  1.6338  1.4039 -1.0420
 2133TIP3    H227959   2.486   2.088   1.115 -0.3188  0.3032  0.6427
 2134TIP3   OH227960   6.156   4.863   7.959  0.2106  0.2984 -0.3086
 2134TIP3    H127961   6.172   4.901   8.046 -0.6753 -0.8380  0.3789
 2134TIP3    H227962   6.237   4.815   7.939 -1.2821 -3.8905  2.3298
 2135TIP3   OH227963   0.560   4.615   7.675  0.5020  0.1203  0.3295
 2135TIP3    H127964   0.503   4.664   7.734 -1.3372  0.0178 -1.2466
 2135TIP3    H227965   0.611   4.682   7.629  1.3294  0.2408  1.3773
 2136TIP3   OH227966   4.932   3.423   6.145  0.0590  0.5029 -0.2140
 2136TIP3    H127967   4.949   3.378   6.062 -1.9472  0.2955 -0.5801
 2136TIP3    H227968   4.844   3.394   6.170  0.9157 -0.1240  2.4600
 2137TIP3   OH227969   5.365   5.459   1.867 -0.3568 -0.5048  0.2383
 2137TIP3    H127970   5.273   5.442   1.888 -0.8348  1.5318 -0.0086
 2137TIP3    H227971   5.394   5.521   1.935  0.5596 -0.3798 -0.2455
 2138TIP3   OH227972   5.895   4.252   7.723  0.1470 -0.5188 -0.1000
 2138TIP3    H127973   5.851   4.192   7.663  0.8550 -0.3225 -0.8403
 2138TIP3    H227974   5.888   4.337   7.681 -1.6159  0.1062  1.3650
 2139TIP3   OH227975   5.770   6.109   1.794  0.1392 -0.4557  0.2539
 2139TIP3    H127976   5.701   6.156   1.842 -2.0478 -0.7131 -2.3720
 2139TIP3    H227977   5.821   6.178   1.753  0.1610 -0.2999  0.5372
 2140TIP3   OH227978   6.740   2.892   7.615  0.4248  0.3392  0.3069
 2140TIP3    H127979   6.789   2.966   7.652 -1.5186  1.4696  0.7352
 2140TIP3    H227980   6.651   2.904   7.647 -0.2312 -1.4428 -0.7525
 2141TIP3   OH227981   3.458   3.584   8.311  0.0739  1.1303  0.2863
 2141TIP3    H127982   3.548   3.568   8.283  0.0604  0.8955  0.3761
 2141TIP3    H227983   3.405   3.524   8.259  0.0406  0.7584  0.7364
 2142TIP3   OH227984   2.792   1.915   0.382  0.6591  0.0213 -0.0465
 2142TIP3    H127985   2.767   1.944   0.470  1.4261 -0.7013  0.4227
 2142TIP3    H227986   2.830   1.993   0.341 -0.1891  0.5070  0.0606
 2143TIP3   OH227987   5.771   2.012   7.244 -0.0036  0.4480 -0.1573
 2143TIP3    H127988   5.689   2.028   7.290  0.1207  0.4625  0.0605
 2143TIP3    H227989   5.838   2.047   7.303  0.1031  1.1304 -0.6661
 2144TIP3   OH227990   3.179   1.091   7.630  0.0224 -0.1303 -0.0039
 2144TIP3    H127991   3.098   1.096   7.681  0.3877  0.0611  0.5667
 2144TIP3    H227992   3.199   1.182   7.608 -0.3953 -0.2477 -0.9244
 2145TIP3   OH227993   4.803   2.477   6.272  0.2700 -0.2871 -0.7089
 2145TIP3    H127994   4.747   2.400   6.263  0.6283 -0.4584 -1.6872
 2145TIP3    H227995   4.871   2.464   6.206  2.2479 -0.7225  1.3027
 2146TIP3   OH227996   6.771   4.604   8.725 -0.1277 -0.0227 -0.3099
 2146TIP3    H127997   6.777   4.569   8.814 -2.0779 -0.3397 -0.2414
 2146TIP3    H227998   6.832   4.550   8.674  0.7108 -0.1082  0.7508
 2147TIP3   OH227999   0.509   2.838   0.271 -0.1147 -0.4305 -0.1516
 2147TIP3    H128000   0.573   2.768   0.277 -2.2649 -2.5790 -0.6998
 2147TIP3    H228001   0.533   2.887   0.192  1.7955 -0.0941  0.6031
 2148TIP3   OH228002   4.056   4.824   8.432 -0.5383  0.2966 -0.1492
 2148TIP3    H128003   4.136   4.773   8.447 -0.3558  0.1053 -1.5931
 2148TIP3    H228004   4.031   4.855   8.519 -0.2094 -1.5897  0.6879
 2149TIP3   OH228005   6.080   2.960   1.412  0.3392  0.2893  0.2472
 2149TIP3    H128006   6.025   2.949   1.335  2.1587  1.1563 -1.2697
 2149TIP3    H228007   6.078   2.875   1.456  0.9667 -0.9445 -1.9720
 2150TIP3   OH228008   1.610   1.436   0.134  0.2623  0.1300 -0.2729
 2150TIP3    H128009   1.636   1.357   0.086  0.1199  0.4679 -0.9195
 2150TIP3    H228010   1.680   1.450   0.198  0.1283 -0.7058  0.0774
 2151TIP3   OH228011   4.834   3.936   2.186 -0.7439  0.1416  0.2924
 2151TIP3    H128012   4.908   3.990   2.213  0.4650 -0.4093 -1.6631
 2151TIP3    H228013   4.762   3.998   2.174 -0.6770  0.6693  2.3539
 2152TIP3   OH228014   3.411   5.971   7.510 -0.0883 -0.4223  0.0095
 2152TIP3    H128015   3.377   5.958   7.421  0.7424 -1.3982 -0.1901
 2152TIP3    H228016   3.392   5.888   7.555 -2.8165  0.9086  1.5886
 2153TIP3   OH228017   0.799   0.297   1.463 -0.0671  0.1200 -0.7227
 2153TIP3    H128018   0.768   0.367   1.521 -0.5344 -0.1773 -0.6066
 2153TIP3    H228019   0.755   0.314   1.380 -0.5950 -0.3359 -0.5419
 2154TIP3   OH228020   3.621   5.395   0.735  0.3032 -0.7212 -0.3502
 2154TIP3    H128021   3.633   5.381   0.641  2.0684 -4.2544  0.2250
 2154TIP3    H228022   3.558   5.328   0.761  1.1415 -0.9449  1.2153
 2155TIP3   OH228023   3.945   0.111   1.629  0.0457  0.1116  0.2375
 2155TIP3    H128024   3.936   0.016   1.637 -1.4919 -0.0176 -2.0530
 2155TIP3    H228025   3.905   0.132   1.545  1.1094  2.7181  0.2840
 2156TIP3   OH228026   5.546   2.106   7.931 -0.4105  0.1155 -0.4130
 2156TIP3    H128027   5.640   2.127   7.933 -0.5006  0.5025  1.2576
 2156TIP3    H228028   5.544   2.012   7.911  0.3485  0.0876 -0.4137
 2157TIP3   OH228029   3.641   0.606   8.140  0.1829 -0.0939  0.3342
 2157TIP3    H128030   3.707   0.671   8.163  0.5433 -1.0395  2.2657
 2157TIP3    H228031   3.561   0.656   8.125  0.1636  0.8109  2.8653
 2158TIP3   OH228032   2.232   3.139   6.831 -0.3691 -0.1036 -0.4462
 2158TIP3    H128033   2.233   3.219   6.884 -1.2756 -0.5622  0.2907
 2158TIP3    H228034   2.225   3.170   6.741 -1.0388  0.6421 -0.1473
 2159TIP3   OH228035   0.576   3.865   0.417  0.0416 -0.1570 -0.1289
 2159TIP3    H128036   0.642   3.902   0.476 -0.7116  0.0166  0.6128
 2159TIP3    H228037   0.627   3.837   0.340  1.1156 -0.8434  0.7971
 2160TIP3   OH228038   5.274   5.799   0.905  0.1507 -0.7446 -0.7498
 2160TIP3    H128039   5.326   5.788   0.985 -0.7583  0.1310 -0.0095
 2160TIP3    H228040   5.231   5.714   0.892 -0.7428 -0.5158  0.4803
 2161TIP3   OH228041   3.588   0.307   1.639  0.0131  0.0135  0.4514
 2161TIP3    H128042   3.589   0.294   1.733  1.9311  1.5958  0.7070
 2161TIP3    H228043   3.497   0.329   1.619 -0.1886  0.8859  2.1392
 2162TIP3   OH228044   0.575   0.390   8.270 -0.0132  0.7434  0.4037
 2162TIP3    H128045   0.539   0.459   8.215  0.0306  1.7094  1.5494
 2162TIP3    H228046   0.608   0.435   8.348 -1.7704 -0.7361  2.1213
 2163TIP3   OH228047   4.541   4.371   7.724  0.1296 -0.5753 -0.1584
 2163TIP3    H128048   4.553   4.448   7.667  0.7062 -0.2306  0.4139
 2163TIP3    H228049   4.456   4.385   7.766  0.2799 -0.1883  0.0270
 2164TIP3   OH228050   2.667   1.817   0.861  0.5952  0.4202 -0.5412
 2164TIP3    H128051   2.694   1.834   0.952  2.9135  1.2934 -1.3007
 2164TIP3    H228052   2.624   1.732   0.865  2.1431 -0.3846  1.1670
 2165TIP3   OH228053   3.626   1.908   8.206  0.1935  0.2031  0.2678
 2165TIP3    H128054   3.699   1.914   8.268  0.1382  2.4634  0.2059
 2165TIP3    H228055   3.613   1.998   8.176 -2.7233 -0.1009  0.3740
 2166TIP3   OH228056   2.484   2.569   6.292  0.7625  0.1052  0.5963
 2166TIP3    H128057   2.486   2.473   6.291 -0.6873  0.0617  1.0634
 2166TIP3    H228058   2.427   2.592   6.365  1.3368  1.3461  0.6802
 2167TIP3   OH228059   4.989   2.545   6.484 -0.5279 -0.7445 -0.2011
 2167TIP3    H128060   4.925   2.602   6.526 -0.2220 -0.1757 -0.4904
 2167TIP3    H228061   4.943   2.510   6.407 -0.7046 -0.8640 -0.0420
 2168TIP3   OH228062   1.070   4.008   0.961  0.8104 -0.6682 -0.0596
 2168TIP3    H128063   0.974   4.002   0.962  0.8711 -2.1615 -0.7590
 2168TIP3    H228064   1.095   4.007   1.053  0.0504  3.0279  0.3357
 2169TIP3   OH228065   4.824   3.782   0.940  0.0617 -0.2749 -0.1399
 2169TIP3    H128066   4.774   3.857   0.972 -0.4286  0.0765 -1.6338
 2169TIP3    H228067   4.758   3.724   0.901 -0.2252 -3.5746  4.4089
 2170TIP3   OH228068   1.036   4.807   2.077 -0.0890 -0.5051  0.2993
 2170TIP3    H128069   1.078   4.846   2.000  0.2914  0.8191  1.1545
 2170TIP3    H228070   1.105   4.803   2.143 -1.0354  0.7790  1.4078
 2171TIP3   OH228071   0.085   6.271   6.397  0.1202 -0.0474  0.3540
 2171TIP3    H128072   0.110   6.354   6.439 -0.1708  0.2480 -0.0583
 2171TIP3    H228073   0.136   6.269   6.316  1.3656 -1.0399  1.1261
 2172TIP3   OH228074   3.585   3.684   6.719 -0.3797 -0.8241 -0.4121
 2172TIP3    H128075   3.631   3.736   6.653 -2.1348 -0.8425 -1.7276
 2172TIP3    H228076   3.650   3.621   6.750  0.6377 -0.4961 -1.7920
 2173TIP3   OH228077   4.983   3.889   6.939  0.1482 -0.2708  0.7308
 2173TIP3    H128078   4.899   3.930   6.919 -0.3150 -1.7682 -0.6211
 2173TIP3    H228079   5.046   3.937   6.884 -0.0486 -0.0088  0.7342
 2174TIP3   OH228080   2.226   3.689   0.905 -0.2551 -0.5655 -0.0356
 2174TIP3    H128081   2.175   3.692   0.986 -2.3933  1.0470 -1.3325
 2174TIP3    H228082   2.172   3.638   0.845  0.4583 -0.2548 -0.9569
 2175TIP3   OH228083   1.026   3.323   1.251 -0.1001  0.4294 -0.4478
 2175TIP3    H128084   0.936   3.311   1.220  0.0036 -1.3396 -0.1424
 2175TIP3    H228085   1.023   3.299   1.343  0.4651  1.5161 -0.1304
 2176TIP3   OH228086   3.519   4.668   0.897  0.1134  0.5825  0.4178
 2176TIP3    H128087   3.577   4.672   0.821 -0.8765  1.5268 -0.3155
 2176TIP3    H228088   3.468   4.588   0.883  0.6015  0.2383  0.5945
 2177TIP3   OH228089   4.883   6.371   1.790 -0.2443  0.2953  0.4513
 2177TIP3    H128090   4.811   6.434   1.785 -0.1119  0.3431 -1.3717
 2177TIP3    H228091   4.844   6.295   1.833 -1.5017  0.1985 -0.7922
 2178TIP3   OH228092   2.061   5.437   1.436 -0.8904  0.0466 -0.5931
 2178TIP3    H128093   2.112   5.426   1.516  0.9811  1.1641 -1.5597
 2178TIP3    H228094   1.979   5.477   1.465  0.4641  2.1016  0.6147
 2179TIP3   OH228095   6.531   1.478   0.719  0.0843  0.1192  0.3016
 2179TIP3    H128096   6.537   1.426   0.639 -0.9701 -0.5647  0.6422
 2179TIP3    H228097   6.478   1.554   0.695  0.5153  0.3721  0.1370
 2180TIP3   OH228098   2.864   3.556   5.948  0.3555 -0.6190  0.0797
 2180TIP3    H128099   2.929   3.599   6.004  0.9935  0.6539 -1.5334
 2180TIP3    H228100   2.892   3.464   5.945  0.3747 -0.6958  1.6742
 2181TIP3   OH228101   3.647   6.089   8.835 -0.2813 -0.3871  0.1972
 2181TIP3    H128102   3.629   6.122   8.747  0.2851 -0.3633  0.0916
 2181TIP3    H228103   3.733   6.048   8.829 -0.2877 -0.4831  0.7138
 2182TIP3   OH228104   0.150   3.645   0.547 -0.5255  0.2613  0.2316
 2182TIP3    H128105   0.153   3.612   0.636 -2.1557  0.3401  0.3405
 2182TIP3    H228106   0.207   3.722   0.547  2.5923 -1.8742  0.2041
 2183TIP3   OH228107   3.771   4.734   0.734 -0.0897  0.4775 -0.0311
 2183TIP3    H128108   3.720   4.812   0.714 -0.9420 -0.0865 -0.1173
 2183TIP3    H228109   3.809   4.752   0.820 -0.8551  0.7074  0.2708
 2184TIP3   OH228110   2.078   3.765   1.158  0.0904  0.5659 -0.2334
 2184TIP3    H128111   2.016   3.720   1.101  1.7003 -0.0254 -1.6119
 2184TIP3    H228112   2.069   3.721   1.243 -0.1441 -0.6792 -0.8810
 2185TIP3   OH228113   4.387   6.355   8.805  0.2906  0.3737 -0.0152
 2185TIP3    H128114   4.467   6.393   8.770 -1.0674  1.4320 -2.2517
 2185TIP3    H228115   4.384   6.266   8.768  0.4723  0.3144  0.1158
 2186TIP3   OH228116   1.458   6.765   0.454 -0.1990  0.1909  0.1985
 2186TIP3    H128117   1.365   6.779   0.439 -0.1812 -0.7559 -0.9568
 2186TIP3    H228118   1.496   6.755   0.367  1.1964  1.7038  0.5792
 2187TIP3   OH228119   2.454   0.780   7.827  0.4214 -0.0366 -0.5490
 2187TIP3    H128120   2.507   0.717   7.778  0.9990  0.7641 -0.9626
 2187TIP3    H228121   2.491   0.778   7.916 -0.8707 -1.7706  0.0113
 2188TIP3   OH228122   0.205   3.223   2.241  0.1322 -0.1624  0.4098
 2188TIP3    H128123   0.130   3.165   2.255  0.6281 -0.6620  1.0452
 2188TIP3    H228124   0.277   3.182   2.289  1.0249 -0.1237 -0.8355
 2189TIP3   OH228125   4.786   2.890   0.356  0.0697  0.1003  0.3511
 2189TIP3    H128126   4.761   2.893   0.264  1.2029 -0.2643  0.0151
 2189TIP3    H228127   4.712   2.929   0.402 -0.6856 -0.0769 -0.6732
 2190TIP3   OH228128   5.183   0.327   8.202  0.3146  0.1632  0.6596
 2190TIP3    H128129   5.128   0.320   8.124  1.8498 -1.7328 -0.3310
 2190TIP3    H228130   5.169   0.244   8.248  1.1882  0.3028  1.1914
 2191TIP3   OH228131   1.732   5.200   7.319 -0.1066  0.1876  0.4335
 2191TIP3    H128132   1.681   5.120   7.329  0.7505 -0.3369  0.6126
 2191TIP3    H228133   1.766   5.197   7.230  0.8149 -0.1769  0.7914
 2192TIP3   OH228134   3.517   0.836   7.105 -0.4860 -0.3122  0.1155
 2192TIP3    H128135   3.442   0.848   7.047 -1.1362  0.8919  1.1506
 2192TIP3    H228136   3.480   0.802   7.186  0.2279 -0.6176  0.3248
 2193TIP3   OH228137   5.788   5.064   2.350 -0.1858 -0.0701 -0.7695
 2193TIP3    H128138   5.697   5.046   2.373  0.2737  0.3275  1.6427
 2193TIP3    H228139   5.836   4.988   2.381  0.3662 -0.1907 -1.8524
 2194TIP3   OH228140   6.577   4.499   6.901  0.3368 -0.0426  0.8149
 2194TIP3    H128141   6.534   4.584   6.889 -0.9668 -0.5767  1.4977
 2194TIP3    H228142   6.650   4.518   6.959 -0.0684  0.5798  1.1400
 2195TIP3   OH228143   0.873   3.532   7.353  0.4698  0.4029 -0.1207
 2195TIP3    H128144   0.935   3.496   7.417  1.2503  0.2738 -0.9360
 2195TIP3    H228145   0.880   3.627   7.365 -0.4347  0.3621  0.9418
 2196TIP3   OH228146   3.704   3.775   8.756  0.0993 -0.1611 -0.8190
 2196TIP3    H128147   3.782   3.790   8.810  0.6412  3.6018 -2.3562
 2196TIP3    H228148   3.684   3.682   8.769  2.8181 -0.5218  2.2339
 2197TIP3   OH228149   2.437   6.381   7.996  0.0507 -0.2222 -0.1257
 2197TIP3    H128150   2.490   6.453   8.031  1.0144 -1.3767  0.9003
 2197TIP3    H228151   2.487   6.350   7.920  0.1585 -0.4323  0.0285
 2198TIP3   OH228152   0.538   0.848   7.835 -0.2104  0.0533  0.2918
 2198TIP3    H128153   0.584   0.793   7.772 -1.4588 -0.5538 -0.1258
 2198TIP3    H228154   0.569   0.819   7.920 -0.4676 -0.9672  0.0495
 2199TIP3   OH228155   3.448   1.257   0.476 -0.0931 -0.3361 -0.4115
 2199TIP3    H128156   3.490   1.178   0.510  1.5934 -0.4955 -2.5963
 2199TIP3    H228157   3.360   1.229   0.452 -0.7049 -0.6391  1.9674
 2200TIP3   OH228158   5.997   5.778   1.596 -0.4563  0.2035  0.1633
 2200TIP3    H128159   5.979   5.818   1.681 -1.5223  2.2234 -0.9310
 2200TIP3    H228160   6.082   5.815   1.569  0.5454 -1.4746  0.8902
 2201TIP3   OH228161   0.293   4.516   7.194  0.2055 -0.4165 -0.3880
 2201TIP3    H128162   0.373   4.485   7.236  0.2856 -1.6676 -1.4213
 2201TIP3    H228163   0.263   4.587   7.251  2.9339  1.2526 -0.8182
 2202TIP3   OH228164   2.855   4.287   2.412  0.0903  0.3354 -0.6315
 2202TIP3    H128165   2.831   4.362   2.467 -1.2612  0.5656 -1.4687
 2202TIP3    H228166   2.780   4.277   2.353 -0.6193 -2.8254  0.6086
 2203TIP3   OH228167   0.160   3.868   8.415 -0.3740 -0.4012  0.2988
 2203TIP3    H128168   0.105   3.789   8.418  0.3586 -0.9646 -0.6207
 2203TIP3    H228169   0.238   3.844   8.464 -0.6503  0.1808  1.0477
 2204TIP3   OH228170   1.048   4.131   1.541  0.4925  0.3322 -0.2245
 2204TIP3    H128171   1.045   4.127   1.637  0.8111  0.6200 -0.2005
 2204TIP3    H228172   1.076   4.044   1.514  1.4601  0.5560 -0.0021
 2205TIP3   OH228173   0.925   5.421   1.933  0.2961 -0.1559 -0.0908
 2205TIP3    H128174   0.838   5.402   1.898  0.5171 -1.4221 -0.0045
 2205TIP3    H228175   0.913   5.499   1.987 -0.8749 -0.5702  0.2766
 2206TIP3   OH228176   1.175   4.413   8.411  0.1287 -0.1621  0.5196
 2206TIP3    H128177   1.269   4.431   8.416  0.1094 -0.1659  0.8834
 2206TIP3    H228178   1.152   4.433   8.320  0.4117  0.1843  0.5224
 2207TIP3   OH228179   3.221   2.853   1.917 -0.2718  0.1882 -0.8906
 2207TIP3    H128180   3.160   2.783   1.940  0.2991 -0.6766 -1.9203
 2207TIP3    H228181   3.179   2.897   1.842 -1.1291  1.6524  0.3900
 2208TIP3   OH228182   4.116   5.705   0.559  0.3415 -0.7759  0.5310
 2208TIP3    H128183   4.098   5.622   0.603  0.4098 -0.4264  1.2165
 2208TIP3    H228184   4.175   5.752   0.617  1.3379 -0.7713 -0.4489
 2209TIP3   OH228185   4.470   6.575   7.520  0.1628 -0.1484 -0.0128
 2209TIP3    H128186   4.557   6.591   7.485 -0.7687  1.3451 -1.7944
 2209TIP3    H228187   4.455   6.482   7.504  0.9250 -0.1378 -0.8807
 2210TIP3   OH228188   1.773   4.203   1.187  0.4071 -0.7982  0.3277
 2210TIP3    H128189   1.856   4.233   1.151  1.7915 -1.8196  2.4453
 2210TIP3    H228190   1.734   4.150   1.117  0.3488  1.5741 -1.5519
 2211TIP3   OH228191   3.051   6.049   1.440 -0.2419 -0.3191  0.5001
 2211TIP3    H128192   2.957   6.030   1.433 -0.2928  0.3679 -1.8872
 2211TIP3    H228193   3.066   6.116   1.373  2.3472 -2.0178 -0.7820
 2212TIP3   OH228194   4.458   4.597   6.900 -0.6377  0.0820 -0.1477
 2212TIP3    H128195   4.478   4.505   6.919 -3.0042 -0.8272 -1.5448
 2212TIP3    H228196   4.489   4.610   6.810 -0.8666  0.4457 -0.1766
 2213TIP3   OH228197   5.504   0.885   0.374 -0.1692  1.0066  0.0867
 2213TIP3    H128198   5.528   0.829   0.300  0.4224 -0.4414  1.3174
 2213TIP3    H228199   5.587   0.910   0.414 -0.4979  1.0051  0.7879
 2214TIP3   OH228200   0.212   0.930   7.262  0.1779 -0.4036  0.2563
 2214TIP3    H128201   0.234   0.981   7.340 -1.4709  0.0361  0.4570
 2214TIP3    H228202   0.277   0.956   7.197  0.8126  0.1575  1.0922
 2215TIP3   OH228203   2.193   4.717   7.103  0.3231 -0.3899 -0.0856
 2215TIP3    H128204   2.242   4.798   7.086 -0.9071  0.4874  0.4492
 2215TIP3    H228205   2.122   4.718   7.039 -0.0367 -0.7588  0.3062
 2216TIP3   OH228206   4.097   0.348   1.688 -0.2159  0.0548  0.1005
 2216TIP3    H128207   4.044   0.272   1.665  0.4279 -0.6629  0.9222
 2216TIP3    H228208   4.127   0.330   1.777 -0.5385  1.5539  0.5309
 2217TIP3   OH228209   6.316   2.683   6.730  0.4023  0.3021 -0.6407
 2217TIP3    H128210   6.328   2.627   6.806 -1.3640  2.4888  1.4249
 2217TIP3    H228211   6.243   2.645   6.682  1.8022 -1.3319 -1.5954
 2218TIP3   OH228212   4.634   1.815   1.067  0.0004  0.3297 -0.0991
 2218TIP3    H128213   4.579   1.740   1.045  0.7196 -0.4412  0.6147
 2218TIP3    H228214   4.632   1.871   0.990 -2.2276  0.6181  0.1260
 2219TIP3   OH228215   5.931   1.278   0.758  0.3507  0.8412  0.0011
 2219TIP3    H128216   5.960   1.188   0.745 -0.7167  0.7864 -2.5975
 2219TIP3    H228217   5.859   1.272   0.821 -0.9004 -0.4048 -1.4735
 2220TIP3   OH228218   5.087   1.092   7.382 -0.1513  0.0646 -0.0219
 2220TIP3    H128219   5.075   1.049   7.466 -1.1911 -1.2388 -0.8162
 2220TIP3    H228220   5.052   1.181   7.396  1.7563  0.6576  1.5369
 2221TIP3   OH228221   6.367   0.546   1.269  0.1826  0.0981 -0.0964
 2221TIP3    H128222   6.344   0.458   1.242  0.9255 -0.5040  1.1027
 2221TIP3    H228223   6.410   0.534   1.354  0.1616  1.6267  0.1595
 2222TIP3   OH228224   3.913   6.653   1.028 -0.3848  0.8377 -0.2610
 2222TIP3    H128225   3.898   6.622   0.938 -0.9225  0.8724 -0.1848
 2222TIP3    H228226   3.904   6.575   1.082 -1.2383  1.0259 -0.1209
 2223TIP3   OH228227   0.750   0.946   1.904  0.3048  0.3085 -0.5133
 2223TIP3    H128228   0.771   0.855   1.881  1.0905  0.7825 -1.7838
 2223TIP3    H228229   0.695   0.939   1.981 -0.5120 -1.3096 -1.1917
 2224TIP3   OH228230   5.476   1.208   1.681 -0.0033  0.0841 -0.1630
 2224TIP3    H128231   5.511   1.253   1.758 -0.3521  0.9767 -0.5155
 2224TIP3    H228232   5.551   1.163   1.643  0.3818  0.4660  0.1349
 2225TIP3   OH228233   3.553   5.327   7.978  0.1672  0.5179  0.2844
 2225TIP3    H128234   3.524   5.289   7.895  3.0864 -1.4848  0.0648
 2225TIP3    H228235   3.523   5.265   8.044  0.9337  0.2528  0.3824
 2226TIP3   OH228236   0.866   3.568   6.674  0.5506  0.2505  0.4485
 2226TIP3    H128237   0.917   3.643   6.702  0.2978 -0.5407  3.3138
 2226TIP3    H228238   0.833   3.529   6.755  0.0771 -2.5352 -0.9415
 2227TIP3   OH228239   3.430   5.797   0.213  0.1024  0.0354  0.2144
 2227TIP3    H128240   3.388   5.815   0.297 -1.6246 -2.2955 -0.0390
 2227TIP3    H228241   3.382   5.849   0.150 -2.1049 -2.0509  0.0369
 2228TIP3   OH228242   6.013   0.552   1.218 -0.5135  0.0348  0.0298
 2228TIP3    H128243   6.079   0.546   1.149  0.4721 -1.1135  1.0282
 2228TIP3    H228244   5.947   0.612   1.183  1.5108  2.0430 -0.6355
 2229TIP3   OH228245   4.173   2.206   1.643 -0.5010  0.3383  0.4605
 2229TIP3    H128246   4.189   2.298   1.625 -1.4787  0.5620  0.6368
 2229TIP3    H228247   4.078   2.196   1.634 -0.2229 -1.0840 -1.5236
 2230TIP3   OH228248   6.754   5.355   0.501 -0.0391 -0.5283 -0.0211
 2230TIP3    H128249   6.708   5.271   0.501 -0.2350 -0.4450 -1.4026
 2230TIP3    H228250   6.736   5.392   0.415  0.2296  0.8378  0.4808
 2231TIP3   OH228251   2.639   4.525   7.171  0.0639  0.9538 -0.6910
 2231TIP3    H128252   2.694   4.463   7.123 -1.5296 -1.2440  0.1458
 2231TIP3    H228253   2.698   4.568   7.233  1.1159 -0.1642 -0.8952
 2232TIP3   OH228254   5.782   5.513   0.499 -0.2412 -0.1104  0.4312
 2232TIP3    H128255   5.688   5.520   0.519  0.1226 -0.3841  2.4708
 2232TIP3    H228256   5.801   5.590   0.446 -1.6196 -0.0594 -0.0290
 2233TIP3   OH228257   2.897   0.944   7.346 -0.4258 -0.1038  0.7299
 2233TIP3    H128258   2.886   0.854   7.319 -0.1207  0.1487 -0.2648
 2233TIP3    H228259   2.973   0.942   7.405  0.6357 -0.2673 -0.5849
 2234TIP3   OH228260   1.786   6.102   2.439  0.2774 -0.2068 -0.0866
 2234TIP3    H128261   1.730   6.180   2.432  1.0834  0.2317 -2.5869
 2234TIP3    H228262   1.725   6.028   2.428 -0.3771  0.0536  1.5135
 2235TIP3   OH228263   3.221   0.654   1.971  0.2096  0.0024  0.2529
 2235TIP3    H128264   3.257   0.682   1.887  0.4222 -0.8194  0.0588
 2235TIP3    H228265   3.293   0.663   2.033  0.1851  0.1853  0.2536
 2236TIP3   OH228266   3.324   3.500   0.729  0.5548  0.5632  0.2426
 2236TIP3    H128267   3.374   3.570   0.772 -2.7983  1.5224  3.0620
 2236TIP3    H228268   3.240   3.541   0.707  0.7012 -0.9597 -4.1553
 2237TIP3   OH228269   6.531   3.791   1.676  0.2179 -0.4495 -0.5607
 2237TIP3    H128270   6.457   3.764   1.730 -0.5159 -0.4528 -1.5350
 2237TIP3    H228271   6.585   3.712   1.668 -0.6385 -0.9790 -1.3511
 2238TIP3   OH228272   3.553   0.029   8.767 -0.1522  0.3066  0.1988
 2238TIP3    H128273   3.581   0.121   8.766 -1.5258  0.8057  1.7879
 2238TIP3    H228274   3.491   0.024   8.840 -0.6123 -1.7516 -0.2686
 2239TIP3   OH228275   3.120   0.279   0.787 -0.5595 -0.9803  0.4127
 2239TIP3    H128276   3.174   0.355   0.764 -1.7790 -0.3666 -0.5444
 2239TIP3    H228277   3.166   0.204   0.749 -0.0493 -0.5506  0.1779
 2240TIP3   OH228278   0.828   1.617   7.357  0.8591 -0.0365 -0.8552
 2240TIP3    H128279   0.759   1.662   7.406 -2.0496 -2.7067 -2.1917
 2240TIP3    H228280   0.791   1.602   7.271  3.5637 -0.7096 -2.0114
 2241TIP3   OH228281   0.196   4.858   6.996  0.1631  0.3058  0.7819
 2241TIP3    H128282   0.184   4.886   7.086 -4.2537  0.0607  0.4574
 2241TIP3    H228283   0.229   4.935   6.950  0.3184  1.0831  2.1724
 2242TIP3   OH228284   5.416   4.054   8.226 -0.0951 -0.3015  0.1125
 2242TIP3    H128285   5.347   4.118   8.206 -0.4561 -0.5290  0.6235
 2242TIP3    H228286   5.479   4.103   8.279 -1.3680 -0.8779  2.2310
 2243TIP3   OH228287   2.458   0.982   1.442  0.1450  0.1251  0.0174
 2243TIP3    H128288   2.423   1.043   1.507  0.4099  0.5133 -0.1997
 2243TIP3    H228289   2.521   0.929   1.492 -1.8864 -1.6957  0.8059
 2244TIP3   OH228290   0.684   5.106   7.532 -0.1301 -0.1157  0.4056
 2244TIP3    H128291   0.636   5.164   7.591 -1.7941  0.3984 -1.3379
 2244TIP3    H228292   0.633   5.107   7.451  0.2976 -3.2799 -0.0320
 2245TIP3   OH228293   5.868   1.586   6.462  0.0218  0.0710 -0.1693
 2245TIP3    H128294   5.954   1.585   6.504  0.9798  0.0565 -2.0416
 2245TIP3    H228295   5.823   1.661   6.501  1.3941  0.8908 -0.1250
 2246TIP3   OH228296   3.043   4.027   1.742  0.0311 -0.1946 -0.5815
 2246TIP3    H128297   3.083   4.053   1.825 -0.8452 -0.8661  0.0710
 2246TIP3    H228298   2.953   4.060   1.748 -0.5168 -1.6294 -0.5584
 2247TIP3   OH228299   0.436   1.500   1.415 -0.1584  0.0452 -0.0727
 2247TIP3    H128300   0.363   1.439   1.423 -0.9083  0.6351 -1.9671
 2247TIP3    H228301   0.438   1.546   1.500 -2.8536  0.9148 -0.3941
 2248TIP3   OH228302   5.801   3.751   8.826 -0.2296 -0.5566  0.0667
 2248TIP3    H128303   5.785   3.814   8.755 -0.6923 -2.1114 -1.2838
 2248TIP3    H228304   5.759   3.790   8.902 -0.2699  0.8816 -0.6398
 2249TIP3   OH228305   2.693   6.370   0.404  0.0953  0.5677 -0.3507
 2249TIP3    H128306   2.621   6.428   0.377  0.5735  2.8614  2.7807
 2249TIP3    H228307   2.753   6.427   0.452  2.2899 -1.9563  0.1054
 2250TIP3   OH228308   6.374   6.408   0.334  0.0836 -0.0548 -0.5764
 2250TIP3    H128309   6.292   6.428   0.288  0.5601  2.0294 -0.6105
 2250TIP3    H228310   6.346   6.360   0.413 -1.5022  2.7867  0.7447
 2251TIP3   OH228311   1.348   2.278   8.557  0.1274 -0.1028  0.1619
 2251TIP3    H128312   1.253   2.287   8.565 -0.3069 -1.1637 -2.7304
 2251TIP3    H228313   1.376   2.355   8.508  0.3816 -0.8976 -0.9786
 2252TIP3   OH228314   1.061   6.626   8.305 -0.1181 -0.3302  0.0033
 2252TIP3    H128315   1.001   6.570   8.258  0.8407 -1.3284 -0.0782
 2252TIP3    H228316   1.053   6.599   8.397  0.0124 -0.2983  0.0256
 2253TIP3   OH228317   3.718   3.748   1.811  0.2423  0.0732 -0.5386
 2253TIP3    H128318   3.798   3.743   1.863  0.1322 -0.2609 -0.4013
 2253TIP3    H228319   3.740   3.809   1.740  1.0428 -0.9846 -1.2429
 2254TIP3   OH228320   3.416   1.176   1.503 -0.4218 -0.1750  0.6058
 2254TIP3    H128321   3.441   1.191   1.412  1.6664  1.2769  1.3385
 2254TIP3    H228322   3.477   1.229   1.554 -1.9217 -0.4517  2.8503
 2255TIP3   OH228323   5.958   3.840   0.444 -0.0671  0.1587 -0.5413
 2255TIP3    H128324   5.889   3.796   0.494  1.3695 -0.4455  1.0413
 2255TIP3    H228325   5.928   3.838   0.354 -3.3217  2.2450  0.3378
 2256TIP3   OH228326   1.204   1.819   1.858 -0.4113  0.4259  0.2358
 2256TIP3    H128327   1.215   1.849   1.948 -1.0061  0.9481  0.1490
 2256TIP3    H228328   1.167   1.895   1.812  0.7289  0.4656 -0.6637
 2257TIP3   OH228329   0.930   1.794   8.602  0.3578 -0.1862 -0.3936
 2257TIP3    H128330   0.919   1.702   8.580 -1.2819 -0.3899  1.0951
 2257TIP3    H228331   1.017   1.816   8.568  1.1511 -2.4897 -0.0526
 2258TIP3   OH228332   3.599   4.705   8.623 -0.0636 -0.1403  0.4270
 2258TIP3    H128333   3.564   4.617   8.635 -0.9860  0.1434 -0.1177
 2258TIP3    H228334   3.683   4.691   8.579 -1.3989 -0.6632 -2.1720
 2259TIP3   OH228335   0.459   5.393   7.008 -0.3831  0.0073 -0.6938
 2259TIP3    H128336   0.479   5.458   7.075  1.3657  0.5442 -1.6722
 2259TIP3    H228337   0.495   5.429   6.927  1.5495 -2.5415 -1.1142
 2260TIP3   OH228338   5.131   3.651   8.306 -0.7280  0.1426 -0.1015
 2260TIP3    H128339   5.203   3.671   8.245  0.3311 -2.2380  0.2849
 2260TIP3    H228340   5.148   3.707   8.381  0.0018  0.5163 -0.5273
 2261TIP3   OH228341   6.762   4.459   2.377  0.1089 -0.2229 -0.0440
 2261TIP3    H128342   6.769   4.512   2.456 -0.2763 -1.6516  0.9896
 2261TIP3    H228343   6.679   4.485   2.338 -0.2307 -0.2824  0.6259
 2262TIP3   OH228344   3.890   5.818   7.395 -0.5896  0.1136  0.3220
 2262TIP3    H128345   3.904   5.817   7.490 -0.2970  0.6331  0.2917
 2262TIP3    H228346   3.969   5.776   7.359 -0.3253  0.6418  0.2748
 2263TIP3   OH228347   6.054   4.940   7.378 -0.2388  0.1468 -0.6161
 2263TIP3    H128348   5.972   4.978   7.410  0.3245 -0.3697  1.5864
 2263TIP3    H228349   6.109   5.016   7.356 -0.1772  0.5789  0.9462
 2264TIP3   OH228350   0.867   4.964   0.656 -0.1505  0.1066  0.3817
 2264TIP3    H128351   0.906   5.024   0.593 -2.4195  0.5607 -0.6856
 2264TIP3    H228352   0.920   4.974   0.735 -0.9291  4.2276  0.5637
 2265TIP3   OH228353   3.232   4.049   1.114 -0.3869  0.5115  0.4903
 2265TIP3    H128354   3.219   4.035   1.020  0.5596 -2.1392  0.6983
 2265TIP3    H228355   3.326   4.061   1.124 -0.2224 -1.2120  1.2901
 2266TIP3   OH228356   4.462   3.434   6.132  0.4381  0.3304 -0.0166
 2266TIP3    H128357   4.418   3.385   6.201 -0.4769 -0.2742 -1.0060
 2266TIP3    H228358   4.401   3.504   6.109  1.3855  1.4723  0.8126
 2267TIP3   OH228359   4.538   5.112   7.624 -0.1928 -0.1793 -0.7563
 2267TIP3    H128360   4.595   5.187   7.607  1.4057 -0.9234  0.9224
 2267TIP3    H228361   4.587   5.037   7.591 -1.9398 -0.5188 -2.7742
 2268TIP3   OH228362   1.013   1.244   0.886  0.3595  0.5715 -0.2730
 2268TIP3    H128363   0.936   1.224   0.940 -1.2851  1.6742 -2.0787
 2268TIP3    H228364   1.015   1.175   0.820  0.6175  0.8369 -0.5453
 2269TIP3   OH228365   4.829   2.746   1.770 -0.2408 -0.1693 -0.2824
 2269TIP3    H128366   4.738   2.773   1.787 -0.2207  1.5120 -2.3055
 2269TIP3    H228367   4.877   2.771   1.849 -1.0004  2.1714 -0.4589
 2270TIP3   OH228368   1.130   3.166   0.434  0.5507 -0.4115  0.4223
 2270TIP3    H128369   1.178   3.249   0.439 -0.5047  0.1367  2.2464
 2270TIP3    H228370   1.107   3.158   0.341  1.1770  1.0301  0.1106
 2271TIP3   OH228371   1.184   1.637   1.214 -0.1494  0.6386 -0.1979
 2271TIP3    H128372   1.091   1.639   1.194 -0.3182  3.4192  0.3715
 2271TIP3    H228373   1.216   1.724   1.189  1.6919  0.7358  2.0752
 2272TIP3   OH228374   2.120   2.526   1.395  0.3458 -0.0899 -0.7325
 2272TIP3    H128375   2.215   2.526   1.407  0.0845 -2.0542  2.3188
 2272TIP3    H228376   2.093   2.614   1.419  1.2839  0.1483 -0.5082
 2273TIP3   OH228377   4.003   3.205   0.920  0.4467  0.1677 -0.1538
 2273TIP3    H128378   4.009   3.301   0.918  0.3760  0.1952 -3.0848
 2273TIP3    H228379   3.925   3.185   0.870  0.9109 -1.4562 -0.2787
 2274TIP3   OH228380   2.662   1.317   0.176  0.0011 -0.5404  0.0341
 2274TIP3    H128381   2.652   1.403   0.135 -0.6601 -0.7181 -0.1878
 2274TIP3    H228382   2.603   1.319   0.251  1.4443 -0.0996  1.2097
 2275TIP3   OH228383   5.535   4.257   1.400  0.1393  0.2964  0.3168
 2275TIP3    H128384   5.460   4.297   1.354  0.6970  0.3725 -0.5502
 2275TIP3    H228385   5.582   4.209   1.331  0.2659 -0.6917  1.0729
 2276TIP3   OH228386   1.796   6.544   8.778  0.2445  0.3774 -0.5833
 2276TIP3    H128387   1.833   6.502   8.700  2.2025  2.3777 -0.8412
 2276TIP3    H228388   1.711   6.577   8.749  0.1310 -0.5046 -1.3033
 2277TIP3   OH228389   4.202   5.625   8.580 -0.1549 -0.2782 -0.2285
 2277TIP3    H128390   4.237   5.557   8.637 -1.0671 -1.3172 -0.8707
 2277TIP3    H228391   4.244   5.705   8.610  2.0331 -1.2996 -0.3376
 2278TIP3   OH228392   4.191   5.821   8.176 -0.1621  0.7253  0.1203
 2278TIP3    H128393   4.140   5.815   8.095 -0.2544  1.0513  0.1539
 2278TIP3    H228394   4.175   5.738   8.221 -1.5497  1.2538  0.6537
 2279TIP3   OH228395   5.353   1.497   7.526 -0.0849  0.0274  0.5297
 2279TIP3    H128396   5.360   1.403   7.541  3.0953  0.1895  0.6852
 2279TIP3    H228397   5.308   1.504   7.442  0.0923 -1.6705  0.2551
 2280TIP3   OH228398   5.985   0.136   0.231  0.0645  0.1650 -0.3259
 2280TIP3    H128399   5.897   0.155   0.263  0.4364 -0.7193  1.3417
 2280TIP3    H228400   5.971   0.088   0.149 -1.0016 -0.0166 -0.0473
 2281TIP3   OH228401   5.949   3.150   6.360 -0.3223 -0.5407 -0.2304
 2281TIP3    H128402   5.911   3.238   6.365 -1.3569 -0.9548 -0.6074
 2281TIP3    H228403   5.982   3.133   6.448 -2.3310 -0.7237  0.5478
 2282TIP3   OH228404   2.682   2.885   0.550  0.4688 -0.3040  0.2173
 2282TIP3    H128405   2.615   2.933   0.502  0.4333  0.0014  0.5648
 2282TIP3    H228406   2.765   2.921   0.518  0.4478 -0.1756  0.3054
 2283TIP3   OH228407   5.615   1.171   1.268  0.4477  0.2771  0.0079
 2283TIP3    H128408   5.694   1.180   1.214  0.3560 -1.7395 -0.5141
 2283TIP3    H228409   5.590   1.079   1.260 -0.5009  0.2897  2.2369
 2284TIP3   OH228410   5.367   2.595   0.858  0.4490 -0.7922  0.4454
 2284TIP3    H128411   5.410   2.620   0.940  0.9282 -2.7524  0.8429
 2284TIP3    H228412   5.274   2.602   0.877  0.4492  3.2313 -0.3348
 2285TIP3   OH228413   6.640   5.272   7.369  0.1625 -0.1636 -0.2094
 2285TIP3    H128414   6.589   5.332   7.316 -0.0069 -0.9337 -0.9395
 2285TIP3    H228415   6.641   5.190   7.319  0.1252 -0.8655  0.8932
 2286TIP3   OH228416   3.153   3.913   7.944 -0.6607 -0.0822 -0.1618
 2286TIP3    H128417   3.248   3.909   7.935 -0.7966 -1.2617 -1.4200
 2286TIP3    H228418   3.126   3.981   7.883 -0.5335  1.4819  1.4343
 2287TIP3   OH228419   1.439   0.461   0.908 -0.1284  0.5919  0.0670
 2287TIP3    H128420   1.442   0.365   0.907 -0.6139  0.5487 -1.6193
 2287TIP3    H228421   1.505   0.487   0.844  0.3001  1.4245  0.8294
 2288TIP3   OH228422   3.927   3.894   0.696 -0.6559  0.2939  0.6790
 2288TIP3    H128423   4.020   3.910   0.716 -0.2271 -1.1880 -0.0098
 2288TIP3    H228424   3.892   3.981   0.677  0.9730  0.7381 -0.5371
 2289TIP3   OH228425   5.994   5.243   8.147  0.4222 -0.0241  0.2793
 2289TIP3    H128426   6.050   5.310   8.108  0.0718  1.9963  2.9447
 2289TIP3    H228427   5.907   5.261   8.112  0.1097  1.7650  1.8348
 2290TIP3   OH228428   0.912   2.011   1.227  0.0175  0.7882  0.1653
 2290TIP3    H128429   0.933   1.924   1.260 -1.4716 -0.0256 -0.9819
 2290TIP3    H228430   0.817   2.015   1.227  0.0516  2.5249  0.4215
 2291TIP3   OH228431   5.937   5.954   8.204 -0.4639 -0.0082 -0.7124
 2291TIP3    H128432   5.991   5.985   8.277  1.2226 -2.7415 -0.6465
 2291TIP3    H228433   5.921   6.032   8.151 -0.8184  1.8700  1.9355
 2292TIP3   OH228434   1.764   3.986   1.765  0.0003 -0.2384  0.0317
 2292TIP3    H128435   1.699   3.950   1.825 -1.1911  0.2632 -0.9164
 2292TIP3    H228436   1.847   3.976   1.812 -0.7417 -0.8699  1.2886
 2293TIP3   OH228437   5.393   6.239   0.467 -0.0756  0.2684 -0.4576
 2293TIP3    H128438   5.328   6.275   0.407  2.0781  0.6219 -2.7093
 2293TIP3    H228439   5.348   6.235   0.551 -2.1679  2.9519 -1.3206
 2294TIP3   OH228440   4.608   4.193   7.491  0.3457  0.0971 -0.0899
 2294TIP3    H128441   4.675   4.150   7.544 -3.0711 -3.3694  1.9253
 2294TIP3    H228442   4.552   4.238   7.555 -0.4138  1.1794 -1.4528
 2295TIP3   OH228443   2.239   0.737   0.499  0.0019 -0.3073 -0.1044
 2295TIP3    H128444   2.232   0.707   0.409 -1.3452  0.2972 -0.2221
 2295TIP3    H228445   2.182   0.678   0.549  0.2039 -0.2151  0.2404
 2296TIP3   OH228446   2.959   0.658   2.217 -0.0265  0.2368 -0.1778
 2296TIP3    H128447   2.978   0.658   2.311  0.2651  0.3711 -0.2375
 2296TIP3    H228448   3.043   0.677   2.175  0.3759 -2.0899 -0.5698
 2297TIP3   OH228449   1.105   4.943   1.834 -0.1892  0.5511  0.4662
 2297TIP3    H128450   1.192   4.972   1.861 -0.4618  0.8611  1.0339
 2297TIP3    H228451   1.050   5.021   1.843  0.1735  1.4780 -3.4699
 2298TIP3   OH228452   3.247   6.313   6.437 -0.2450 -0.7496 -0.3667
 2298TIP3    H128453   3.322   6.258   6.415  0.2228 -0.9402  1.5122
 2298TIP3    H228454   3.171   6.258   6.421  0.1605 -1.4782  0.1648
 2299TIP3   OH228455   3.227   3.244   0.812 -0.6670 -0.7572  0.4210
 2299TIP3    H128456   3.258   3.330   0.786  0.0232 -0.1619  2.8912
 2299TIP3    H228457   3.143   3.261   0.856 -0.8686 -1.4273  0.3046
 2300TIP3   OH228458   4.962   5.001   6.722  0.1599  0.6983 -0.1738
 2300TIP3    H128459   4.915   5.035   6.645 -0.9505  1.2103  0.6925
 2300TIP3    H228460   4.894   4.992   6.789  0.7019 -1.7427  0.1507
 2301TIP3   OH228461   2.606   2.177   2.190  0.7270  0.2260  0.1630
 2301TIP3    H128462   2.646   2.095   2.163  0.7785  0.0907  0.6430
 2301TIP3    H228463   2.593   2.168   2.285 -0.5035  0.2367  0.0109
 2302TIP3   OH228464   0.308   4.947   6.638  0.0013 -0.4692 -1.0424
 2302TIP3    H128465   0.312   4.888   6.563  0.1796  0.5581 -1.8679
 2302TIP3    H228466   0.225   4.993   6.628  0.0728 -0.2492 -0.6616
 2303TIP3   OH228467   6.266   5.911   0.230  0.2337  0.4355  0.1121
 2303TIP3    H128468   6.276   5.962   0.150  2.3675  0.1376  0.1432
 2303TIP3    H228469   6.319   5.833   0.215  0.2674  0.1423  1.6364
 2304TIP3   OH228470   5.631   1.640   8.304 -0.4606  0.1601 -0.0149
 2304TIP3    H128471   5.691   1.709   8.332  1.4402 -0.8302 -1.3987
 2304TIP3    H228472   5.652   1.565   8.360  0.9437 -0.7548 -1.6702
 2305TIP3   OH228473   4.973   5.008   2.103  0.4677  0.7173 -0.3048
 2305TIP3    H128474   4.913   4.998   2.177  1.6698  0.7295  0.7071
 2305TIP3    H228475   5.035   5.075   2.131  1.1743  0.4485 -1.1767
 2306TIP3   OH228476   2.813   6.767   1.573 -0.0332 -0.1689 -0.4295
 2306TIP3    H128477   2.776   6.684   1.541  0.0149 -0.0244 -0.8611
 2306TIP3    H228478   2.795   6.766   1.668  0.6750 -1.0423 -0.2922
 2307TIP3   OH228479   3.003   4.911   8.235 -0.1780  0.2731  0.0381
 2307TIP3    H128480   3.021   4.817   8.242 -0.9334  0.1528  0.4328
 2307TIP3    H228481   3.006   4.943   8.325  1.5066  0.9217 -0.2046
 2308TIP3   OH228482   1.994   2.372   0.726  0.8174 -0.0959 -0.3295
 2308TIP3    H128483   1.945   2.450   0.701  0.8273  0.2269  0.6215
 2308TIP3    H228484   1.927   2.309   0.751  0.7417 -0.8473 -2.2542
 2309TIP3   OH228485   3.574   3.766   7.451 -0.0534  0.1035 -0.2085
 2309TIP3    H128486   3.659   3.741   7.416  0.4498  1.5515 -0.0941
 2309TIP3    H228487   3.544   3.837   7.395 -1.5169 -0.8146 -0.6515
 2310TIP3   OH228488   0.807   6.054   8.785 -0.3334  0.8158 -0.2964
 2310TIP3    H128489   0.760   6.133   8.757 -2.0476 -0.0931 -0.1399
 2310TIP3    H228490   0.767   5.983   8.734  1.0687  0.0131 -0.3293
 2311TIP3   OH228491   2.451   2.244   8.164 -0.1223  0.1798 -0.1886
 2311TIP3    H128492   2.451   2.313   8.230 -0.7398  0.1474 -0.1414
 2311TIP3    H228493   2.384   2.182   8.194  2.3239 -1.9661  1.3048
 2312TIP3   OH228494   5.112   0.800   0.796  0.1975  0.2449 -0.0462
 2312TIP3    H128495   5.120   0.709   0.769  0.0678  0.8554 -2.3155
 2312TIP3    H228496   5.172   0.848   0.739 -1.3290  1.8245 -0.4199
 2313TIP3   OH228497   5.051   1.990   0.964 -0.2034 -0.3521 -0.7848
 2313TIP3    H128498   5.145   1.974   0.958  0.1060  0.6603  0.7961
 2313TIP3    H228499   5.043   2.070   1.016 -1.9098  0.2348 -1.8439
 2314TIP3   OH228500   1.549   6.167   6.921  0.7881 -0.1549  0.2297
 2314TIP3    H128501   1.536   6.168   7.016  1.5028  0.9257  0.3347
 2314TIP3    H228502   1.467   6.203   6.886 -0.1493 -2.1139  0.3143
 2315TIP3   OH228503   2.632   5.334   6.809 -0.3920  0.2933  0.5397
 2315TIP3    H128504   2.574   5.366   6.878  2.0542  1.6544  2.0970
 2315TIP3    H228505   2.700   5.401   6.801  0.5080 -0.7809 -1.8347
 2316TIP3   OH228506   6.101   2.134   7.702  0.2587  0.2211  0.4680
 2316TIP3    H128507   6.090   2.055   7.650  0.8603  0.0222  0.6321
 2316TIP3    H228508   6.175   2.114   7.760  0.0902  0.7165  0.8607
 2317TIP3   OH228509   5.273   1.804   1.866  0.1428  0.0794  0.4320
 2317TIP3    H128510   5.305   1.890   1.837  1.9135  0.1461  2.3515
 2317TIP3    H228511   5.351   1.756   1.891 -0.9404 -1.5106  0.9454
 2318TIP3   OH228512   6.267   5.546   7.027  0.9415 -0.1023  0.1105
 2318TIP3    H128513   6.227   5.624   7.066 -0.1256 -0.6543  0.1354
 2318TIP3    H228514   6.203   5.514   6.964  1.9957 -0.1298 -0.9837
 2319TIP3   OH228515   1.002   3.502   0.424 -0.2904 -0.4794 -0.1383
 2319TIP3    H128516   0.937   3.568   0.450  2.2168  2.4030 -0.5684
 2319TIP3    H228517   1.021   3.455   0.504 -0.4343  1.0084  0.8183
 2320TIP3   OH228518   2.199   3.481   8.188  0.9251  0.0066 -0.5152
 2320TIP3    H128519   2.186   3.575   8.191  0.9093 -0.0150  0.2468
 2320TIP3    H228520   2.113   3.445   8.168  0.9959  0.1635 -1.1283
 2321TIP3   OH228521   0.211   4.637   1.339  0.2280  0.0194 -0.3950
 2321TIP3    H128522   0.258   4.623   1.421 -0.7735 -0.0261  0.1944
 2321TIP3    H228523   0.253   4.713   1.299 -0.4171  1.1752  1.0468
 2322TIP3   OH228524   4.251   3.955   6.902 -0.0966 -0.2656 -0.0407
 2322TIP3    H128525   4.268   3.909   6.819 -1.7879  0.6695 -0.9526
 2322TIP3    H228526   4.290   4.041   6.890 -0.0257 -0.2482  0.2951
 2323TIP3   OH228527   4.615   4.306   0.286  0.4995  0.4024  0.0155
 2323TIP3    H128528   4.551   4.242   0.257  0.3167  0.5354  0.1211
 2323TIP3    H228529   4.647   4.347   0.205 -0.1120  0.8703  0.0007
 2324TIP3   OH228530   5.168   0.572   7.281 -0.4173 -0.4607  0.3767
 2324TIP3    H128531   5.252   0.618   7.284  0.2558 -1.6380  3.4384
 2324TIP3    H228532   5.122   0.602   7.359 -2.3209 -0.8524 -0.5431
 2325TIP3   OH228533   2.303   6.490   7.132 -0.4182  0.2171 -0.1934
 2325TIP3    H128534   2.389   6.532   7.131 -1.4660  2.5202  0.0713
 2325TIP3    H228535   2.290   6.466   7.224 -0.4529  0.7628 -0.0519
 2326TIP3   OH228536   4.783   1.245   0.360 -0.2163 -0.0501  0.2611
 2326TIP3    H128537   4.852   1.186   0.391  0.2107 -0.5096 -1.4281
 2326TIP3    H228538   4.703   1.194   0.369 -0.3449  0.4355  2.1040
 2327TIP3   OH228539   4.401   4.901   0.647 -0.2395 -0.0082  0.2435
 2327TIP3    H128540   4.408   4.806   0.655  2.1291  0.0395 -0.4554
 2327TIP3    H228541   4.414   4.918   0.553 -1.5866  0.9719  0.2088
 2328TIP3   OH228542   0.920   2.374   0.455 -0.6284 -0.3979 -0.3283
 2328TIP3    H128543   0.950   2.351   0.543 -1.4670 -1.8155 -0.3969
 2328TIP3    H228544   0.912   2.291   0.409  0.0367  0.3356 -1.8497
 2329TIP3   OH228545   4.056   6.152   7.649 -0.1984  0.0664 -0.4131
 2329TIP3    H128546   4.017   6.224   7.700  0.5387 -0.6015  1.1479
 2329TIP3    H228547   3.981   6.099   7.622 -0.5936  0.2539  0.2743
 2330TIP3   OH228548   2.215   5.465   7.300  0.1441  0.7779  0.4120
 2330TIP3    H128549   2.172   5.380   7.307  0.0963  0.8421  0.9161
 2330TIP3    H228550   2.222   5.496   7.390  1.3947  0.6916  0.3560
 2331TIP3   OH228551   5.505   0.639   1.347  0.0303 -0.3554 -0.0806
 2331TIP3    H128552   5.510   0.648   1.443  3.4445 -1.1735 -0.0632
 2331TIP3    H228553   5.564   0.567   1.327 -2.1703 -1.5990 -2.7395
 2332TIP3   OH228554   2.158   1.298   1.701  0.2590  0.0745  0.2666
 2332TIP3    H128555   2.127   1.388   1.710 -2.6987 -0.6400 -1.4180
 2332TIP3    H228556   2.144   1.259   1.787  2.5736  1.3695  1.3471
 2333TIP3   OH228557   5.306   2.861   7.944 -0.2972  0.4737 -0.7685
 2333TIP3    H128558   5.239   2.797   7.969  0.2137 -0.6712 -2.1880
 2333TIP3    H228559   5.321   2.912   8.023 -1.4271 -0.5246  0.1269
 2334TIP3   OH228560   1.512   6.644   8.180 -0.2958  0.2127 -0.0926
 2334TIP3    H128561   1.564   6.591   8.240 -0.1550 -0.3081 -0.6652
 2334TIP3    H228562   1.575   6.679   8.118 -0.6245 -0.5113 -0.8564
 2335TIP3   OH228563   2.934   5.694   8.677 -0.4767 -0.0266 -0.2201
 2335TIP3    H128564   2.897   5.606   8.681 -0.7410  0.1242  1.1386
 2335TIP3    H228565   3.022   5.684   8.713 -0.8589  0.4255  0.8662
 2336TIP3   OH228566   4.521   3.859   7.949 -0.0414  0.4663 -0.0135
 2336TIP3    H128567   4.438   3.905   7.933  0.5419  1.5392 -0.0514
 2336TIP3    H228568   4.496   3.780   7.997 -1.2226  0.1129 -1.1486
 2337TIP3   OH228569   4.540   0.492   1.505 -0.0031  0.2059  0.5375
 2337TIP3    H128570   4.604   0.521   1.571 -2.0416 -1.5219  3.5054
 2337TIP3    H228571   4.477   0.564   1.500 -0.4074 -0.0756  1.3413
 2338TIP3   OH228572   6.537   2.399   7.541 -0.3090 -0.2192  0.5524
 2338TIP3    H128573   6.479   2.436   7.475  0.3851  0.5986  0.3882
 2338TIP3    H228574   6.598   2.470   7.562  1.6481 -1.5194 -0.4410
 2339TIP3   OH228575   3.370   1.038   6.845  0.4344  0.5258 -0.1104
 2339TIP3    H128576   3.443   1.025   6.783 -0.5356  0.7466 -1.3495
 2339TIP3    H228577   3.383   1.127   6.879  1.0818  0.3358  0.1424
 2340TIP3   OH228578   6.617   3.335   1.297  0.8039 -0.9058 -0.3775
 2340TIP3    H128579   6.530   3.296   1.284  0.9547 -1.2851 -0.2612
 2340TIP3    H228580   6.651   3.350   1.209  0.4312 -0.3274 -0.4263
 2341TIP3   OH228581   0.406   1.284   7.434 -0.5455 -0.2524  0.2802
 2341TIP3    H128582   0.340   1.321   7.494 -2.2095 -0.8211 -1.1193
 2341TIP3    H228583   0.385   1.322   7.349  1.5486  0.2506 -0.0515
 2342TIP3   OH228584   6.677   1.992   0.223  0.5628  0.0292  0.6495
 2342TIP3    H128585   6.664   1.951   0.138 -0.0003  2.9976 -0.8337
 2342TIP3    H228586   6.754   1.949   0.260  0.1554 -2.1056 -0.7942
 2343TIP3   OH228587   5.503   4.198   7.048  0.2030 -0.5470 -0.0152
 2343TIP3    H128588   5.584   4.221   7.093  0.3044  0.3803 -0.6473
 2343TIP3    H228589   5.532   4.168   6.962 -0.2186  2.1954 -1.2024
 2344TIP3   OH228590   6.326   4.397   7.000  0.1205 -0.3660 -0.3815
 2344TIP3    H128591   6.316   4.483   7.040  1.4269 -0.8541  1.1428
 2344TIP3    H228592   6.416   4.397   6.966  0.4623 -1.4135  0.4632
 2345TIP3   OH228593   5.623   1.255   0.807 -0.1853 -0.7659  0.0851
 2345TIP3    H128594   5.598   1.329   0.751  2.5830 -0.2870 -0.6781
 2345TIP3    H228595   5.638   1.294   0.893  1.8310 -0.2437 -0.4504
 2346TIP3   OH228596   2.332   4.203   1.189  0.4454  0.3116 -0.0033
 2346TIP3    H128597   2.381   4.278   1.223  0.9115  0.6336 -1.2957
 2346TIP3    H228598   2.399   4.139   1.166  0.1261 -0.0198 -0.0247
 2347TIP3   OH228599   5.211   5.066   0.700 -0.0255 -0.3173  0.5408
 2347TIP3    H128600   5.248   5.145   0.740 -1.2829  0.8920 -0.5909
 2347TIP3    H228601   5.140   5.040   0.758  0.7391 -0.9723  1.2076
 2348TIP3   OH228602   5.865   1.125   7.283 -0.1894  0.1196 -0.5229
 2348TIP3    H128603   5.863   1.067   7.207 -1.0572  1.0001 -1.1911
 2348TIP3    H228604   5.837   1.070   7.356  0.0816 -0.5870 -0.9434
 2349TIP3   OH228605   1.813   2.432   8.108 -0.0457  0.8381 -0.0847
 2349TIP3    H128606   1.864   2.511   8.125 -1.6149  2.1151 -0.9512
 2349TIP3    H228607   1.746   2.460   8.045 -1.3006 -0.9313  0.3811
 2350TIP3   OH228608   4.166   5.623   2.362 -0.0324  0.0796  0.1024
 2350TIP3    H128609   4.216   5.542   2.367  1.2582  0.8761  0.5259
 2350TIP3    H228610   4.084   5.603   2.406  0.6437 -0.7343  1.0328
 2351TIP3   OH228611   0.139   5.461   7.676  0.6167  1.0457  0.4308
 2351TIP3    H128612   0.078   5.388   7.683  0.4218  1.0277 -1.0539
 2351TIP3    H228613   0.084   5.537   7.656  0.9712  1.2313  0.1441
 2352TIP3   OH228614   4.268   6.631   0.343  0.1765  0.0982 -0.0855
 2352TIP3    H128615   4.212   6.554   0.352  0.0633  0.0917 -0.7796
 2352TIP3    H228616   4.329   6.625   0.416  0.6223 -1.0319 -0.5299
 2353TIP3   OH228617   2.870   3.483   6.779 -0.4053  0.4947 -0.6647
 2353TIP3    H128618   2.897   3.494   6.688 -0.4243 -0.5688 -0.8061
 2353TIP3    H228619   2.897   3.565   6.821  1.0508  0.3682 -1.2821
 2354TIP3   OH228620   0.038   0.320   1.417 -0.2072 -0.2675  0.2508
 2354TIP3    H128621   0.056   0.411   1.394  0.6066 -0.1821  1.1730
 2354TIP3    H228622   0.042   0.318   1.513  2.4920 -1.7818  0.1937
 2355TIP3   OH228623   3.627   0.108   8.407  0.0558 -0.5407  0.8238
 2355TIP3    H128624   3.626   0.155   8.491 -0.9378  0.1924  0.4269
 2355TIP3    H228625   3.553   0.145   8.358  3.0619  2.2363 -2.1138
 2356TIP3   OH228626   4.294   6.017   1.803  0.1885 -0.3388  0.1326
 2356TIP3    H128627   4.316   6.089   1.744 -0.6814  0.6297  0.9548
 2356TIP3    H228628   4.378   5.993   1.844  0.3487  0.8503  0.5384
 2357TIP3   OH228629   4.238   4.432   2.136 -0.5722 -0.1804 -0.1691
 2357TIP3    H128630   4.195   4.377   2.070 -2.7707 -2.0704  2.6222
 2357TIP3    H228631   4.329   4.404   2.135 -0.5691 -0.2377 -2.2714
 2358TIP3   OH228632   2.170   3.739   8.268 -0.0436  0.4644  0.1187
 2358TIP3    H128633   2.118   3.801   8.217 -0.3512  0.5062  0.4792
 2358TIP3    H228634   2.127   3.736   8.354  1.7529  2.0961  1.1625
 2359TIP3   OH228635   4.583   5.144   0.427 -0.0886  0.1475  0.0224
 2359TIP3    H128636   4.651   5.180   0.370 -0.1422 -0.1609 -0.2414
 2359TIP3    H228637   4.609   5.053   0.441 -0.5984 -0.0577 -0.3222
 2360TIP3   OH228638   3.905   5.705   1.103 -0.5821  0.0222  0.4006
 2360TIP3    H128639   3.904   5.638   1.035 -1.0558  0.4206  0.0094
 2360TIP3    H228640   3.946   5.663   1.178 -0.5980 -0.6068  0.0568
 2361TIP3   OH228641   5.085   5.993   7.533  0.6035  0.7866  0.4109
 2361TIP3    H128642   5.077   6.053   7.607  1.9886 -1.5661  2.6350
 2361TIP3    H228643   5.147   5.926   7.563  1.8616  0.1298 -3.2199
 2362TIP3   OH228644   5.070   5.154   1.177 -0.0642  0.3898  0.1760
 2362TIP3    H128645   4.994   5.114   1.218  0.5434 -0.9331  0.0870
 2362TIP3    H228646   5.144   5.123   1.230  0.5263  0.4732 -0.5846
 2363TIP3   OH228647   4.745   6.750   6.808 -0.0715  0.2888 -0.1370
 2363TIP3    H128648   4.735   6.759   6.713  0.1540  1.5973 -0.0590
 2363TIP3    H228649   4.774   6.837   6.837  0.0749 -0.1575  1.1028
 2364TIP3   OH228650   1.979   2.059   0.510 -0.5818 -0.4547  0.2118
 2364TIP3    H128651   1.921   1.983   0.511 -2.0958  0.6388 -0.4368
 2364TIP3    H228652   2.019   2.059   0.597 -2.2250 -0.7804  1.0256
 2365TIP3   OH228653   6.087   6.747   8.512  0.0842  0.1354 -0.2599
 2365TIP3    H128654   6.109   6.787   8.427  0.5407 -1.0207 -0.7130
 2365TIP3    H228655   6.102   6.817   8.575  0.1123  0.9120 -1.0960
 2366TIP3   OH228656   1.086   5.686   8.465 -0.2088  0.1906  0.3505
 2366TIP3    H128657   1.015   5.630   8.496  0.5862 -0.0666  1.7915
 2366TIP3    H228658   1.043   5.769   8.443 -1.0631 -0.2263  0.3951
 2367TIP3   OH228659   4.483   5.274   1.323 -0.1680  0.0906  0.2187
 2367TIP3    H128660   4.439   5.291   1.406  1.4079 -0.1054  1.1564
 2367TIP3    H228661   4.573   5.304   1.337  0.9406 -2.5753 -0.3800
 2368TIP3   OH228662   3.899   1.594   1.377 -0.2090  0.1121 -0.3468
 2368TIP3    H128663   3.826   1.556   1.327 -1.1620  1.7125 -0.2140
 2368TIP3    H228664   3.937   1.519   1.424  0.3202 -1.3643 -2.9063
 2369TIP3   OH228665   6.274   4.219   6.205 -0.0923  0.0813 -0.1208
 2369TIP3    H128666   6.315   4.278   6.268  0.6443 -0.2194 -0.3021
 2369TIP3    H228667   6.346   4.162   6.176 -0.9692 -1.5381  0.7813
 2370TIP3   OH228668   2.163   1.389   6.795  0.7438  0.0243 -0.0153
 2370TIP3    H128669   2.242   1.337   6.807  1.5383  0.8473 -1.3363
 2370TIP3    H228670   2.101   1.355   6.859  1.4789 -2.0096 -0.3207
 2371TIP3   OH228671   1.509   5.736   7.497  0.2322 -0.4184 -0.3820
 2371TIP3    H128672   1.464   5.696   7.422  1.4747 -1.0559 -0.8169
 2371TIP3    H228673   1.540   5.662   7.549  1.5002 -0.0422 -0.5549
 2372TIP3   OH228674   5.992   2.653   8.834 -0.0133 -0.0300  0.4348
 2372TIP3    H128675   6.083   2.670   8.858  0.8689  0.3043 -2.6343
 2372TIP3    H228676   5.997   2.627   8.742 -2.6677 -3.9746  1.1805
 2373TIP3   OH228677   4.215   3.660   0.791  0.4637  0.3335 -0.0876
 2373TIP3    H128678   4.278   3.683   0.860 -1.2829  1.1857  1.3151
 2373TIP3    H228679   4.138   3.630   0.839 -0.7764  0.8187 -1.6969
 2374TIP3   OH228680   3.061   5.580   6.305 -0.0124 -0.6308 -0.3337
 2374TIP3    H128681   3.009   5.578   6.224  0.9824 -3.5176 -1.0199
 2374TIP3    H228682   2.998   5.563   6.375 -0.8781  1.8585 -0.4249
 2375TIP3   OH228683   1.820   2.901   8.050  0.4059  0.4824  0.2538
 2375TIP3    H128684   1.881   2.975   8.040  0.1765  0.5978 -0.3313
 2375TIP3    H228685   1.774   2.897   7.966  0.7036 -0.5847  0.1324
 2376TIP3   OH228686   2.788   1.054   6.875  0.2069  0.4107  0.5793
 2376TIP3    H128687   2.883   1.059   6.879  0.1724  0.3315  1.5340
 2376TIP3    H228688   2.770   0.967   6.839  0.5154  1.3982 -2.2639
 2377TIP3   OH228689   2.741   5.255   7.458 -0.0910 -0.4408  0.0135
 2377TIP3    H128690   2.704   5.173   7.428  2.1405 -1.4927 -0.0868
 2377TIP3    H228691   2.667   5.315   7.463 -1.4153 -1.7693 -2.1870
 2378TIP3   OH228692   4.296   5.588   0.049 -0.1094  0.0228 -0.9571
 2378TIP3    H128693   4.359   5.661   0.048 -0.9699  0.7941 -0.3974
 2378TIP3    H228694   4.334   5.523  -0.010  1.4721  0.2493 -0.2531
 2379TIP3   OH228695   5.325   1.556   7.791  0.1909 -0.3427 -0.6669
 2379TIP3    H128696   5.246   1.510   7.818 -0.0965 -0.7961 -2.2156
 2379TIP3    H228697   5.327   1.548   7.696  1.0370  1.3979 -0.8477
 2380TIP3   OH228698   0.673   4.703   0.226  0.0211  0.4994 -0.0138
 2380TIP3    H128699   0.647   4.745   0.144  0.3371 -0.8288 -0.8223
 2380TIP3    H228700   0.742   4.759   0.262  0.9749  0.2843 -1.4547
 2381TIP3   OH228701   2.261   0.213   7.876 -0.1435  0.1733  0.9224
 2381TIP3    H128702   2.316   0.289   7.862 -1.2391  1.0541  1.2479
 2381TIP3    H228703   2.190   0.223   7.813 -0.4463 -0.4271  1.1584
 2382TIP3   OH228704   0.122   4.065   7.005  0.1548 -0.2893  0.3511
 2382TIP3    H128705   0.036   4.041   7.039 -0.0693  1.2459  0.9534
 2382TIP3    H228706   0.109   4.074   6.911 -1.2019  2.8997  0.6926
 2383TIP3   OH228707   1.796   1.280   7.682  0.2168  0.1664  0.8798
 2383TIP3    H128708   1.784   1.250   7.592  0.4658 -2.7632  1.7238
 2383TIP3    H228709   1.889   1.299   7.689  0.4555 -0.9222  0.8434
 2384TIP3   OH228710   0.580   2.455   1.843  0.3736 -0.2186  0.2535
 2384TIP3    H128711   0.612   2.365   1.846 -1.8484 -1.1257 -1.1045
 2384TIP3    H228712   0.633   2.497   1.775  1.4171 -0.4499  0.8889
 2385TIP3   OH228713   5.413   0.725   7.307 -0.1290 -0.2898 -0.2295
 2385TIP3    H128714   5.408   0.768   7.222 -2.4885  0.2076  0.0856
 2385TIP3    H228715   5.438   0.794   7.368  2.0821 -0.7567 -0.5283
 2386TIP3   OH228716   5.562   6.397   0.951 -0.1357 -0.3805 -0.0350
 2386TIP3    H128717   5.523   6.409   1.038 -0.4489 -0.6510 -0.1357
 2386TIP3    H228718   5.654   6.424   0.962 -0.5946  1.3130 -0.0558
 2387TIP3   OH228719   6.656   2.476   8.712 -0.2297  0.6129  0.1507
 2387TIP3    H128720   6.565   2.451   8.724 -0.1100  0.3949  0.6164
 2387TIP3    H228721   6.666   2.556   8.764 -0.7428  1.9627 -1.7302
 2388TIP3   OH228722   3.664   2.530   0.969 -0.1830 -0.2858  0.2091
 2388TIP3    H128723   3.691   2.462   0.908  0.4254 -0.7893  1.0070
 2388TIP3    H228724   3.570   2.540   0.955 -0.5011 -2.0913  0.8193
 2389TIP3   OH228725   3.931   0.387   0.734 -0.6532  0.5839 -0.5679
 2389TIP3    H128726   3.903   0.405   0.823 -3.5588 -0.0083 -1.2757
 2389TIP3    H228727   3.948   0.474   0.697  1.4936  0.7946  0.7498
 2390TIP3   OH228728   5.887   3.881   7.946  0.0252 -0.0538  0.2917
 2390TIP3    H128729   5.808   3.932   7.959 -1.1062 -1.5317 -0.4576
 2390TIP3    H228730   5.885   3.815   8.016 -0.0802 -0.8770 -0.4690
 2391TIP3   OH228731   3.828   3.073   1.248 -0.1689  0.2503 -0.1651
 2391TIP3    H128732   3.891   3.003   1.264  0.4075  1.1496  1.8853
 2391TIP3    H228733   3.881   3.148   1.223 -0.5786  0.5868 -0.0358
 2392TIP3   OH228734   5.314   3.797   1.593 -0.6903  0.2207  0.8990
 2392TIP3    H128735   5.252   3.818   1.523 -1.1163 -0.3080  1.1142
 2392TIP3    H228736   5.262   3.749   1.657 -0.6838  2.0352  2.3225
 2393TIP3   OH228737   0.064   2.656   6.603 -0.1085  0.2205 -0.2234
 2393TIP3    H128738  -0.015   2.646   6.549  0.2955  1.9279 -1.1980
 2393TIP3    H228739   0.031   2.688   6.687 -0.4942  0.9717 -0.6405
 2394TIP3   OH228740   2.196   5.629   0.464  0.2979 -0.5894  0.5347
 2394TIP3    H128741   2.253   5.705   0.479  2.3046 -1.5551 -1.7026
 2394TIP3    H228742   2.121   5.665   0.416  2.0974 -0.1826 -2.1755
 2395TIP3   OH228743   6.472   3.465   7.684  0.7431  0.1544  0.1000
 2395TIP3    H128744   6.490   3.504   7.770  0.8188 -1.3383  0.7940
 2395TIP3    H228745   6.516   3.380   7.687  0.5330 -0.0227 -1.3345
 2396TIP3   OH228746   2.313   3.622   0.198 -0.1363  0.1780 -0.2146
 2396TIP3    H128747   2.403   3.621   0.231 -0.4636  0.7104  0.7491
 2396TIP3    H228748   2.308   3.547   0.139  0.8349 -0.0789  0.0124
 2397TIP3   OH228749   3.069   2.334   7.008 -0.7969  0.5547  0.1311
 2397TIP3    H128750   3.005   2.357   7.075 -1.4563 -2.1663  0.5342
 2397TIP3    H228751   3.152   2.326   7.055  0.0184  4.0897 -0.3927
 2398TIP3   OH228752   0.357   5.277   0.500 -0.3087 -0.0670 -0.0544
 2398TIP3    H128753   0.433   5.306   0.451 -0.0098  0.4948  0.7140
 2398TIP3    H228754   0.333   5.193   0.460  0.4784 -0.0702 -0.5475
 2399TIP3   OH228755   0.148   4.434   8.615 -0.6834  0.2096 -0.1289
 2399TIP3    H128756   0.097   4.361   8.581  0.1696  0.3744 -1.8738
 2399TIP3    H228757   0.203   4.396   8.683 -0.8074 -0.6140 -0.4766
 2400TIP3   OH228758   5.459   4.922   0.460  0.0260 -0.5520 -0.2362
 2400TIP3    H128759   5.499   4.855   0.405 -0.2100  1.2722 -2.8470
 2400TIP3    H228760   5.365   4.906   0.454  0.0356 -0.7285  0.1281
 2401TIP3   OH228761   2.222   3.969   7.628  0.3595  0.4035 -0.8082
 2401TIP3    H128762   2.213   4.006   7.540  0.0847  3.1487  0.2640
 2401TIP3    H228763   2.312   3.991   7.653  1.1630 -2.2081 -1.0852
 2402TIP3   OH228764   6.163   2.554   7.879  0.0779 -0.1581  0.4634
 2402TIP3    H128765   6.186   2.609   7.954 -0.1510 -1.7189  1.7350
 2402TIP3    H228766   6.247   2.525   7.844  0.1704 -0.0260  0.5736
 2403TIP3   OH228767   5.357   2.551   8.300 -0.1384 -0.3653 -0.6093
 2403TIP3    H128768   5.411   2.478   8.272 -0.1599 -1.0702  1.0872
 2403TIP3    H228769   5.283   2.511   8.346 -0.4166  0.6917 -0.0840
 2404TIP3   OH228770   0.601   1.307   1.252  0.1365 -0.3161  0.1022
 2404TIP3    H128771   0.650   1.266   1.324 -1.9338 -0.3361  1.5728
 2404TIP3    H228772   0.546   1.372   1.294  0.9220  1.7190 -1.8358
 2405TIP3   OH228773   1.270   3.589   1.080  0.0417  0.2380 -0.4224
 2405TIP3    H128774   1.202   3.643   1.122  1.2907  4.4063 -3.1625
 2405TIP3    H228775   1.352   3.623   1.115  0.9097  0.5212 -2.6254
 2406TIP3   OH228776   2.431   4.784   7.353  0.6431  0.1982 -0.1285
 2406TIP3    H128777   2.352   4.738   7.382 -1.1583  2.6610 -0.7225
 2406TIP3    H228778   2.431   4.774   7.258 -0.5295  2.3361 -0.4245
 2407TIP3   OH228779   0.785   3.781   6.344  0.1327 -0.0501 -0.3967
 2407TIP3    H128780   0.727   3.732   6.287  0.1689 -1.3446  0.6360
 2407TIP3    H228781   0.740   3.785   6.427  0.5468  0.8831 -0.2064
 2408TIP3   OH228782   5.018   1.282   1.097  0.0658 -0.0043 -0.7100
 2408TIP3    H128783   4.938   1.265   1.147  0.2726 -1.2698 -0.7770
 2408TIP3    H228784   5.078   1.212   1.123  1.2379  1.0182 -0.5182
 2409TIP3   OH228785   4.705   4.637   7.829  0.3652 -0.4016 -0.2981
 2409TIP3    H128786   4.618   4.673   7.809  1.0427  0.8844 -1.0633
 2409TIP3    H228787   4.701   4.618   7.923 -0.4736  0.4209 -0.1455
 2410TIP3   OH228788   6.058   3.786   1.172 -0.9053  0.3743 -0.2539
 2410TIP3    H128789   6.025   3.832   1.094 -0.3852  1.7502  0.3098
 2410TIP3    H228790   6.033   3.695   1.158  1.2604  0.0869 -3.1947
 2411TIP3   OH228791   5.057   5.388   0.862 -0.5323  0.1350 -0.6964
 2411TIP3    H128792   5.080   5.295   0.855  0.3544  0.2991 -0.1851
 2411TIP3    H228793   4.962   5.390   0.855 -0.6846 -0.9601  0.6292
 2412TIP3   OH228794   1.716   1.382   7.915 -0.3642 -0.1060 -0.0241
 2412TIP3    H128795   1.731   1.353   7.825  0.6731 -0.3437  0.2173
 2412TIP3    H228796   1.758   1.467   7.920  1.2376 -0.8965  0.7340
 2413TIP3   OH228797   5.627   0.578   0.159 -0.1869 -0.2995  0.0400
 2413TIP3    H128798   5.664   0.530   0.233  2.3447 -0.3008 -1.1258
 2413TIP3    H228799   5.700   0.631   0.126 -2.0797  2.1535 -0.5186
 2414TIP3   OH228800   1.147   0.637   8.586  0.2389 -0.8214 -0.0634
 2414TIP3    H128801   1.123   0.593   8.505 -1.3605 -0.1803  0.0281
 2414TIP3    H228802   1.243   0.636   8.587  0.2776 -0.9287 -1.9080
 2415TIP3   OH228803   1.727   4.040   8.837 -0.1612  0.3407  0.8256
 2415TIP3    H128804   1.705   4.127   8.869 -2.0775  0.8948 -1.6473
 2415TIP3    H228805   1.757   4.054   8.747 -1.8383 -1.6003 -0.1289
 2416TIP3   OH228806   3.001   1.734   7.563 -0.3306  0.3018 -0.4098
 2416TIP3    H128807   2.984   1.759   7.654 -0.8810  0.9521 -0.6803
 2416TIP3    H228808   3.015   1.640   7.566 -0.2053  0.3400  0.3712
 2417TIP3   OH228809   4.024   5.336   8.372  0.5031 -0.3573 -0.2886
 2417TIP3    H128810   4.075   5.336   8.290  0.3467  2.0039 -0.4478
 2417TIP3    H228811   3.986   5.248   8.376  3.1219 -1.6595 -1.0616
 2418TIP3   OH228812   6.215   3.972   1.697 -0.0252  0.0994 -0.4449
 2418TIP3    H128813   6.164   3.916   1.638  0.5930  0.6303 -1.5185
 2418TIP3    H228814   6.284   4.009   1.642  0.3085  0.9787  0.5168
 2419TIP3   OH228815   1.873   6.352   0.908  0.2619  0.4205 -0.5072
 2419TIP3    H128816   1.804   6.406   0.946 -0.8182 -0.8170 -0.6292
 2419TIP3    H228817   1.917   6.409   0.845  0.3143  1.6731  0.6144
 2420TIP3   OH228818   0.600   6.082   1.300  0.7075  0.2799 -0.4396
 2420TIP3    H128819   0.599   6.132   1.219 -0.2507 -0.5249 -0.9520
 2420TIP3    H228820   0.511   6.046   1.307  0.8454  0.1419  0.8402
 2421TIP3   OH228821   3.552   3.732   2.124  0.6800 -0.2897 -0.6207
 2421TIP3    H128822   3.542   3.657   2.183 -0.4317 -0.3664 -0.8925
 2421TIP3    H228823   3.487   3.795   2.155  1.7942  0.6959 -0.2228
 2422TIP3   OH228824   5.286   1.690   2.355 -0.7500  0.2840 -0.1346
 2422TIP3    H128825   5.364   1.668   2.407 -2.3412  0.6456  2.6424
 2422TIP3    H228826   5.264   1.610   2.310  0.5839 -0.1444 -0.0804
 2423TIP3   OH228827   6.159   4.588   8.469 -0.1059 -0.0034  0.0491
 2423TIP3    H128828   6.120   4.675   8.460 -0.2445 -0.3000 -4.5814
 2423TIP3    H228829   6.097   4.540   8.523 -1.4241  2.0121  0.4586
 2424TIP3   OH228830   0.430   6.329   0.314  1.0440 -0.0626 -0.0752
 2424TIP3    H128831   0.434   6.246   0.362 -1.8412  0.2895  0.9590
 2424TIP3    H228832   0.359   6.377   0.356  1.0139  1.9320 -2.2477
 2425TIP3   OH228833   4.169   3.242   7.713 -0.4143 -0.4904  0.5011
 2425TIP3    H128834   4.087   3.247   7.762  0.0903 -1.6130  1.5343
 2425TIP3    H228835   4.161   3.161   7.662 -0.0951 -0.4138  0.3281
 2426TIP3   OH228836   4.363   5.052   7.856  0.4329 -0.4829 -0.0746
 2426TIP3    H128837   4.343   5.141   7.884 -0.0436 -1.0155  1.3372
 2426TIP3    H228838   4.430   5.063   7.788  1.7158  0.8636  1.3213
 2427TIP3   OH228839   2.285   3.953   0.920 -0.3384 -0.1130 -0.5843
 2427TIP3    H128840   2.282   3.858   0.921  0.8903 -0.2509  2.1337
 2427TIP3    H228841   2.320   3.976   1.007 -2.2168  2.8730 -0.4727
 2428TIP3   OH228842   1.295   6.009   7.869  0.2106  0.2095  0.0119
 2428TIP3    H128843   1.389   6.028   7.872  0.1173  0.6268  0.2549
 2428TIP3    H228844   1.258   6.078   7.814 -0.2231  1.1514  1.4417
 2429TIP3   OH228845   5.671   5.071   8.765 -0.0103  0.1441 -0.6482
 2429TIP3    H128846   5.666   4.992   8.711  0.5788  0.4447 -1.1518
 2429TIP3    H228847   5.616   5.135   8.720 -0.3384  0.0879 -0.3378
 2430TIP3   OH228848   4.470   2.706   0.318  0.4804  0.0080 -0.2724
 2430TIP3    H128849   4.481   2.755   0.237  1.8739  0.1831 -0.0099
 2430TIP3    H228850   4.558   2.674   0.339  0.3900  0.8899  1.7369
 2431TIP3   OH228851   2.562   4.102   7.199  0.1915 -0.4967  0.4429
 2431TIP3    H128852   2.609   4.159   7.139 -0.8641  0.2375  0.2932
 2431TIP3    H228853   2.620   4.093   7.274  1.8967 -2.0801 -0.9654
 2432TIP3   OH228854   3.770   5.609   1.380 -0.6343 -0.5557  0.3137
 2432TIP3    H128855   3.783   5.695   1.419  1.3461 -0.9092  0.5450
 2432TIP3    H228856   3.681   5.583   1.406 -1.1006  1.2147  0.5725
 2433TIP3   OH228857   6.383   4.594   6.558 -0.3280 -0.4205  0.1999
 2433TIP3    H128858   6.288   4.606   6.555 -0.2867  0.1193  0.8571
 2433TIP3    H228859   6.419   4.683   6.565  0.1779 -0.6718  0.9509
 2434TIP3   OH228860   6.334   2.194   7.532 -0.2287 -0.1534  0.0126
 2434TIP3    H128861   6.395   2.267   7.547  0.5745 -0.3424 -1.9069
 2434TIP3    H228862   6.263   2.209   7.593  1.9027 -0.1224  2.6638
 2435TIP3   OH228863   4.731   3.686   2.184 -0.4682  0.2618 -0.3295
 2435TIP3    H128864   4.654   3.694   2.240 -1.6338  1.5342 -2.0014
 2435TIP3    H228865   4.773   3.772   2.189  1.1657 -0.5469  0.9199
 2436TIP3   OH228866   5.256   1.397   1.657 -0.5843  0.6617 -0.1935
 2436TIP3    H128867   5.286   1.307   1.669  0.8268  1.2233  0.7371
 2436TIP3    H228868   5.195   1.411   1.730  0.7840  1.0910  0.8984
 2437TIP3   OH228869   1.386   3.080   7.790  0.1874  0.0490  0.0059
 2437TIP3    H128870   1.292   3.082   7.775  0.2139  0.6910 -0.1339
 2437TIP3    H228871   1.424   3.108   7.707  0.5744 -1.5960 -0.4018
 2438TIP3   OH228872   0.246   5.258   1.236 -0.4333  0.5094  0.0742
 2438TIP3    H128873   0.252   5.232   1.328 -1.0179  0.5170  0.1237
 2438TIP3    H228874   0.240   5.354   1.239  0.4558  0.5724 -0.0305
 2439TIP3   OH228875   1.238   6.061   0.720 -0.5592  0.5721 -0.5848
 2439TIP3    H128876   1.292   5.987   0.748 -0.6164  0.5405 -0.5579
 2439TIP3    H228877   1.262   6.132   0.780 -1.8569  0.0498  0.6137
 2440TIP3   OH228878   3.928   0.238   2.351 -0.3065 -0.2714  0.5356
 2440TIP3    H128879   3.954   0.313   2.404 -0.5499  0.6172 -0.5781
 2440TIP3    H228880   3.881   0.181   2.412 -1.1697  1.0374  1.1451
 2441TIP3   OH228881   4.818   5.375   8.223 -0.5891  1.2675 -0.6443
 2441TIP3    H128882   4.754   5.386   8.153  0.1467  0.8845 -1.3919
 2441TIP3    H228883   4.897   5.418   8.190  0.1887 -0.1072 -0.6568
 2442TIP3   OH228884   4.406   6.098   6.013 -0.8105  0.3384 -0.1434
 2442TIP3    H128885   4.400   6.144   5.929 -1.3011  0.4450 -0.0555
 2442TIP3    H228886   4.316   6.074   6.033 -1.2951  3.2557  1.9675
 2443TIP3   OH228887   5.390   4.536   8.765 -0.7162 -0.4705 -0.0071
 2443TIP3    H128888   5.334   4.553   8.840 -1.5009 -0.3809 -0.6063
 2443TIP3    H228889   5.345   4.576   8.691 -1.5118 -3.1736 -1.0959
 2444TIP3   OH228890   2.770   6.460   0.871 -0.2829 -0.0593  0.2648
 2444TIP3    H128891   2.750   6.392   0.807 -2.4487  1.3436 -0.6566
 2444TIP3    H228892   2.850   6.501   0.837 -1.8005  1.1865 -2.1526
 2445TIP3   OH228893   3.904   3.373   1.694 -0.1254 -0.1478  0.6600
 2445TIP3    H128894   3.937   3.283   1.688  0.1625  0.0497 -2.4080
 2445TIP3    H228895   3.809   3.364   1.680 -0.3266 -0.0649  1.8673
 2446TIP3   OH228896   1.786   1.845   8.618  0.2849 -0.5286 -1.0164
 2446TIP3    H128897   1.744   1.796   8.547 -1.6390  0.0647 -0.3276
 2446TIP3    H228898   1.823   1.922   8.575 -1.6367  0.2775 -1.2850
 2447TIP3   OH228899   2.518   4.740   6.313 -0.5346  0.0920  0.1234
 2447TIP3    H128900   2.581   4.672   6.291 -0.5286 -0.6785  2.2901
 2447TIP3    H228901   2.545   4.815   6.261  1.0327 -0.7851 -0.4001
 2448TIP3   OH228902   5.962   4.252   0.705 -0.4086  0.1970  0.1556
 2448TIP3    H128903   5.876   4.264   0.747 -0.2148  2.7584 -0.0273
 2448TIP3    H228904   5.981   4.336   0.664  1.9511 -0.4922 -0.3274
 2449TIP3   OH228905   1.496   4.870   1.304  0.3797  0.2927  0.3705
 2449TIP3    H128906   1.410   4.835   1.283 -0.0083  0.8759  0.9492
 2449TIP3    H228907   1.501   4.866   1.400  0.2633  1.9038  0.4715
 2450TIP3   OH228908   3.023   5.667   7.684  0.1040 -0.9535  0.0971
 2450TIP3    H128909   2.986   5.628   7.763  1.8583 -2.4114  0.2632
 2450TIP3    H228910   2.969   5.634   7.613 -1.3454  0.1824  0.6290
 2451TIP3   OH228911   5.025   2.141   6.663  0.3711  0.0870 -0.2351
 2451TIP3    H128912   5.073   2.181   6.590 -0.5974 -1.4439 -1.7969
 2451TIP3    H228913   4.955   2.091   6.621 -0.4911 -0.5169  1.7974
 2452TIP3   OH228914   5.084   1.729   0.266 -0.2367 -0.0460 -0.6096
 2452TIP3    H128915   5.137   1.783   0.325 -1.3291  0.5501 -0.1502
 2452TIP3    H228916   5.108   1.760   0.178  0.0361  0.3497 -0.4012
 2453TIP3   OH228917   3.172   4.733   7.436  0.1071 -0.5620  0.0360
 2453TIP3    H128918   3.204   4.667   7.497  2.6279  2.2633  2.0598
 2453TIP3    H228919   3.096   4.772   7.480 -1.5680 -2.1504 -1.2894
 2454TIP3   OH228920   1.093   4.995   8.784 -0.0947 -0.6670 -0.4026
 2454TIP3    H128921   1.187   5.001   8.800  0.3964 -0.8314 -2.7865
 2454TIP3    H228922   1.065   5.085   8.768 -1.3445  0.0742  4.4066
 2455TIP3   OH228923   6.748   3.214   0.101 -0.4639  0.6684  0.1551
 2455TIP3    H128924   6.671   3.271   0.110  1.3700  3.2880  0.3780
 2455TIP3    H228925   6.753   3.195   0.008 -0.9810  1.0745  0.0370
 2456TIP3   OH228926   0.442   2.212   7.903  0.3824 -0.3513 -0.2288
 2456TIP3    H128927   0.520   2.255   7.869  0.6499 -0.5650  0.1141
 2456TIP3    H228928   0.465   2.120   7.906  1.0290 -0.1690  2.2504
 2457TIP3   OH228929   3.922   4.737   7.122  0.1086  0.0738 -0.2293
 2457TIP3    H128930   3.962   4.752   7.036  2.1407 -1.9155  0.2819
 2457TIP3    H228931   3.950   4.812   7.175 -1.4188  1.4860 -1.2900
 2458TIP3   OH228932   6.416   4.915   7.726 -0.2282 -0.4310 -0.3298
 2458TIP3    H128933   6.451   4.828   7.710  0.1004 -0.4982  0.6602
 2458TIP3    H228934   6.410   4.920   7.822  0.5921  0.9569 -0.3338
 2459TIP3   OH228935   4.993   6.182   1.155  0.2135 -0.0062  0.1810
 2459TIP3    H128936   4.916   6.237   1.172  0.9167  1.1205 -0.1540
 2459TIP3    H228937   5.061   6.244   1.130  1.3323 -0.9560  0.7807
 2460TIP3   OH228938   6.015   1.879   6.212 -0.1677 -0.1503 -0.3680
 2460TIP3    H128939   6.021   1.962   6.164  0.2152 -1.0347 -1.9160
 2460TIP3    H228940   5.997   1.814   6.145  1.5937 -1.6295  0.5129
 2461TIP3   OH228941   4.667   3.190   7.366 -0.6616  0.8881 -0.3980
 2461TIP3    H128942   4.692   3.144   7.286 -1.0843  0.8818 -0.5272
 2461TIP3    H228943   4.577   3.219   7.351 -1.7425 -1.4128  1.0519
 2462TIP3   OH228944   5.546   2.129   6.822 -0.1457  0.2408 -0.7423
 2462TIP3    H128945   5.634   2.129   6.858 -0.9862  1.0564  1.4279
 2462TIP3    H228946   5.535   2.040   6.787  1.7598  0.3535 -1.7823
 2463TIP3   OH228947   5.123   0.484   7.006  0.2094 -0.0857 -0.2757
 2463TIP3    H128948   5.133   0.516   7.096  0.3866 -0.6307 -0.1021
 2463TIP3    H228949   5.041   0.524   6.976  1.4217  2.2310 -0.7878
 2464TIP3   OH228950   5.342   6.796   8.216  0.0463  0.1442 -0.0220
 2464TIP3    H128951   5.397   6.855   8.267  1.4629  0.2122 -1.5435
 2464TIP3    H228952   5.386   6.711   8.222  0.1196  0.1041 -0.9056
 2465TIP3   OH228953   2.311   2.884   8.228 -0.0937  0.0634 -0.3993
 2465TIP3    H128954   2.334   2.814   8.167  0.2575 -0.6419  0.5126
 2465TIP3    H228955   2.335   2.964   8.182  2.2519 -0.5447 -0.3740
 2466TIP3   OH228956   4.726   1.159   1.930 -0.1696 -0.0155  0.1533
 2466TIP3    H128957   4.662   1.163   1.858  0.6114 -0.1085 -0.5557
 2466TIP3    H228958   4.802   1.207   1.897 -0.0306  0.5000  1.1684
 2467TIP3   OH228959   4.961   3.376   0.766 -0.0901 -0.0510 -0.0686
 2467TIP3    H128960   4.870   3.403   0.771 -0.2685 -0.3586 -1.2438
 2467TIP3    H228961   4.968   3.302   0.825 -0.3204  0.6722  0.8823
 2468TIP3   OH228962   1.978   0.204   7.081 -0.0774 -0.2189 -0.4275
 2468TIP3    H128963   2.022   0.229   7.163 -1.4270  1.3162 -0.1231
 2468TIP3    H228964   2.050   0.188   7.020  0.9480 -0.6745  0.8383
 2469TIP3   OH228965   4.207   6.377   0.381  0.1767  0.5142 -0.3548
 2469TIP3    H128966   4.254   6.295   0.397  1.0054  1.1371  0.5739
 2469TIP3    H228967   4.162   6.364   0.298 -1.1256 -1.5046  0.6000
 2470TIP3   OH228968   4.300   0.579   2.578 -0.1309 -0.9132  0.8933
 2470TIP3    H128969   4.389   0.612   2.587  0.6593 -2.1818 -1.5507
 2470TIP3    H228970   4.310   0.490   2.544 -2.3418 -0.9390  0.1465
 2471TIP3   OH228971   1.901   3.706   0.918  0.0952 -0.4496 -0.2922
 2471TIP3    H128972   1.816   3.746   0.902 -0.1146  0.2054  2.0924
 2471TIP3    H228973   1.888   3.613   0.900 -1.0858 -0.3174 -0.1783
 2472TIP3   OH228974   1.879   1.842   1.042  0.3837 -0.2771 -0.1730
 2472TIP3    H128975   1.859   1.829   1.135  0.9224 -0.6548 -0.1061
 2472TIP3    H228976   1.819   1.784   0.996  1.9343 -2.1828  0.0689
 2473TIP3   OH228977   5.845   1.944   0.167 -0.6529 -0.2459  0.0011
 2473TIP3    H128978   5.845   1.991   0.251  1.5291  1.9934 -1.1371
 2473TIP3    H228979   5.915   1.879   0.176  0.8389  1.2232 -0.6527
 2474TIP3   OH228980   0.653   4.668   8.190 -0.4141 -0.2954  0.0566
 2474TIP3    H128981   0.613   4.592   8.148 -1.8748  1.0392 -1.0914
 2474TIP3    H228982   0.689   4.634   8.272 -2.9785 -1.8216  0.6556
 2475TIP3   OH228983   4.471   5.598   1.146 -0.4897  0.4398  0.4978
 2475TIP3    H128984   4.555   5.578   1.106 -0.2798  1.0401  0.6338
 2475TIP3    H228985   4.450   5.520   1.198 -0.6469 -0.2378 -0.5685
 2476TIP3   OH228986   6.234   6.295   7.969  0.0081  0.1440  0.0707
 2476TIP3    H128987   6.301   6.360   7.949 -0.3411  0.4494 -0.1249
 2476TIP3    H228988   6.185   6.286   7.887  0.8907 -1.3787 -0.3392
 2477TIP3   OH228989   5.419   1.812   8.630 -0.1767  0.2218  0.6949
 2477TIP3    H128990   5.455   1.894   8.594 -0.8293  1.1643  2.1069
 2477TIP3    H228991   5.329   1.834   8.654 -1.2460 -1.6422 -1.2642
 2478TIP3   OH228992   0.578   2.191   1.807  0.4727  0.3812 -0.0067
 2478TIP3    H128993   0.486   2.183   1.830  0.5302 -0.0297  0.0941
 2478TIP3    H228994   0.597   2.112   1.756  0.7354  0.5263 -0.1362
 2479TIP3   OH228995   4.362   5.371   5.664 -0.1339  0.0394 -0.1688
 2479TIP3    H128996   4.361   5.315   5.741 -2.1566  0.3035  0.0344
 2479TIP3    H228997   4.454   5.397   5.655  0.4407 -1.4073  1.0858
 2480TIP3   OH228998   0.791   2.886   7.709  0.0470 -0.6273  0.1034
 2480TIP3    H128999   0.818   2.978   7.705 -0.7914 -0.2931  1.3927
 2480TIP3    H229000   0.768   2.864   7.619 -0.8685  0.8065 -0.0452
 2481TIP3   OH229001   6.375   3.328   7.485  0.1402 -0.3119  0.3573
 2481TIP3    H129002   6.465   3.309   7.458 -0.5305  0.1416 -2.5290
 2481TIP3    H229003   6.383   3.405   7.542  1.6644 -1.3446  1.6378
 2482TIP3   OH229004   2.073   5.092   2.258 -0.0248  0.8369  0.2267
 2482TIP3    H129005   2.068   5.173   2.207 -0.3207  2.0136  2.0439
 2482TIP3    H229006   2.167   5.077   2.270  0.0428  0.6014 -0.5714
 2483TIP3   OH229007   1.119   6.461   1.497 -0.0964  0.1693 -0.0275
 2483TIP3    H129008   1.052   6.429   1.558  1.7703 -2.3694  0.8897
 2483TIP3    H229009   1.113   6.401   1.423  2.3784 -1.4814  0.9725
 2484TIP3   OH229010   2.871   5.953   8.710 -0.0918  0.3142  0.3287
 2484TIP3    H129011   2.930   5.966   8.784  1.8025  1.2085 -1.2440
 2484TIP3    H229012   2.869   5.858   8.698  1.1395  0.2683  0.3500
 2485TIP3   OH229013   1.699   2.917   6.829 -0.0782 -0.3260  0.5490
 2485TIP3    H129014   1.697   2.971   6.908  0.0228 -0.0631  0.3735
 2485TIP3    H229015   1.789   2.923   6.798 -0.1491 -0.3151  0.3388
 2486TIP3   OH229016   2.106   3.160   8.501 -0.2066 -0.5005 -0.6578
 2486TIP3    H129017   2.184   3.194   8.545 -0.0554  0.3968 -1.5877
 2486TIP3    H229018   2.090   3.221   8.429 -2.0367 -0.4072 -0.2340
 2487TIP3   OH229019   2.651   2.798   8.784  0.4086  0.3567  0.1554
 2487TIP3    H129020   2.677   2.745   8.859 -0.0261 -0.1294 -0.0327
 2487TIP3    H229021   2.727   2.853   8.765  1.9860 -2.2041 -1.4603
 2488TIP3   OH229022   5.703   1.875   0.776  0.4303 -0.0558  0.4007
 2488TIP3    H129023   5.646   1.922   0.715 -2.5841 -2.6151  0.9537
 2488TIP3    H229024   5.729   1.941   0.840 -0.4417  1.6283 -0.9113
 2489TIP3   OH229025   0.765   5.506   7.642  1.0144 -0.0797  0.0652
 2489TIP3    H129026   0.770   5.411   7.628  0.0594 -0.3747  1.4687
 2489TIP3    H229027   0.852   5.539   7.621  0.7623 -0.9157 -2.6995
 2490TIP3   OH229028   1.328   0.591   2.073 -0.4428 -0.1335  0.4329
 2490TIP3    H129029   1.324   0.513   2.129  0.2595 -1.6109 -1.4477
 2490TIP3    H229030   1.412   0.584   2.028 -1.3237  0.4925 -1.4197
 2491TIP3   OH229031   4.365   3.245   7.921 -0.2536  0.3949 -0.3123
 2491TIP3    H129032   4.296   3.206   7.975  0.1904  0.6220  0.4392
 2491TIP3    H229033   4.326   3.254   7.834 -1.0153  0.1033 -0.0069
 2492TIP3   OH229034   3.607   2.275   8.829  0.0986 -0.3899  0.1830
 2492TIP3    H129035   3.553   2.308   8.757  1.3667  2.8915  0.5632
 2492TIP3    H229036   3.570   2.189   8.849 -1.4752 -0.6393 -3.1094
 2493TIP3   OH229037   4.872   5.277   2.287 -0.1886 -0.5662  0.1165
 2493TIP3    H129038   4.903   5.304   2.374  2.6317  2.4970 -1.6336
 2493TIP3    H229039   4.949   5.236   2.246 -1.4415 -1.8547 -1.0410
 2494TIP3   OH229040   5.453   0.321   6.623  0.0991 -0.1228  0.1804
 2494TIP3    H129041   5.375   0.377   6.619 -1.2043 -1.8714  0.0755
 2494TIP3    H229042   5.503   0.356   6.697 -0.9371  0.8465  0.4674
 2495TIP3   OH229043   0.726   1.613   6.368  0.1366  0.0942 -0.0536
 2495TIP3    H129044   0.671   1.637   6.293  0.5655 -0.5748 -0.5948
 2495TIP3    H229045   0.810   1.656   6.351  0.7597 -1.3383 -0.7953
 2496TIP3   OH229046   0.237   0.285   7.170  1.1868 -0.0738 -0.4316
 2496TIP3    H129047   0.298   0.211   7.178  0.3019 -0.6830  0.9917
 2496TIP3    H229048   0.273   0.352   7.227  0.7737 -0.2718  0.0687
 2497TIP3   OH229049   3.184   3.613   1.593 -0.2904 -0.7064 -0.3588
 2497TIP3    H129050   3.112   3.628   1.654 -0.1484  1.3593 -0.6423
 2497TIP3    H229051   3.172   3.522   1.564 -1.2066 -1.2648  1.6024
 2498TIP3   OH229052   2.257   4.382   6.287  0.0017  0.2873  0.0256
 2498TIP3    H129053   2.309   4.348   6.214 -0.5912  1.2656 -0.8834
 2498TIP3    H229054   2.167   4.381   6.254 -0.4755 -0.6489  1.2960
 2499TIP3   OH229055   0.796   6.685   6.828  0.0913 -0.0853 -0.1455
 2499TIP3    H129056   0.819   6.750   6.894 -1.3398  1.0247 -0.6951
 2499TIP3    H229057   0.707   6.658   6.851  0.2753 -1.0808 -0.5474
 2500TIP3   OH229058   1.524   3.511   0.626  0.7064 -0.1667 -0.3969
 2500TIP3    H129059   1.429   3.505   0.620  0.6130  1.4440 -1.2550
 2500TIP3    H229060   1.555   3.429   0.589 -0.3392 -0.7887  0.0521
 2501TIP3   OH229061   2.064   2.844   8.326  0.3775 -0.0852  0.2078
 2501TIP3    H129062   2.147   2.846   8.277  0.4118  0.4194  0.2866
 2501TIP3    H229063   2.068   2.921   8.383  1.1403 -1.6124  2.3370
 2502TIP3   OH229064   2.903   0.272   1.125 -0.2138 -0.1979 -0.0671
 2502TIP3    H129065   2.969   0.322   1.173 -0.0106 -0.3902 -0.1413
 2502TIP3    H229066   2.864   0.216   1.192 -0.0862 -0.3050 -0.0810
 2503TIP3   OH229067   6.405   1.566   2.419 -0.6389  0.3108 -0.6884
 2503TIP3    H129068   6.477   1.624   2.399  0.3805 -0.6328  0.0886
 2503TIP3    H229069   6.411   1.552   2.514 -0.3073 -1.6986 -0.9502
 2504TIP3   OH229070   0.154   2.774   6.354 -0.9039 -0.7216 -0.3999
 2504TIP3    H129071   0.180   2.849   6.302 -0.6463 -0.8533 -0.4674
 2504TIP3    H229072   0.131   2.810   6.440  4.1782 -0.9195  1.3946
 2505TIP3   OH229073   0.196   1.297   7.634 -0.0054 -0.0393  0.2886
 2505TIP3    H129074   0.253   1.357   7.680  0.1644  0.4692 -0.5530
 2505TIP3    H229075   0.115   1.296   7.685 -0.4145  1.7664 -0.2537
 2506TIP3   OH229076   2.522   4.996   1.573 -0.5940 -0.3279 -0.0901
 2506TIP3    H129077   2.592   5.027   1.631 -0.6579  0.8199 -0.5913
 2506TIP3    H229078   2.446   4.986   1.630 -0.2605 -0.6946  0.2935
 2507TIP3   OH229079   3.693   2.355   7.105 -0.3793 -0.2867  0.2123
 2507TIP3    H129080   3.621   2.347   7.042 -0.7047 -1.9363  0.7333
 2507TIP3    H229081   3.753   2.417   7.065 -1.5130  0.2118 -0.8022
 2508TIP3   OH229082   3.456   1.028   0.130  0.7445 -0.4353  0.4834
 2508TIP3    H129083   3.417   0.948   0.093  1.4030 -0.0856 -1.0372
 2508TIP3    H229084   3.544   1.001   0.156  1.1080 -0.1313 -0.3967
 2509TIP3   OH229085   2.178   5.923   8.397 -0.3398  0.0883 -0.1837
 2509TIP3    H129086   2.107   5.858   8.394 -0.4758  0.2452 -2.5893
 2509TIP3    H229087   2.144   5.998   8.350  0.8034  0.8706  0.1882
 2510TIP3   OH229088   5.356   3.898   0.507 -0.2740 -0.3329  0.3168
 2510TIP3    H129089   5.277   3.846   0.517 -0.1263 -1.0019 -1.5230
 2510TIP3    H229090   5.363   3.914   0.413  1.1237  0.7632  0.5588
 2511TIP3   OH229091   0.069   2.967   0.837 -0.8788 -0.3128 -0.2961
 2511TIP3    H129092   0.088   2.956   0.744  0.6055  0.9026 -0.1841
 2511TIP3    H229093   0.127   2.904   0.880 -1.4037 -0.7157 -0.1615
 2512TIP3   OH229094   2.990   5.661   1.634  0.0912 -0.1986 -0.3803
 2512TIP3    H129095   2.977   5.608   1.713 -1.2051  0.6048 -0.0201
 2512TIP3    H229096   3.045   5.607   1.578  1.3257 -0.6641  1.1980
 2513TIP3   OH229097   5.430   3.175   7.510 -0.3116 -0.1621 -0.0236
 2513TIP3    H129098   5.462   3.128   7.433 -0.2769  0.7440 -0.5751
 2513TIP3    H229099   5.342   3.205   7.486  0.7786  2.7076 -0.9192
 2514TIP3   OH229100   5.097   3.785   0.875  0.8141  0.0048  0.2838
 2514TIP3    H129101   5.013   3.789   0.921 -0.3023  1.9477 -1.7247
 2514TIP3    H229102   5.073   3.763   0.785  2.1525  2.7977 -0.8608
 2515TIP3   OH229103   2.423   0.233   8.377 -0.3841 -0.9401  0.4053
 2515TIP3    H129104   2.338   0.266   8.407  0.2076 -0.2724  1.4139
 2515TIP3    H229105   2.451   0.297   8.312  0.0297 -0.3100  1.1875
 2516TIP3   OH229106   4.851   4.417   7.367  0.6263  0.2210 -0.1603
 2516TIP3    H129107   4.944   4.393   7.375  0.4316 -0.5464 -0.0653
 2516TIP3    H229108   4.806   4.356   7.426 -0.5029 -3.2782 -4.1250
 2517TIP3   OH229109   6.580   3.186   7.789  0.1305 -0.2341  0.2262
 2517TIP3    H129110   6.536   3.110   7.751 -0.0487  0.2529 -0.5842
 2517TIP3    H229111   6.556   3.185   7.881  1.8590 -2.3719  0.7367
 2518TIP3   OH229112   4.922   6.492   0.435  0.3245  0.0582 -0.3388
 2518TIP3    H129113   4.924   6.493   0.531  0.2086 -1.0068 -0.3161
 2518TIP3    H229114   4.890   6.579   0.411  0.5976  0.4267  0.5759
 2519TIP3   OH229115   6.672   4.628   0.737 -0.3391 -0.4809 -0.3454
 2519TIP3    H129116   6.610   4.666   0.675 -0.1345 -0.6353 -0.6460
 2519TIP3    H229117   6.677   4.536   0.712 -0.7177 -0.6791  0.2850
 2520TIP3   OH229118   4.027   5.420   0.509 -0.3047  0.0759 -0.0409
 2520TIP3    H129119   3.975   5.376   0.441  0.6527  0.9740 -1.4225
 2520TIP3    H229120   4.014   5.367   0.587  0.3913 -2.4146 -1.4701
 2521TIP3   OH229121   4.301   6.578   8.293  0.6894 -0.1896  0.7990
 2521TIP3    H129122   4.209   6.595   8.271  0.6860 -0.7213  0.3903
 2521TIP3    H229123   4.312   6.485   8.278  2.5989  0.5317 -4.2416
 2522TIP3   OH229124   0.303   6.394   6.895 -0.0040 -0.3438  0.0905
 2522TIP3    H129125   0.366   6.346   6.842  0.3926 -0.3783  0.5852
 2522TIP3    H229126   0.225   6.338   6.896  0.2033 -0.6333  0.0641
 2523TIP3   OH229127   6.167   4.657   1.144 -0.0455  0.1272  0.2480
 2523TIP3    H129128   6.148   4.750   1.145 -1.2635 -0.0982 -0.5692
 2523TIP3    H229129   6.166   4.633   1.051  0.7780 -0.6107  0.4098
 2524TIP3   OH229130   2.827   3.852   1.407  0.0378 -0.2064  0.4791
 2524TIP3    H129131   2.782   3.937   1.409  1.1892  0.4541  3.0931
 2524TIP3    H229132   2.913   3.871   1.370  0.2728 -0.2425  1.0032
 2525TIP3   OH229133   5.964   2.490   0.625 -0.3584  0.1513 -0.3781
 2525TIP3    H129134   6.007   2.469   0.708 -0.0933  0.2100 -0.4995
 2525TIP3    H229135   6.000   2.428   0.563  0.1756  0.7346 -0.6633
 2526TIP3   OH229136   3.368   3.862   1.857  0.0044 -0.0061  0.0726
 2526TIP3    H129137   3.343   3.870   1.949 -0.7254  1.3852 -0.2176
 2526TIP3    H229138   3.304   3.916   1.810  0.7840 -0.1350 -1.1774
 2527TIP3   OH229139   6.489   1.306   0.118  0.4747  0.1953 -0.3475
 2527TIP3    H129140   6.477   1.220   0.158  0.7302  0.5282  0.4632
 2527TIP3    H229141   6.437   1.366   0.172 -0.2088  0.4579 -1.2776
 2528TIP3   OH229142   1.672   0.720   1.780 -0.0960  0.0603 -0.7151
 2528TIP3    H129143   1.695   0.812   1.775  2.1384 -0.3267  0.9092
 2528TIP3    H229144   1.734   0.683   1.843 -0.4938 -2.6739 -1.7847
 2529TIP3   OH229145   5.764   1.021   0.884  0.1986 -0.0991 -0.5801
 2529TIP3    H129146   5.686   1.060   0.844  0.2077  1.6524  1.0282
 2529TIP3    H229147   5.832   1.032   0.818 -0.4684 -0.0325 -1.2830
 2530TIP3   OH229148   1.444   1.654   8.663  0.2529 -0.3905  0.1508
 2530TIP3    H129149   1.425   1.680   8.573  0.9188 -0.5486 -0.0398
 2530TIP3    H229150   1.476   1.564   8.656  0.8547 -0.2067  0.4822
 2531TIP3   OH229151   0.705   1.382   0.483  0.4548 -0.3338 -0.3011
 2531TIP3    H129152   0.756   1.430   0.417  1.8073 -1.9002 -0.4376
 2531TIP3    H229153   0.660   1.313   0.434  1.2214 -1.3179  0.3476
 2532TIP3   OH229154   1.675   5.835   0.005  0.1416 -0.2277  0.1945
 2532TIP3    H129155   1.687   5.764  -0.058  0.9087 -0.8070  0.9631
 2532TIP3    H229156   1.746   5.896  -0.014  0.0151 -0.1047  0.1146
 2533TIP3   OH229157   6.157   0.992   1.142  0.6019  0.3338  0.1632
 2533TIP3    H129158   6.176   1.050   1.068  1.6006 -1.4882 -1.1005
 2533TIP3    H229159   6.073   1.023   1.175  0.3228  1.4862 -1.4760
 2534TIP3   OH229160   6.799   3.955   0.935  0.3391  0.2580  0.2183
 2534TIP3    H129161   6.834   4.037   0.900  0.6895 -0.2448 -0.6339
 2534TIP3    H229162   6.857   3.934   1.009 -0.2175  1.1593  0.9321
 2535TIP3   OH229163   3.841   3.975   1.019 -0.0517  0.4715 -0.0584
 2535TIP3    H129164   3.800   3.992   1.103  1.1063  1.7646  0.2764
 2535TIP3    H229165   3.855   4.062   0.981  0.9138 -0.0149 -0.8552
 2536TIP3   OH229166   6.755   3.143   6.422  0.7566  0.5682  0.0758
 2536TIP3    H129167   6.783   3.088   6.349  2.0227  1.5479 -0.2158
 2536TIP3    H229168   6.789   3.230   6.401 -0.3945  1.2607  0.9809
 2537TIP3   OH229169   1.324   5.215   6.315 -0.3943 -0.2807  0.1775
 2537TIP3    H129170   1.305   5.295   6.266 -1.3305 -0.8361 -0.3804
 2537TIP3    H229171   1.309   5.239   6.407  1.4066  0.7737  0.2421
 2538TIP3   OH229172   4.358   0.175   6.396  0.5323  0.2335  0.4294
 2538TIP3    H129173   4.316   0.100   6.437  0.6708 -0.6494 -0.9538
 2538TIP3    H229174   4.312   0.186   6.312  2.0881  0.1265 -0.4836
 2539TIP3   OH229175   2.005   4.641   1.278 -0.2136 -0.3980  0.2771
 2539TIP3    H129176   2.009   4.546   1.289 -0.5685 -0.4550 -0.0805
 2539TIP3    H229177   2.072   4.675   1.339 -0.8212 -0.8071  1.1936
 2540TIP3   OH229178   3.316   3.572   1.963 -0.5926  0.2193 -0.1607
 2540TIP3    H129179   3.319   3.516   1.886 -0.1738  3.1133 -2.4416
 2540TIP3    H229180   3.223   3.577   1.985 -0.6295 -1.3453  0.1182
 2541TIP3   OH229181   3.479   4.515   7.788 -0.1257  0.3023 -0.1559
 2541TIP3    H129182   3.442   4.451   7.849 -1.6055  1.4656  0.2330
 2541TIP3    H229183   3.497   4.465   7.708 -1.7027 -0.5165 -0.0420
 2542TIP3   OH229184   3.591   2.918   0.509 -0.3701  0.2946  0.1309
 2542TIP3    H129185   3.557   2.888   0.593  0.0936  0.7307  0.4803
 2542TIP3    H229186   3.559   3.008   0.500 -0.2018  0.3391 -0.0344
 2543TIP3   OH229187   6.687   2.726   0.210  0.8168 -0.2423  0.2513
 2543TIP3    H129188   6.653   2.738   0.298 -1.8803  2.9412 -0.9933
 2543TIP3    H229189   6.747   2.799   0.197  0.8911 -0.4507 -0.6386
 2544TIP3   OH229190   2.170   5.209   7.963  0.5970  0.2433  0.0274
 2544TIP3    H129191   2.096   5.208   7.902 -1.5375 -0.1719  2.4232
 2544TIP3    H229192   2.129   5.213   8.050  3.4650  1.7886  1.4521
 2545TIP3   OH229193   4.911   2.954   8.245  0.0349  0.3246  0.0365
 2545TIP3    H129194   4.998   2.960   8.284 -0.1648  0.3443  0.4836
 2545TIP3    H229195   4.895   3.041   8.208  1.0732 -0.2462 -1.9542
 2546TIP3   OH229196   3.444   1.668   6.750  0.1379 -0.1663  0.3194
 2546TIP3    H129197   3.415   1.611   6.679 -1.8379 -0.8891  1.6054
 2546TIP3    H229198   3.475   1.747   6.707 -1.7960 -0.2354 -1.3432
 2547TIP3   OH229199   2.699   1.412   7.454  0.0351 -0.1872 -0.5370
 2547TIP3    H129200   2.632   1.476   7.475  0.5560  0.2653 -0.2440
 2547TIP3    H229201   2.729   1.435   7.366  0.7128  0.4070 -0.1586
 2548TIP3   OH229202   1.434   1.872   6.941  0.1085 -0.5696 -0.1997
 2548TIP3    H129203   1.404   1.959   6.915 -0.3952 -1.1045 -1.5130
 2548TIP3    H229204   1.528   1.871   6.921  0.1955 -0.2101  0.1802
 2549TIP3   OH229205   4.021   2.003   7.868  0.1667 -0.0421 -0.5268
 2549TIP3    H129206   3.956   1.956   7.815  0.7224  1.1070 -2.3468
 2549TIP3    H229207   4.013   1.964   7.955 -1.6569 -1.2047 -1.1290
 2550TIP3   OH229208   1.799   6.449   7.921  0.0950  0.7952  0.1322
 2550TIP3    H129209   1.841   6.405   7.995 -0.0764  3.6419  2.0680
 2550TIP3    H229210   1.869   6.500   7.881 -0.4771  1.8174  0.3993
 2551TIP3   OH229211   6.583   1.092   1.239  0.0281 -0.2313  0.0470
 2551TIP3    H129212   6.549   1.099   1.150  0.3435  0.1626 -0.0422
 2551TIP3    H229213   6.551   1.006   1.269 -2.2999  0.7079  0.5023
 2552TIP3   OH229214   4.055   2.738   0.023 -0.0194  0.5906 -0.2264
 2552TIP3    H129215   4.096   2.681  -0.043 -0.6659 -0.2513  0.0806
 2552TIP3    H229216   4.001   2.679   0.076 -0.5148  1.4590  0.2646
 2553TIP3   OH229217   3.155   4.722   7.828 -0.4791  0.1605  0.2643
 2553TIP3    H129218   3.087   4.754   7.887  0.2042  0.6492  0.7947
 2553TIP3    H229219   3.237   4.735   7.876  0.0316 -0.0073 -0.5474
 2554TIP3   OH229220   2.242   5.410   1.641 -0.3586  0.1107 -0.0484
 2554TIP3    H129221   2.197   5.333   1.675  0.3914 -0.8063 -1.0679
 2554TIP3    H229222   2.330   5.404   1.677 -0.3736  0.6569  0.0886
 2555TIP3   OH229223   1.413   5.294   8.816 -0.1305  0.0591 -0.1571
 2555TIP3    H129224   1.353   5.304   8.891 -0.8418 -0.5124 -0.6308
 2555TIP3    H229225   1.496   5.330   8.847 -0.6501  0.6553  0.6021
 2556TIP3   OH229226   2.227   4.350   1.521 -0.2730  0.5453 -0.1764
 2556TIP3    H129227   2.156   4.289   1.542  1.0405 -0.1427  2.7716
 2556TIP3    H229228   2.184   4.435   1.511 -1.7144 -0.2056 -0.5891
 2557TIP3   OH229229   1.068   5.033   8.387 -0.4186  0.0599 -0.3102
 2557TIP3    H129230   1.076   5.112   8.441  0.6278 -0.2194 -0.0348
 2557TIP3    H229231   1.033   5.064   8.304 -0.7218  0.7010  0.0471
 2558TIP3   OH229232   5.295   6.103   7.322  0.4547  0.1651  0.4222
 2558TIP3    H129233   5.271   6.167   7.389  0.1906  0.5805 -0.0684
 2558TIP3    H229234   5.211   6.068   7.291  0.5200  0.7977 -0.4917
 2559TIP3   OH229235   2.252   2.826   0.550  0.0703  0.4618  0.6985
 2559TIP3    H129236   2.309   2.789   0.618  0.3123  0.7433  0.6495
 2559TIP3    H229237   2.274   2.777   0.471 -0.3958 -0.0471  0.8731
 2560TIP3   OH229238   0.080   3.666   6.745 -0.1905 -0.2397 -0.5331
 2560TIP3    H129239   0.012   3.697   6.804  0.7528  0.3704  0.2674
 2560TIP3    H229240   0.045   3.584   6.709 -1.9299  0.7710 -1.2400
 2561TIP3   OH229241   5.482   6.373   7.580 -0.1440  0.5681 -0.3445
 2561TIP3    H129242   5.434   6.306   7.532  1.7751 -0.1973 -1.2764
 2561TIP3    H229243   5.421   6.447   7.585 -2.3936 -1.2315  0.8987
 2562TIP3   OH229244   6.188   3.800   0.196 -0.1040 -0.3432 -0.5012
 2562TIP3    H129245   6.144   3.749   0.128 -1.0233  0.2032 -0.3285
 2562TIP3    H229246   6.191   3.889   0.161  2.0464 -0.5811 -1.0731
 2563TIP3   OH229247   0.785   3.733   7.102  0.5640 -1.0154 -0.3098
 2563TIP3    H129248   0.734   3.799   7.149  0.4821  0.4975 -2.3694
 2563TIP3    H229249   0.871   3.734   7.144  0.5974  0.5432 -0.3523
 2564TIP3   OH229250   2.643   3.982   2.348 -0.2258  0.4644 -0.1229
 2564TIP3    H129251   2.632   4.034   2.428 -2.6485  0.4217 -0.3348
 2564TIP3    H229252   2.584   3.907   2.360  0.3926 -0.2622 -1.3896
 2565TIP3   OH229253   2.311   5.223   7.107  0.7584 -0.3887  0.1586
 2565TIP3    H129254   2.396   5.252   7.140  1.1586 -1.1502 -0.1837
 2565TIP3    H229255   2.247   5.261   7.168  1.1636  1.9652 -0.7855
 2566TIP3   OH229256   2.476   2.362   7.449  0.2796  0.0527  0.3286
 2566TIP3    H129257   2.466   2.431   7.383  0.8678 -0.1753 -0.0075
 2566TIP3    H229258   2.569   2.362   7.470  0.4468 -1.2070 -0.3089
 2567TIP3   OH229259   2.136   3.789   6.858 -0.6016  0.4871  0.6655
 2567TIP3    H129260   2.218   3.816   6.899  0.6851 -1.2779 -0.6081
 2567TIP3    H229261   2.090   3.871   6.840  0.0732  1.4425  2.9199
 2568TIP3   OH229262   4.305   1.929   8.806 -0.5922 -1.1635 -0.0043
 2568TIP3    H129263   4.382   1.981   8.829 -0.2891 -1.9774  0.9198
 2568TIP3    H229264   4.341   1.852   8.761 -1.1047 -0.1599 -2.2558
 2569TIP3   OH229265   3.439   5.447   0.980 -1.3204 -0.4903  0.3473
 2569TIP3    H129266   3.395   5.530   1.000  1.1204  0.8607  0.6542
 2569TIP3    H229267   3.375   5.397   0.929 -2.4311  2.2197 -1.1655
 2570TIP3   OH229268   0.680   3.722   0.210 -0.1078 -0.7368 -0.6083
 2570TIP3    H129269   0.693   3.635   0.248  1.1076  0.5288  2.2156
 2570TIP3    H229270   0.768   3.760   0.207 -0.7851  0.9683 -0.1517
 2571TIP3   OH229271   1.986   0.563   7.992 -0.3238 -0.5013 -0.1053
 2571TIP3    H129272   2.011   0.641   7.941  0.5717 -0.6201  0.1314
 2571TIP3    H229273   1.891   0.565   7.993 -0.5519 -1.8413 -3.8834
 2572TIP3   OH229274   0.891   1.518   8.489 -0.4944 -0.3432  0.1413
 2572TIP3    H129275   0.908   1.455   8.559 -3.3995 -2.0061 -0.4801
 2572TIP3    H229276   0.941   1.484   8.414 -0.2636 -0.6211  0.4152
 2573TIP3   OH229277   4.886   2.690   0.537 -0.1292 -0.0870 -0.3728
 2573TIP3    H129278   4.927   2.661   0.455 -0.8298  0.9084 -1.0972
 2573TIP3    H229279   4.833   2.766   0.512  0.7763  1.1473  1.2496
 2574TIP3   OH229280   2.798   3.876   6.739  0.0438  0.6894  0.2451
 2574TIP3    H129281   2.847   3.811   6.788  0.7766  0.9439 -0.1285
 2574TIP3    H229282   2.752   3.927   6.805 -0.0226  0.1999  0.5794
 2575TIP3   OH229283   5.812   5.465   8.071  0.6675  0.1801  0.4134
 2575TIP3    H129284   5.749   5.533   8.094 -1.0694 -1.5313  0.9955
 2575TIP3    H229285   5.820   5.471   7.976 -0.9778 -0.0338  0.2380
 2576TIP3   OH229286   6.390   3.183   6.493 -0.7295  0.1818 -0.1282
 2576TIP3    H129287   6.305   3.141   6.508 -0.3651 -0.0257  1.5792
 2576TIP3    H229288   6.426   3.195   6.581  0.8447  0.6276 -0.8082
 2577TIP3   OH229289   4.492   3.238   1.019 -0.1126  0.2070  0.0132
 2577TIP3    H129290   4.531   3.186   1.090 -1.5053 -0.0179  0.6427
 2577TIP3    H229291   4.409   3.269   1.055 -0.2805  1.1139 -1.1099
 2578TIP3   OH229292   2.056   4.378   1.900  0.3998 -0.0765 -0.2764
 2578TIP3    H129293   2.042   4.383   1.995 -1.0371  1.2094 -0.5194
 2578TIP3    H229294   1.968   4.369   1.863  0.7617  1.3726 -1.5715
 2579TIP3   OH229295   1.427   0.035   8.775 -0.2453 -0.0501 -0.0080
 2579TIP3    H129296   1.504   0.012   8.827 -1.0119 -0.4168  0.9949
 2579TIP3    H229297   1.397  -0.048   8.738 -1.1204 -0.1772  0.9625
 2580TIP3   OH229298   2.606   6.046   6.967 -0.4542 -0.4295  0.6528
 2580TIP3    H129299   2.681   6.098   6.993 -0.2218 -0.3095 -0.2314
 2580TIP3    H229300   2.641   5.959   6.950 -0.0003  0.2215 -2.2546
 2581TIP3   OH229301   3.375   2.807   8.803  0.6308 -0.0264  0.4740
 2581TIP3    H129302   3.438   2.865   8.845  2.3363 -0.6218 -1.1068
 2581TIP3    H229303   3.306   2.866   8.770  1.0517  0.7971  1.0478
 2582TIP3   OH229304   5.481   3.758   8.289 -0.1652 -0.0344  0.5758
 2582TIP3    H129305   5.438   3.724   8.367  0.0381  1.9802  1.6261
 2582TIP3    H229306   5.566   3.790   8.320  0.8007 -1.0279 -0.8707
 2583TIP3   OH229307   6.261   4.024   0.089  0.3881 -0.5261 -0.4060
 2583TIP3    H129308   6.343   4.034   0.138  1.6208 -1.6943 -2.0926
 2583TIP3    H229309   6.231   4.114   0.076  2.3884  0.0893 -1.2587
 2584TIP3   OH229310   0.316   2.400   7.577 -0.3796  0.8679 -0.1713
 2584TIP3    H129311   0.237   2.346   7.577 -0.7527  1.3502  1.1618
 2584TIP3    H229312   0.360   2.379   7.495 -0.5576 -1.3778  0.2219
 2585TIP3   OH229313   2.494   6.462   8.512  0.1183 -1.2358  0.5077
 2585TIP3    H129314   2.486   6.513   8.431 -0.3642 -1.3322  0.4887
 2585TIP3    H229315   2.576   6.414   8.503  0.2536 -0.9549  0.2395
 2586TIP3   OH229316   3.283   1.862   8.829 -0.1542  0.1138  0.0817
 2586TIP3    H129317   3.282   1.884   8.736  0.2424 -0.6333 -0.1056
 2586TIP3    H229318   3.216   1.919   8.868 -0.7812 -0.0203 -0.7643
 2587TIP3   OH229319   2.801   2.209   7.311  0.6480  0.4005  0.1791
 2587TIP3    H129320   2.744   2.152   7.362 -1.5226  0.9438 -1.4848
 2587TIP3    H229321   2.819   2.283   7.369  0.1558 -0.0786  0.9593
 2588TIP3   OH229322   3.634   5.183   7.758  0.0167 -0.0941  0.4197
 2588TIP3    H129323   3.582   5.105   7.740 -0.3800 -0.5660  3.1673
 2588TIP3    H229324   3.720   5.164   7.721 -0.5941 -1.0485 -0.5370
 2589TIP3   OH229325   0.313   3.850   2.174  0.0523 -0.0018 -0.1568
 2589TIP3    H129326   0.385   3.900   2.135  1.0086 -1.4238 -0.2825
 2589TIP3    H229327   0.243   3.914   2.185  1.3519  1.4560  0.0452
 2590TIP3   OH229328   4.841   3.220   8.233 -0.6583 -0.6056 -0.5608
 2590TIP3    H129329   4.835   3.255   8.322 -0.3467 -1.0422 -0.3646
 2590TIP3    H229330   4.851   3.298   8.178  3.0091 -0.4267  0.1117
 2591TIP3   OH229331   2.789   2.783   7.913 -0.2562 -0.2059 -0.4645
 2591TIP3    H129332   2.748   2.829   7.987  1.8793 -1.3814  1.5797
 2591TIP3    H229333   2.729   2.711   7.894 -0.1817 -0.7410  1.1537
 2592TIP3   OH229334   3.464   3.158   1.772  0.3968 -0.1886 -0.4146
 2592TIP3    H129335   3.383   3.197   1.741 -0.7210 -1.8910  0.2222
 2592TIP3    H229336   3.483   3.203   1.854  0.4442  0.6382 -0.8750
 2593TIP3   OH229337   2.178   2.879   7.007 -0.0204 -0.3903  1.1079
 2593TIP3    H129338   2.175   2.959   6.954  0.5161 -1.3721 -0.4671
 2593TIP3    H229339   2.252   2.830   6.973 -1.2603 -2.2722  0.9850
 2594TIP3   OH229340   0.905   5.366   7.206 -0.2528  0.6374  0.2794
 2594TIP3    H129341   0.936   5.350   7.117  1.1801  0.2146  0.8169
 2594TIP3    H229342   0.901   5.462   7.213  1.9884  0.7895  0.4515
 2595TIP3   OH229343   6.653   0.815   1.667 -0.3237 -0.0777 -0.0100
 2595TIP3    H129344   6.657   0.875   1.741 -0.1852  0.6094 -0.5629
 2595TIP3    H229345   6.682   0.731   1.702 -0.0016  0.3009  0.6453
 2596TIP3   OH229346   1.718   0.539   8.571  0.0431  0.1752  0.1776
 2596TIP3    H129347   1.726   0.534   8.667  1.4992 -1.7976  0.0119
 2596TIP3    H229348   1.644   0.482   8.551 -0.7473  1.1829  0.1470
 2597TIP3   OH229349   2.919   3.939   0.971  0.3994 -0.7665 -0.3503
 2597TIP3    H129350   2.934   3.936   0.876 -0.6102 -1.5858 -0.5060
 2597TIP3    H229351   2.929   4.031   0.994 -1.9058 -0.0596 -1.7315
 2598TIP3   OH229352   4.158   6.730   0.954 -0.0766 -0.0425 -0.3063
 2598TIP3    H129353   4.082   6.688   0.995 -0.7405 -0.7208 -2.1096
 2598TIP3    H229354   4.121   6.794   0.894  0.8137  0.2783 -0.5296
 2599TIP3   OH229355   3.322   2.604   8.168  0.0318  0.4328  0.5817
 2599TIP3    H129356   3.381   2.581   8.096 -1.2117 -2.8249  0.4117
 2599TIP3    H229357   3.295   2.693   8.150  1.2440  0.3806 -1.9188
 2600TIP3   OH229358   2.107   6.419   7.864  0.2037 -0.6985  0.4870
 2600TIP3    H129359   2.061   6.335   7.858 -0.9114 -0.3112  2.7320
 2600TIP3    H229360   2.170   6.407   7.935  1.3320 -0.1770 -0.3931
 2601TIP3   OH229361   0.581   1.286   2.517  0.2365  0.4783 -0.0436
 2601TIP3    H129362   0.653   1.312   2.574  0.3879  1.3643 -0.6113
 2601TIP3    H229363   0.603   1.197   2.490  0.2982  0.1486  1.0421
 2602TIP3   OH229364   2.441   2.915   7.787 -0.8872 -0.2749 -0.0910
 2602TIP3    H129365   2.367   2.903   7.728 -0.9689 -0.2333  0.0012
 2602TIP3    H229366   2.511   2.948   7.732 -1.7335  2.3507  0.2624
 2603TIP3   OH229367   0.931   5.832   7.147 -0.0386  0.3276 -0.0179
 2603TIP3    H129368   0.887   5.871   7.072 -0.0450 -0.2938 -0.3424
 2603TIP3    H229369   0.978   5.757   7.111 -0.2282 -0.1115  0.6397
 2604TIP3   OH229370   6.613   0.955   1.903  0.0927  0.0261  0.0953
 2604TIP3    H129371   6.681   1.021   1.889  1.5574 -1.6623 -1.0851
 2604TIP3    H229372   6.621   0.933   1.996  0.4834  0.5401  0.1912
 2605TIP3   OH229373   2.843   2.602   0.412  0.3136  0.5111 -0.0961
 2605TIP3    H129374   2.788   2.649   0.349 -1.2111  0.1756  0.9104
 2605TIP3    H229375   2.827   2.510   0.393  1.2039  0.3956 -0.3232
 2606TIP3   OH229376   2.051   5.211   8.603  0.4496  0.1899 -0.6178
 2606TIP3    H129377   2.012   5.215   8.690  1.7961  0.4090  0.0078
 2606TIP3    H229378   2.004   5.141   8.557  0.3952 -0.6186  0.6380
 2607TIP3   OH229379   3.059   4.327   0.484 -0.2499  0.4251  0.0088
 2607TIP3    H129380   2.997   4.269   0.528  1.5351 -1.6862 -0.0937
 2607TIP3    H229381   3.071   4.287   0.397 -0.7782  2.3460 -1.0103
 2608TIP3   OH229382   6.116   5.205   8.456  0.1554 -0.1239  0.2371
 2608TIP3    H129383   6.072   5.180   8.537  0.4530 -0.1592  0.3927
 2608TIP3    H229384   6.051   5.191   8.387  0.1451 -0.8307  0.3820
 2609TIP3   OH229385   1.258   0.668   1.560  0.0201 -0.0128  0.0396
 2609TIP3    H129386   1.200   0.743   1.546  0.0048  0.0331  0.3464
 2609TIP3    H229387   1.200   0.597   1.587 -0.0527 -0.3331 -0.9185
 2610TIP3   OH229388   5.102   3.944   1.507 -0.2754 -0.8534 -0.0247
 2610TIP3    H129389   5.097   4.032   1.546  1.5329 -0.7753  0.1049
 2610TIP3    H229390   5.034   3.894   1.553 -0.0195 -0.0384  1.3091
 2611TIP3   OH229391   2.778   0.281   8.699 -0.2636  0.1833 -0.3090
 2611TIP3    H129392   2.720   0.205   8.700  1.7994 -1.4783  1.6262
 2611TIP3    H229393   2.764   0.320   8.612 -3.3216 -0.7751 -0.3717
 2612TIP3   OH229394   4.188   1.252   7.241 -0.2108  0.2037  0.3241
 2612TIP3    H129395   4.257   1.255   7.175  0.5433  1.5807  1.1220
 2612TIP3    H229396   4.183   1.160   7.267  2.2951  0.2301  1.1714
 2613TIP3   OH229397   4.802   0.313   6.982  0.0271  0.4388 -0.1176
 2613TIP3    H129398   4.716   0.279   7.008  0.1142 -0.3079 -0.7862
 2613TIP3    H229399   4.802   0.403   7.015 -0.2806 -0.1176  1.5157
 2614TIP3   OH229400   2.033   1.002   0.154  0.0608  0.1810  0.5013
 2614TIP3    H129401   2.128   0.997   0.145  0.0674 -0.6818  0.9624
 2614TIP3    H229402   2.015   1.095   0.164  0.9840  0.2526  1.7066
 2615TIP3   OH229403   4.380   4.294   8.781  0.0869  0.7352 -0.3780
 2615TIP3    H129404   4.475   4.288   8.788  0.0401 -0.0853 -0.3869
 2615TIP3    H229405   4.364   4.383   8.748  0.7723  1.3074  0.7876
 2616TIP3   OH229406   2.839   1.504   0.925  0.5009 -0.0582  0.0638
 2616TIP3    H129407   2.903   1.485   0.994  1.6513 -0.7959 -1.1546
 2616TIP3    H229408   2.858   1.594   0.898 -0.3046  0.4234  1.0438
 2617TIP3   OH229409   3.781   3.885   6.498 -0.1242 -0.1169  0.5195
 2617TIP3    H129410   3.819   3.969   6.473  1.2615 -0.7305  0.4969
 2617TIP3    H229411   3.853   3.823   6.491 -0.6325 -0.9897  2.3572
 2618TIP3   OH229412   6.585   1.134   0.951 -0.0768 -0.3143  0.2356
 2618TIP3    H129413   6.624   1.125   0.865 -0.5836  0.6372 -0.1127
 2618TIP3    H229414   6.490   1.135   0.934 -0.3273 -2.7658  1.0671
 2619TIP3   OH229415   6.268   5.673   1.756  0.6195  0.4123  0.6197
 2619TIP3    H129416   6.330   5.644   1.822 -2.2173 -1.2713  2.7962
 2619TIP3    H229417   6.230   5.753   1.793  1.2970  1.3525 -0.6222
 2620TIP3   OH229418   4.065   2.450   7.611  0.6641 -0.0307  0.5066
 2620TIP3    H129419   4.132   2.519   7.610 -0.4519  1.1253  1.5303
 2620TIP3    H229420   4.027   2.456   7.699 -0.2139 -1.2456  0.2303
 2621TIP3   OH229421   2.463   5.156   1.989 -0.3769 -0.4497  0.0109
 2621TIP3    H129422   2.437   5.243   2.018  0.1365 -0.5575  0.8091
 2621TIP3    H229423   2.534   5.172   1.927 -1.5826 -0.2127 -1.3706
 2622TIP3   OH229424   0.352   3.749   0.147 -0.3331 -0.3722 -0.3890
 2622TIP3    H129425   0.424   3.793   0.192 -0.0585 -0.6275 -0.5688
 2622TIP3    H229426   0.330   3.675   0.204  0.1096 -0.7783 -0.7288
 2623TIP3   OH229427   1.940   0.234   1.694  0.4101 -0.3353 -0.2389
 2623TIP3    H129428   1.999   0.261   1.765 -0.2698 -0.7636  0.5043
 2623TIP3    H229429   1.993   0.175   1.641  0.4508 -1.2734  0.8183
 2624TIP3   OH229430   1.510   5.766   2.199  0.0097 -0.2229 -0.5464
 2624TIP3    H129431   1.431   5.811   2.170 -0.0979 -0.3276 -0.4190
 2624TIP3    H229432   1.477   5.690   2.248  0.1739 -0.9036 -1.4599
 2625TIP3   OH229433   0.314   2.066   0.917  0.1796 -0.2075  0.0722
 2625TIP3    H129434   0.386   2.089   0.975  0.8510 -1.1791 -0.3481
 2625TIP3    H229435   0.248   2.028   0.974  1.1619 -1.9160  0.1533
 2626TIP3   OH229436   6.561   6.359   1.105  0.0649 -0.0727  0.3154
 2626TIP3    H129437   6.474   6.349   1.067  0.3426 -0.8677 -0.1179
 2626TIP3    H229438   6.557   6.443   1.151 -0.1762  1.1311 -1.7655
 2627TIP3   OH229439   6.637   2.667   6.471  0.0668  0.6051  0.2743
 2627TIP3    H129440   6.572   2.601   6.447  3.3669 -2.1148 -2.0913
 2627TIP3    H229441   6.601   2.749   6.437 -2.1232 -0.7268 -0.8743
 2628TIP3   OH229442   2.634   4.269   7.453 -0.3459  0.3390 -0.2536
 2628TIP3    H129443   2.565   4.326   7.420  0.2861  1.8829  0.9644
 2628TIP3    H229444   2.709   4.287   7.398 -0.6777 -0.8017 -1.1121
 2629TIP3   OH229445   1.396   5.001   0.957 -0.0276 -0.3609 -0.3985
 2629TIP3    H129446   1.381   4.993   0.863  0.0308 -1.2472 -0.3370
 2629TIP3    H229447   1.415   4.912   0.986 -0.3614 -0.1442  0.5106
 2630TIP3   OH229448   2.145   1.876   1.014  0.3880  0.6137 -0.0511
 2630TIP3    H129449   2.053   1.851   1.015  0.7733 -0.9123  0.1753
 2630TIP3    H229450   2.151   1.941   0.945 -0.7591  0.2913 -0.4857
 2631TIP3   OH229451   1.364   0.173   8.535 -0.2641 -0.6214  0.0166
 2631TIP3    H129452   1.425   0.146   8.603  0.2986 -0.2073 -0.3141
 2631TIP3    H229453   1.351   0.095   8.481  3.3540  0.2370 -2.4648
 2632TIP3   OH229454   5.266   6.438   8.297  0.9683 -0.0938  0.8148
 2632TIP3    H129455   5.274   6.485   8.380  0.4881  0.4411  0.5690
 2632TIP3    H229456   5.334   6.476   8.241 -1.3921  2.6664 -0.4460
 2633TIP3   OH229457   5.065   4.049   0.658 -1.0976  0.4443 -0.1067
 2633TIP3    H129458   5.090   3.963   0.691 -1.2206  0.5823  0.3590
 2633TIP3    H229459   4.970   4.046   0.653 -1.0083 -0.2925 -2.4642
 2634TIP3   OH229460   1.628   0.832   8.120 -0.4839 -0.2853  0.7606
 2634TIP3    H129461   1.634   0.753   8.066 -2.4236 -1.1563  1.7225
 2634TIP3    H229462   1.717   0.846   8.152 -0.0560 -1.9442  0.3747
 2635TIP3   OH229463   4.914   3.517   1.069  0.4132  0.0408  0.3884
 2635TIP3    H129464   4.853   3.581   1.105  0.7006  1.5686 -1.6764
 2635TIP3    H229465   5.001   3.554   1.085  0.5560  0.7343 -1.6534
 2636TIP3   OH229466   0.457   2.076   0.243 -0.1161  0.1469 -0.3685
 2636TIP3    H129467   0.490   1.986   0.237 -0.1067  0.0587  0.8461
 2636TIP3    H229468   0.465   2.110   0.154  0.6740 -0.7743 -0.6672
 2637TIP3   OH229469   3.187   6.791   7.655  0.0420  0.1263 -0.0841
 2637TIP3    H129470   3.247   6.725   7.689 -0.4336  0.3941  1.3646
 2637TIP3    H229471   3.244   6.864   7.631  0.6225 -0.9495 -2.1941
 2638TIP3   OH229472   3.266   3.835   6.817  0.0689  0.7684  0.2392
 2638TIP3    H129473   3.292   3.877   6.899 -2.5216 -0.9726  2.1155
 2638TIP3    H229474   3.292   3.743   6.828 -1.6897  0.1823 -0.1778
 2639TIP3   OH229475   6.722   2.049   8.359  0.4862  0.2332 -0.2093
 2639TIP3    H129476   6.736   2.110   8.431 -0.0829 -0.0191  0.1250
 2639TIP3    H229477   6.650   1.993   8.389  1.3099 -0.9181 -0.2976
 2640TIP3   OH229478   6.202   2.747   1.227 -0.0343 -0.1498 -0.3144
 2640TIP3    H129479   6.247   2.716   1.149 -0.9853 -1.8448 -0.2377
 2640TIP3    H229480   6.190   2.669   1.281 -0.8885  0.6894  0.7683
 2641TIP3   OH229481   4.280   1.031   7.583 -0.0916  0.2114  0.2933
 2641TIP3    H129482   4.307   0.942   7.605  0.3803  0.6072  1.4463
 2641TIP3    H229483   4.202   1.021   7.530  1.3987 -0.9482 -1.7966
 2642TIP3   OH229484   4.847   1.188   1.530  0.6876 -0.3063 -0.0988
 2642TIP3    H129485   4.891   1.110   1.495  0.0750 -0.7901  0.1993
 2642TIP3    H229486   4.842   1.248   1.456 -1.3301 -1.6192 -1.1215
 2643TIP3   OH229487   0.177   6.134   7.668  0.2006 -0.2510 -0.0487
 2643TIP3    H129488   0.086   6.163   7.665  0.8553  2.0824  0.4386
 2643TIP3    H229489   0.227   6.205   7.627  1.7825 -1.7239 -0.8441
 2644TIP3   OH229490   2.948   3.881   7.629 -0.0292  0.0866 -0.2090
 2644TIP3    H129491   3.038   3.852   7.612 -0.9658 -3.2280 -0.1851
 2644TIP3    H229492   2.911   3.813   7.685 -2.5927  1.3293 -0.2510
 2645TIP3   OH229493   3.989   2.584   6.709 -0.9581 -1.1037  0.5037
 2645TIP3    H129494   3.989   2.667   6.757 -0.2989 -1.5691  1.3396
 2645TIP3    H229495   4.034   2.603   6.627 -1.2693 -0.5114  0.4702
 2646TIP3   OH229496   5.283   1.599   0.545 -0.4349  0.3574 -0.4073
 2646TIP3    H129497   5.324   1.684   0.529 -0.0208  0.1931 -0.2220
 2646TIP3    H229498   5.250   1.604   0.634  1.1904 -0.3051  0.2821
 2647TIP3   OH229499   5.122   2.182   7.956 -0.3404 -0.5637  0.5646
 2647TIP3    H129500   5.136   2.106   8.012  1.9399  0.8915  2.1657
 2647TIP3    H229501   5.157   2.157   7.871  0.7029 -1.2268  1.1655
 2648TIP3   OH229502   3.351   4.187   6.867 -0.3844  0.3176 -0.1935
 2648TIP3    H129503   3.433   4.137   6.872 -1.4234 -1.4386  0.0762
 2648TIP3    H229504   3.349   4.221   6.778  0.9632  1.0357  0.0077
 2649TIP3   OH229505   1.636   6.272   1.505  0.2516  0.2975  0.1724
 2649TIP3    H129506   1.698   6.200   1.509  1.7897  1.3880 -1.9068
 2649TIP3    H229507   1.664   6.323   1.428 -2.7065  1.3332 -0.3354
 2650TIP3   OH229508   6.241   1.290   0.386 -0.1390 -0.8523  0.5529
 2650TIP3    H129509   6.277   1.371   0.350 -0.0965 -0.3404  1.6839
 2650TIP3    H229510   6.200   1.246   0.312  0.7614 -0.3085 -0.2819
 2651TIP3   OH229511   5.584   5.427   6.943  0.4093 -0.2562  0.1072
 2651TIP3    H129512   5.626   5.447   7.026 -1.2493 -1.8838  1.4201
 2651TIP3    H229513   5.654   5.433   6.878  1.8810  0.4359  1.6880
 2652TIP3   OH229514   1.488   2.871   1.550  0.4396  0.2683  0.5838
 2652TIP3    H129515   1.509   2.841   1.639 -0.7587 -0.6650  0.5888
 2652TIP3    H229516   1.435   2.949   1.563  0.2469  0.1202  0.6988
 2653TIP3   OH229517   6.232   1.812   6.969 -0.5541  0.2474 -0.4423
 2653TIP3    H129518   6.235   1.790   6.876  0.2363 -0.7565 -0.2014
 2653TIP3    H229519   6.241   1.728   7.014  1.3181  0.9078  0.5212
 2654TIP3   OH229520   3.083   5.995   0.043  0.3026 -0.7751  0.0018
 2654TIP3    H129521   3.175   5.985   0.019  0.8429 -0.2679  1.6996
 2654TIP3    H229522   3.076   6.084   0.077 -1.2670 -0.1399 -1.8393
 2655TIP3   OH229523   6.514   6.442   1.787 -0.9364 -0.3782 -0.4099
 2655TIP3    H129524   6.443   6.431   1.850  0.7778 -1.3319  1.5109
 2655TIP3    H229525   6.589   6.468   1.841  0.1486  0.8143 -2.3680
 2656TIP3   OH229526   0.368   1.416   7.197 -0.2047  0.0881 -0.7064
 2656TIP3    H129527   0.417   1.470   7.135  0.1199 -1.5905 -2.0181
 2656TIP3    H229528   0.278   1.449   7.192  0.1512  1.0746 -0.7795
 2657TIP3   OH229529   5.756   3.683   7.049 -0.1902  0.1437 -0.0146
 2657TIP3    H129530   5.705   3.708   7.126 -0.4648  0.1812 -0.2088
 2657TIP3    H229531   5.724   3.595   7.027 -0.1270  0.1424 -0.1003
 2658TIP3   OH229532   1.630   0.063   1.436 -0.1373  0.5191 -0.1784
 2658TIP3    H129533   1.662  -0.027   1.448 -1.9484 -0.2936 -1.1209
 2658TIP3    H229534   1.575   0.079   1.513 -1.1105  0.2028 -0.7959
 2659TIP3   OH229535   6.470   3.619   8.733 -0.1693 -0.0339 -0.5214
 2659TIP3    H129536   6.375   3.629   8.732 -0.0041  1.8638 -0.5458
 2659TIP3    H229537   6.490   3.576   8.650 -1.0887 -1.6970  0.0805
 2660TIP3   OH229538   0.385   4.318   6.719  0.1898  0.5606  0.0149
 2660TIP3    H129539   0.449   4.386   6.700 -0.5111  0.7929 -1.7152
 2660TIP3    H229540   0.329   4.355   6.787  1.6181  0.5089  1.2470
 2661TIP3   OH229541   5.650   6.601   7.277 -0.3402  0.5892  0.2600
 2661TIP3    H129542   5.742   6.624   7.284 -0.1849  0.5165 -1.2239
 2661TIP3    H229543   5.625   6.628   7.189 -1.8250  0.8946  0.7441
 2662TIP3   OH229544   5.274   6.798   7.870 -0.4184  0.2083  0.7027
 2662TIP3    H129545   5.260   6.852   7.948 -4.2383  1.8714 -0.8355
 2662TIP3    H229546   5.201   6.735   7.871  0.0984 -0.4914 -0.9303
 2663TIP3   OH229547   3.692   3.518   0.078  0.4006  0.3010  0.2421
 2663TIP3    H129548   3.626   3.469   0.126  1.0080 -1.0226 -0.2196
 2663TIP3    H229549   3.751   3.552   0.146 -1.0734  2.0714  0.7085
 2664TIP3   OH229550   6.050   4.570   2.373 -0.1258 -0.0233 -0.1748
 2664TIP3    H129551   6.088   4.485   2.355  0.2310  0.0105  0.3924
 2664TIP3    H229552   6.014   4.563   2.461  1.0155  0.7774  0.3890
 2665TIP3   OH229553   6.275   2.032   7.102  0.6166 -0.4008 -0.1219
 2665TIP3    H129554   6.334   2.019   7.176  0.9899 -1.3620 -0.5832
 2665TIP3    H229555   6.266   1.945   7.062 -0.7633 -0.1938 -0.3129
 2666TIP3   OH229556   6.612   1.486   8.363  0.8687  0.4051  0.1033
 2666TIP3    H129557   6.592   1.544   8.436  0.5405 -1.4815  1.5765
 2666TIP3    H229558   6.558   1.408   8.378  1.1727 -0.2485 -1.8848
 2667TIP3   OH229559   6.675   2.519   1.112  0.0696  0.2157  0.0757
 2667TIP3    H129560   6.604   2.463   1.144  0.4091 -0.5168 -0.4151
 2667TIP3    H229561   6.724   2.463   1.051  2.1018  0.0925  1.6825
 2668TIP3   OH229562   3.230   0.409   7.143  0.2077 -0.5380 -0.1374
 2668TIP3    H129563   3.169   0.483   7.152 -2.1204 -2.3907  0.1561
 2668TIP3    H229564   3.244   0.402   7.048  1.5875  1.0869 -0.1014
 2669TIP3   OH229565   1.727   4.987   2.420 -0.3915  0.2450 -0.1445
 2669TIP3    H129566   1.715   4.914   2.481 -0.8108  0.7254  0.3611
 2669TIP3    H229567   1.809   5.028   2.447 -0.5554  0.4317  0.0734
 2670TIP3   OH229568   0.225   6.298   1.211 -0.0487  0.1541 -0.2543
 2670TIP3    H129569   0.156   6.334   1.268 -0.5590  1.0277 -1.3849
 2670TIP3    H229570   0.266   6.375   1.171  0.4660 -0.4312 -0.8887
 2671TIP3   OH229571   6.003   5.263   7.550 -0.4911  0.5295  0.4633
 2671TIP3    H129572   6.046   5.191   7.597 -0.9445 -1.2816 -1.7391
 2671TIP3    H229573   6.063   5.337   7.561 -0.0575 -0.0934  2.8960
 2672TIP3   OH229574   2.786   5.371   1.568  0.5372 -0.1339  0.4091
 2672TIP3    H129575   2.721   5.435   1.599  0.8973  0.0414  0.8079
 2672TIP3    H229576   2.869   5.419   1.569  1.3597 -1.3709  3.4588
 2673TIP3   OH229577   4.301   6.261   1.054  0.2171  0.0673 -0.4038
 2673TIP3    H129578   4.249   6.218   0.987  0.5965 -1.5068  0.2608
 2673TIP3    H229579   4.310   6.351   1.024 -0.2882 -0.4005 -2.0525
 2674TIP3   OH229580   0.676   6.641   8.205  0.2860 -0.1209 -0.1759
 2674TIP3    H129581   0.690   6.571   8.268 -1.3509 -0.1268  0.2345
 2674TIP3    H229582   0.615   6.701   8.249  0.3959  0.7209 -1.1328
 2675TIP3   OH229583   0.549   4.752   1.383 -0.1875  0.0561  0.4357
 2675TIP3    H129584   0.561   4.659   1.362  0.3346  0.5001 -1.3708
 2675TIP3    H229585   0.632   4.793   1.360 -1.0267  1.2518 -0.5620
 2676TIP3   OH229586   1.400   4.731   7.604 -0.1863 -0.4768  0.4448
 2676TIP3    H129587   1.459   4.656   7.590  0.6259  0.2681 -0.1974
 2676TIP3    H229588   1.391   4.737   7.699 -0.3537 -1.4584  0.5020
 2677TIP3   OH229589   2.066   5.837   0.655 -0.2889 -0.1089  0.5501
 2677TIP3    H129590   2.076   5.754   0.607  1.5281  0.5170 -0.2185
 2677TIP3    H229591   1.972   5.855   0.651 -0.6322 -1.8258  0.2192
 2678TIP3   OH229592   5.970   4.731   0.423 -0.1564 -0.0955 -0.1581
 2678TIP3    H129593   5.884   4.699   0.395  0.1381 -0.6357 -0.4610
 2678TIP3    H229594   5.951   4.789   0.497 -0.6545 -1.8223  1.1456
 2679TIP3   OH229595   5.850   2.869   7.094 -0.0537 -0.0664  0.6769
 2679TIP3    H129596   5.903   2.837   7.021  0.2880  0.5097  0.6708
 2679TIP3    H229597   5.911   2.877   7.167 -0.4669 -1.0144  1.1572
 2680TIP3   OH229598   6.557   1.356   1.267  0.1801  0.0104 -0.2768
 2680TIP3    H129599   6.554   1.260   1.271  0.4953 -0.0567 -1.2470
 2680TIP3    H229600   6.574   1.375   1.175  0.9843  0.9795  0.0544
 2681TIP3   OH229601   6.256   3.512   0.066 -0.4846 -0.6635  0.5385
 2681TIP3    H129602   6.165   3.538   0.080 -0.3969 -1.3995  3.0752
 2681TIP3    H229603   6.303   3.554   0.138  1.1668 -0.5083 -0.5890
 2682TIP3   OH229604   5.598   1.470   7.709  0.4094  0.5596  0.2187
 2682TIP3    H129605   5.562   1.504   7.627  0.0013  0.8231  0.5052
 2682TIP3    H229606   5.538   1.500   7.776  0.0995 -0.6367  0.5034
 2683TIP3   OH229607   1.976   1.581   1.675  0.0096  0.1165  0.3894
 2683TIP3    H129608   2.036   1.556   1.745  1.0491 -1.1327 -0.8804
 2683TIP3    H229609   2.032   1.626   1.611 -0.5233 -0.4180 -0.4746
 2684TIP3   OH229610   5.651   2.075   2.087  0.9408 -0.5863 -0.1689
 2684TIP3    H129611   5.678   2.146   2.145  0.7942 -1.1216  0.5684
 2684TIP3    H229612   5.733   2.039   2.052  1.1982 -1.7520  1.5173
 2685TIP3   OH229613   5.639   5.405   7.197 -0.2610  0.1952  0.5924
 2685TIP3    H129614   5.559   5.357   7.215  0.0906 -0.5389  0.2162
 2685TIP3    H229615   5.686   5.408   7.280 -0.9615  1.1853  0.9718
 2686TIP3   OH229616   2.872   1.782   0.072 -0.4297  0.1687 -0.2103
 2686TIP3    H129617   2.834   1.785   0.160 -0.0890 -1.4728  0.0098
 2686TIP3    H229618   2.927   1.861   0.067 -0.5143  0.3182  1.0138
 2687TIP3   OH229619   0.821   6.497   7.118  0.2664 -0.6079  0.5411
 2687TIP3    H129620   0.773   6.479   7.037  0.6743  0.8032 -0.0451
 2687TIP3    H229621   0.766   6.559   7.165 -0.0859 -1.6074  1.4867
 2688TIP3   OH229622   1.369   0.377   6.841  0.2133  0.1782 -0.2979
 2688TIP3    H129623   1.274   0.372   6.852  0.4002 -0.6501  1.1899
 2688TIP3    H229624   1.393   0.294   6.799  0.3750 -0.0277  0.1942
 2689TIP3   OH229625   0.814   0.588   7.231 -0.0740 -0.5973  0.3209
 2689TIP3    H129626   0.800   0.536   7.152  0.9299 -0.9571  0.3608
 2689TIP3    H229627   0.844   0.524   7.296  1.8455  0.1113  0.1803
 2690TIP3   OH229628   4.358   1.953   7.557 -0.2922  0.3944  0.5168
 2690TIP3    H129629   4.377   1.881   7.616  0.3390  0.4266  0.3573
 2690TIP3    H229630   4.268   1.936   7.527 -0.1880 -0.2574  0.5633
 2691TIP3   OH229631   2.000   0.825   8.222 -0.1925  0.5955  0.4572
 2691TIP3    H129632   1.955   0.768   8.284 -1.6298  1.1465 -0.0301
 2691TIP3    H229633   2.085   0.784   8.209 -1.0419 -1.2658  0.3912
 2692TIP3   OH229634   5.838   3.520   1.863  0.3520 -0.2963 -0.1886
 2692TIP3    H129635   5.766   3.500   1.923  1.9008 -0.3240  1.7608
 2692TIP3    H229636   5.869   3.435   1.833  0.5647 -0.3633  0.2161
 2693TIP3   OH229637   6.581   4.401   0.638 -0.0554 -0.1607  0.5634
 2693TIP3    H129638   6.611   4.422   0.550 -0.2088 -1.7610  0.0875
 2693TIP3    H229639   6.528   4.322   0.626 -1.5214  0.5693  1.8567
 2694TIP3   OH229640   5.312   5.480   0.744 -0.2631  0.0896  0.3057
 2694TIP3    H129641   5.358   5.494   0.826 -1.9843  0.6131  1.2195
 2694TIP3    H229642   5.244   5.416   0.764 -1.9310  1.6109 -0.1644
 2695TIP3   OH229643   3.476   6.740   0.193  0.1628 -0.4894  0.3360
 2695TIP3    H129644   3.550   6.679   0.196  0.4718 -0.1080  0.4599
 2695TIP3    H229645   3.513   6.824   0.217 -0.5043 -0.4785  1.3784
 2696TIP3   OH229646   3.872   2.865   8.221 -0.9965 -0.4879  0.0849
 2696TIP3    H129647   3.944   2.881   8.281 -1.1985  1.0769 -0.0430
 2696TIP3    H229648   3.836   2.780   8.247  1.0363 -1.4374 -0.0239
 2697TIP3   OH229649   5.302   1.838   0.878  0.0566 -0.6586  0.2743
 2697TIP3    H129650   5.336   1.861   0.965  1.7098 -2.2503  0.0981
 2697TIP3    H229651   5.256   1.755   0.891 -2.2049  0.4839  0.1159
 2698TIP3   OH229652   5.739   3.388   1.080  0.4850 -0.0229  0.1005
 2698TIP3    H129653   5.778   3.434   1.155  0.7801  1.7084 -1.0740
 2698TIP3    H229654   5.810   3.382   1.016  0.1214 -1.1502 -0.2193
 2699TIP3   OH229655   1.119   2.190   7.805  0.8823 -0.2997 -0.1720
 2699TIP3    H129656   1.100   2.203   7.898  1.4072 -0.2779 -0.0686
 2699TIP3    H229657   1.204   2.147   7.803  1.6407  1.1753 -0.6933
 2700TIP3   OH229658   5.378   1.700   8.349 -0.7192 -0.2515  0.1155
 2700TIP3    H129659   5.473   1.696   8.345 -0.7408  0.0570 -1.9804
 2700TIP3    H229660   5.357   1.789   8.318 -1.7035 -1.1011 -1.8694
 2701TIP3   OH229661   0.359   1.933   2.389  0.3481  0.5878 -0.3171
 2701TIP3    H129662   0.340   1.858   2.445 -0.3761  0.6225 -0.4959
 2701TIP3    H229663   0.435   1.908   2.338  0.8650  0.4591  0.5059
 2702TIP3   OH229664   1.405   0.431   6.171  0.4788  0.5025 -0.3015
 2702TIP3    H129665   1.469   0.401   6.236  1.7957  0.0716 -1.7512
 2702TIP3    H229666   1.350   0.354   6.154  0.5988  0.4043 -0.2433
 2703TIP3   OH229667   0.065   3.807   7.279  0.4376 -0.5377  0.1838
 2703TIP3    H129668   0.148   3.797   7.233  0.4242 -3.6886  0.5944
 2703TIP3    H229669   0.051   3.901   7.284  1.7943  0.0788 -3.7515
 2704TIP3   OH229670   0.342   5.409   8.822 -0.3498 -0.0466 -0.3462
 2704TIP3    H129671   0.303   5.324   8.802  3.2269 -1.6787 -1.2350
 2704TIP3    H229672   0.355   5.407   8.917  0.9331 -1.1765 -0.5049
 2705TIP3   OH229673   4.889   0.635   6.971 -0.7314  0.3053 -0.2652
 2705TIP3    H129674   4.901   0.665   7.061  0.3745  1.2698 -0.7037
 2705TIP3    H229675   4.866   0.714   6.922  0.0525  0.0501 -1.0690
 2706TIP3   OH229676   3.142   0.956   7.193  0.2481 -0.3638 -0.3817
 2706TIP3    H129677   3.101   0.919   7.271 -2.6663  0.5313 -1.3790
 2706TIP3    H229678   3.175   0.880   7.145  1.3689 -0.9743  1.2830
 2707TIP3   OH229679   6.324   6.552   0.586  0.2003  0.2413 -0.2263
 2707TIP3    H129680   6.363   6.524   0.504  0.5998  0.2141 -0.0325
 2707TIP3    H229681   6.250   6.606   0.561 -0.8781 -1.3720 -0.6164
 2708TIP3   OH229682   2.146   2.253   1.509  0.2091  0.5698 -0.6113
 2708TIP3    H129683   2.131   2.345   1.488  0.3060  0.9182  0.7550
 2708TIP3    H229684   2.240   2.247   1.527  0.1800  0.2432 -0.5545
 2709TIP3   OH229685   0.483   5.628   8.719 -0.5724 -0.3136 -0.5573
 2709TIP3    H129686   0.436   5.578   8.785 -0.3704  0.0634 -0.1182
 2709TIP3    H229687   0.495   5.567   8.646  0.9556 -1.3992  0.5240
 2710TIP3   OH229688   1.965   2.383   0.174  1.1418 -0.7263  0.1098
 2710TIP3    H129689   2.014   2.422   0.101 -1.9797 -1.0553 -2.3995
 2710TIP3    H229690   1.957   2.291   0.151  0.4455 -0.9267  1.1002
 2711TIP3   OH229691   6.135   5.620   0.078 -0.1960  0.2804 -0.0086
 2711TIP3    H129692   6.048   5.602   0.041  0.3285 -0.2429 -1.0391
 2711TIP3    H229693   6.117   5.655   0.165 -1.5599  2.5149 -1.0717
 2712TIP3   OH229694   3.234   1.862   7.559 -0.4899  0.5128  0.4566
 2712TIP3    H129695   3.296   1.792   7.579 -1.3065  0.1151  1.7291
 2712TIP3    H229696   3.152   1.816   7.540 -0.5560  1.0538 -0.6077
 2713TIP3   OH229697   1.056   1.489   1.507  0.1050 -0.4267 -0.0420
 2713TIP3    H129698   1.145   1.494   1.541 -0.6083  2.0864  1.6822
 2713TIP3    H229699   1.018   1.575   1.525 -3.4816 -2.1503  1.6530
 2714TIP3   OH229700   0.833   0.771   1.542 -0.8001 -0.3553  0.6196
 2714TIP3    H129701   0.887   0.729   1.609 -0.5897  0.1760  0.7891
 2714TIP3    H229702   0.769   0.821   1.592  0.4753  1.5187  0.4875
 2715TIP3   OH229703   3.161   4.072   8.474 -0.1871 -0.4825  0.1489
 2715TIP3    H129704   3.140   4.165   8.470  0.8125 -0.2856 -1.6006
 2715TIP3    H229705   3.215   4.057   8.397  1.2074 -2.1357  1.3793
 2716TIP3   OH229706   1.369   2.061   0.188  0.5499 -0.4854  0.6176
 2716TIP3    H129707   1.309   2.026   0.122  0.2967 -0.7115  0.9600
 2716TIP3    H229708   1.451   2.074   0.142 -0.2017  1.4068 -0.2756
 2717TIP3   OH229709   0.498   2.745   6.534 -0.3763 -0.1274 -0.0443
 2717TIP3    H129710   0.567   2.765   6.597 -0.4937 -0.7775  0.2999
 2717TIP3    H229711   0.523   2.792   6.454 -0.4196  1.0035  0.5962
 2718TIP3   OH229712   3.577   5.533   7.503 -0.2548 -0.3276  0.7465
 2718TIP3    H129713   3.554   5.442   7.483 -0.5275 -0.2545  0.7277
 2718TIP3    H229714   3.595   5.572   7.417  1.2742 -0.7337  0.8460
 2719TIP3   OH229715   2.935   5.846   2.234 -0.7220 -0.1647  0.5501
 2719TIP3    H129716   2.997   5.863   2.163 -0.9232  0.1168  0.4414
 2719TIP3    H229717   2.936   5.925   2.287 -1.2593 -0.0104  0.3417
 2720TIP3   OH229718   0.083   0.880   1.213  0.8749 -1.0129  0.3462
 2720TIP3    H129719   0.106   0.920   1.297  0.9873  1.5856 -0.8028
 2720TIP3    H229720  -0.001   0.837   1.229  1.5629 -1.8003  2.1091
 2721TIP3   OH229721   2.951   0.818   1.585  0.5120  0.4489 -0.6218
 2721TIP3    H129722   2.960   0.728   1.555 -0.1151  0.4871 -0.9543
 2721TIP3    H229723   2.994   0.820   1.670  1.2595  0.0448 -0.9822
 2722TIP3   OH229724   5.033   5.080   1.850 -0.0974  0.6316 -0.3149
 2722TIP3    H129725   5.004   5.037   1.930 -1.2192  0.1144 -0.9724
 2722TIP3    H229726   5.079   5.011   1.801  0.5751  0.9411 -0.1224
 2723TIP3   OH229727   4.747   5.672   7.483  0.5186  0.3330 -0.5502
 2723TIP3    H129728   4.814   5.605   7.482 -0.6826 -0.9440  0.3735
 2723TIP3    H229729   4.765   5.724   7.561  1.1151  0.7401 -0.9535
 2724TIP3   OH229730   3.573   0.684   1.697 -0.0082  0.1495 -0.2101
 2724TIP3    H129731   3.606   0.626   1.766 -3.0702 -1.9204 -0.2816
 2724TIP3    H229732   3.623   0.659   1.619 -1.0167 -2.3319 -0.1643
 2725TIP3   OH229733   5.628   5.925   6.785  0.0591  0.0833  0.3698
 2725TIP3    H129734   5.563   5.905   6.718 -0.5459  1.4531  0.5149
 2725TIP3    H229735   5.606   5.868   6.859  0.7351 -1.4425 -0.5537
 2726TIP3   OH229736   2.670   0.929   6.423  0.3945  0.0018 -0.2776
 2726TIP3    H129737   2.634   0.926   6.512  0.6599 -1.0222 -0.1869
 2726TIP3    H229738   2.764   0.920   6.435  0.4209 -0.2867 -0.6664
 2727TIP3   OH229739   4.660   4.037   0.338 -0.1252 -0.0504  0.3878
 2727TIP3    H129740   4.684   4.052   0.247 -2.1279  0.6882 -0.0765
 2727TIP3    H229741   4.642   4.124   0.373 -0.6540 -0.4313  1.0869
 2728TIP3   OH229742   2.889   4.342   6.157  0.1914  0.7034 -0.2082
 2728TIP3    H129743   2.938   4.277   6.106  2.9502  0.6331  2.2605
 2728TIP3    H229744   2.827   4.291   6.208  1.5258  0.0529  0.8343
 2729TIP3   OH229745   1.943   5.274   0.619  0.2448 -0.5675  0.3330
 2729TIP3    H129746   1.974   5.310   0.535 -3.2208  0.4096 -0.6919
 2729TIP3    H229747   1.921   5.183   0.599  2.6037 -1.3927  1.1706
 2730TIP3   OH229748   5.221   5.715   1.815  0.1028 -0.3304  0.2949
 2730TIP3    H129749   5.297   5.773   1.824  0.2690 -0.8389  2.8278
 2730TIP3    H229750   5.153   5.757   1.868 -0.5739 -1.1927  0.1326
 2731TIP3   OH229751   2.982   2.263   7.583  0.1503  0.5473 -0.2655
 2731TIP3    H129752   2.988   2.178   7.540  0.0633 -0.6078  1.8998
 2731TIP3    H229753   3.070   2.301   7.573  0.3936 -0.1052 -0.6360
 2732TIP3   OH229754   5.299   5.541   7.587 -0.5442 -0.0151 -0.3419
 2732TIP3    H129755   5.244   5.558   7.510 -0.2399 -1.3812 -0.8792
 2732TIP3    H229756   5.242   5.494   7.648 -0.9163  1.4379  0.4922
 2733TIP3   OH229757   4.473   0.826   1.527  0.1083  0.3806  0.1863
 2733TIP3    H129758   4.413   0.900   1.524 -0.9475 -0.4855 -1.4571
 2733TIP3    H229759   4.429   0.762   1.583  0.5217  0.5601  0.7282
 2734TIP3   OH229760   5.904   3.800   8.278  0.3160  0.0886 -0.4048
 2734TIP3    H129761   5.967   3.745   8.231  0.6091 -0.2400  0.3670
 2734TIP3    H229762   5.853   3.740   8.331 -1.2647  0.2563 -1.6789
 2735TIP3   OH229763   6.037   5.954   7.586  0.0520 -0.1750 -0.3529
 2735TIP3    H129764   6.127   5.982   7.601 -0.7838  2.8892 -0.4365
 2735TIP3    H229765   6.007   6.007   7.512 -1.6805 -1.5081 -0.6747
 2736TIP3   OH229766   6.093   4.505   7.237  0.5445  0.2283 -0.0670
 2736TIP3    H129767   6.061   4.418   7.258 -2.9041  1.2445 -0.4074
 2736TIP3    H229768   6.075   4.557   7.315 -0.9836  1.3902 -1.1424
 2737TIP3   OH229769   5.462   6.248   0.752 -0.1024 -0.3393 -0.0803
 2737TIP3    H129770   5.394   6.205   0.804 -0.3552  0.3552  0.1845
 2737TIP3    H229771   5.506   6.307   0.814 -0.7535  0.8919 -0.7390
 2738TIP3   OH229772   4.868   3.517   6.953  0.3043  0.0114 -0.2039
 2738TIP3    H129773   4.805   3.541   7.021  0.5867  1.1355 -0.3126
 2738TIP3    H229774   4.944   3.484   7.000  0.1151 -0.1568 -0.0168
 2739TIP3   OH229775   4.370   5.989   7.139  0.1915  0.0927  0.6507
 2739TIP3    H129776   4.328   5.922   7.085  1.1359 -0.1225  0.1621
 2739TIP3    H229777   4.297   6.037   7.178 -0.5019 -0.7262  0.3980
 2740TIP3   OH229778   6.443   0.021   8.719  0.6234  0.1455  0.1517
 2740TIP3    H129779   6.457   0.099   8.773 -1.1724 -0.8676  2.2771
 2740TIP3    H229780   6.348   0.011   8.718  0.8118 -2.0153 -0.0109
 2741TIP3   OH229781   0.772   1.527   7.114 -0.3804 -0.1707 -0.0049
 2741TIP3    H129782   0.726   1.450   7.080 -0.0518 -0.8586  1.0723
 2741TIP3    H229783   0.769   1.590   7.042 -1.3828 -0.8800 -0.6115
 2742TIP3   OH229784   0.209   2.555   7.820  0.2539  0.1375 -0.0618
 2742TIP3    H129785   0.253   2.529   7.738 -0.7268  0.4072 -0.6927
 2742TIP3    H229786   0.193   2.472   7.865  1.2456  0.0245  0.0975
 2743TIP3   OH229787   5.625   1.149   0.446 -0.3090  0.4446 -0.1926
 2743TIP3    H129788   5.636   1.244   0.452 -0.4843  0.3890  2.3751
 2743TIP3    H229789   5.698   1.113   0.497 -0.5651 -0.7867 -0.6585
 2744TIP3   OH229790   5.361   3.482   8.087  0.5689 -0.0548 -0.0508
 2744TIP3    H129791   5.356   3.577   8.071  0.4508 -0.2366 -1.2091
 2744TIP3    H229792   5.270   3.457   8.104  0.5010 -0.0578 -0.4029
 2745TIP3   OH229793   2.844   4.187   8.603 -0.9912  0.5349  0.2227
 2745TIP3    H129794   2.802   4.110   8.642 -0.4339  0.3185  0.3964
 2745TIP3    H229795   2.807   4.192   8.515  0.6652 -1.3092 -0.6574
 2746TIP3   OH229796   5.217   1.398   6.918 -0.8381  0.1960 -0.3953
 2746TIP3    H129797   5.254   1.367   7.001  0.3845  3.3117  0.3820
 2746TIP3    H229798   5.289   1.390   6.855 -0.6305  1.0124 -0.2752
 2747TIP3   OH229799   3.886   3.281   8.314  0.7093  0.0312  0.1162
 2747TIP3    H129800   3.952   3.212   8.307 -0.3032 -0.9552  0.1279
 2747TIP3    H229801   3.805   3.241   8.283 -0.3746  0.5552  2.0858
 2748TIP3   OH229802   2.736   5.480   2.103  0.7095  0.3210 -0.2046
 2748TIP3    H129803   2.807   5.514   2.157 -0.1345  2.7383 -0.5038
 2748TIP3    H229804   2.722   5.391   2.135  2.7310  0.3552  0.9645
 2749TIP3   OH229805   1.224   3.528   0.649 -0.2294  0.2845 -0.2430
 2749TIP3    H129806   1.209   3.617   0.681  2.8592 -0.3284  3.8579
 2749TIP3    H229807   1.172   3.473   0.707 -0.1214 -0.6745 -1.0470
 2750TIP3   OH229808   4.312   5.488   1.802 -0.6720  0.1980  0.1845
 2750TIP3    H129809   4.359   5.463   1.723  0.5875  1.5300  0.4572
 2750TIP3    H229810   4.315   5.410   1.857  0.9438  0.1126  0.0316
 2751TIP3   OH229811   1.851   6.620   1.338  0.2737  0.5008  0.0850
 2751TIP3    H129812   1.758   6.641   1.326  0.8465  2.2783 -2.0395
 2751TIP3    H229813   1.860   6.531   1.305 -0.4758  0.8196 -1.0673
 2752TIP3   OH229814   3.303   0.544   0.148 -0.0564 -0.2329  0.2529
 2752TIP3    H129815   3.264   0.521   0.064 -2.0629 -0.6766  1.2468
 2752TIP3    H229816   3.243   0.508   0.213  1.9870 -0.8309  1.9123
 2753TIP3   OH229817   1.885   1.022   6.919  0.1561  0.2151  0.3967
 2753TIP3    H129818   1.912   1.102   6.962  2.2681 -0.0835 -0.2387
 2753TIP3    H229819   1.909   1.035   6.827  0.1370 -0.9662  0.2071
 2754TIP3   OH229820   0.579   4.068   7.403 -0.4224  0.6304 -0.0935
 2754TIP3    H129821   0.607   4.145   7.353  1.5319 -0.8556 -1.4062
 2754TIP3    H229822   0.557   4.002   7.337  1.0815 -0.9870  0.9420
 2755TIP3   OH229823   4.228   4.516   8.205  0.1084  0.5038  0.1958
 2755TIP3    H129824   4.226   4.551   8.116 -0.7286 -0.1003 -0.0378
 2755TIP3    H229825   4.263   4.427   8.195 -0.0630  0.4056  0.4586
 2756TIP3   OH229826   4.406   5.913   2.303 -1.3012 -0.6038 -0.6017
 2756TIP3    H129827   4.380   5.862   2.226 -2.2311 -0.6609 -0.2654
 2756TIP3    H229828   4.327   5.916   2.358 -0.4374 -1.2606  0.7334
 2757TIP3   OH229829   6.171   2.838   0.675 -0.2510  0.3636 -0.1649
 2757TIP3    H129830   6.249   2.870   0.720  0.6484  0.7735 -1.9278
 2757TIP3    H229831   6.138   2.914   0.626 -2.2213  0.4110  1.1198
 2758TIP3   OH229832   5.545   1.140   7.450  0.0065  0.3848 -0.6017
 2758TIP3    H129833   5.463   1.155   7.498  0.5791  0.9132  0.2325
 2758TIP3    H229834   5.604   1.101   7.514  0.2541 -0.4770 -1.3367
 2759TIP3   OH229835   0.780   2.774   6.346 -0.0480 -0.0986 -0.2194
 2759TIP3    H129836   0.778   2.707   6.414  0.1805 -2.4828 -2.4030
 2759TIP3    H229837   0.873   2.797   6.337 -0.0533  0.0499  0.0804
 2760TIP3   OH229838   0.666   4.899   7.856 -0.3196 -0.1061  0.1603
 2760TIP3    H129839   0.573   4.874   7.851  0.0206 -1.2695 -0.7606
 2760TIP3    H229840   0.700   4.880   7.768  0.9392 -0.2851  0.6770
 2761TIP3   OH229841   6.588   4.292   6.113 -0.3419 -0.0560  0.0041
 2761TIP3    H129842   6.517   4.261   6.057 -0.7999 -0.8251  0.9913
 2761TIP3    H229843   6.620   4.213   6.157 -0.3609  0.6033  1.2435
 2762TIP3   OH229844   5.198   4.674   0.091 -0.1679  0.5033 -0.1629
 2762TIP3    H129845   5.120   4.692   0.143 -0.2196 -0.3167  0.0587
 2762TIP3    H229846   5.251   4.753   0.099  0.0601  0.2101  1.5699
 2763TIP3   OH229847   0.745   2.588   1.673 -0.1283  0.3001  0.0515
 2763TIP3    H129848   0.802   2.558   1.743  0.6015 -0.3368 -0.8001
 2763TIP3    H229849   0.801   2.591   1.595 -1.1236  0.1655 -0.6895
 2764TIP3   OH229850   4.149   6.479   7.306  0.4891 -0.2135  0.9174
 2764TIP3    H129851   4.239   6.462   7.280  1.1212  1.8771  1.5494
 2764TIP3    H229852   4.148   6.462   7.400  0.5487  0.8990  1.1300
 2765TIP3   OH229853   0.588   5.645   7.504  0.6356 -0.1252 -0.4934
 2765TIP3    H129854   0.501   5.621   7.536  0.7380  1.2080  0.9424
 2765TIP3    H229855   0.648   5.602   7.565  0.8656  1.3522  0.4027
 2766TIP3   OH229856   0.296   1.617   8.763  0.5501 -0.2894 -0.4350
 2766TIP3    H129857   0.316   1.568   8.683  1.2877  1.1542 -1.1653
 2766TIP3    H229858   0.233   1.562   8.809  2.8000 -2.8955 -0.2259
 2767TIP3   OH229859   6.145   3.562   0.787 -0.2564 -0.1503 -0.0647
 2767TIP3    H129860   6.158   3.587   0.696  0.0484  1.7409  0.4497
 2767TIP3    H229861   6.229   3.579   0.829 -0.5849 -0.3483  0.6903
 2768TIP3   OH229862   3.949   3.783   6.800  0.4462  0.3961 -0.0545
 2768TIP3    H129863   3.994   3.799   6.717 -1.3451  3.2650 -0.6393
 2768TIP3    H229864   3.948   3.868   6.843  0.5326 -0.8317  2.5430
 2769TIP3   OH229865   3.523   1.331   0.127  0.1686 -0.0279  0.1981
 2769TIP3    H129866   3.601   1.319   0.072  0.0148 -1.1603  0.2085
 2769TIP3    H229867   3.478   1.247   0.124 -0.4970  0.2787  1.0592
 2770TIP3   OH229868   2.254   5.426   0.943 -0.4148 -0.3927 -0.0884
 2770TIP3    H129869   2.341   5.459   0.919 -0.0740 -2.0242 -1.2402
 2770TIP3    H229870   2.255   5.424   1.039  0.6559  0.0183 -0.0704
 2771TIP3   OH229871   2.125   4.860   8.204 -0.5099 -0.3427 -0.4223
 2771TIP3    H129872   2.150   4.773   8.172 -2.0424 -1.5220  1.3551
 2771TIP3    H229873   2.036   4.873   8.173 -0.7457  0.0230  0.3808
 2772TIP3   OH229874   6.378   1.618   1.929 -0.0685 -0.3242 -0.0435
 2772TIP3    H129875   6.303   1.606   1.988  0.1383  1.7733  0.7518
 2772TIP3    H229876   6.351   1.577   1.847 -2.8693  1.8014 -0.3550
 2773TIP3   OH229877   5.145   1.210   0.741 -0.0424  0.3544 -0.3624
 2773TIP3    H129878   5.077   1.274   0.721  1.2449  1.6440 -0.7808
 2773TIP3    H229879   5.110   1.160   0.814 -0.7077  2.1993  0.6566
 2774TIP3   OH229880   3.328   3.346   7.409  0.2616 -0.5963 -0.4262
 2774TIP3    H129881   3.290   3.258   7.417 -1.2787 -0.1458 -2.0606
 2774TIP3    H229882   3.358   3.367   7.497 -2.4545 -1.4256  0.8151
 2775TIP3   OH229883   0.026   5.683   8.615 -0.0455  0.5131  0.2207
 2775TIP3    H129884   0.076   5.765   8.608  0.5602  0.3516  2.1734
 2775TIP3    H229885  -0.050   5.706   8.668 -1.0173  0.2693 -1.0134
 2776TIP3   OH229886   0.354   2.828   7.576  1.0470 -0.3346  0.2994
 2776TIP3    H129887   0.290   2.847   7.645  0.4577 -0.7017 -0.1395
 2776TIP3    H229888   0.394   2.913   7.558  1.0707 -0.1968  0.9578
 2777TIP3   OH229889   3.837   1.292   1.061  0.2467  0.2313  0.0347
 2777TIP3    H129890   3.776   1.325   1.128 -0.2320 -0.0992 -0.2323
 2777TIP3    H229891   3.839   1.198   1.076  1.3428  0.3212  0.5728
 2778TIP3   OH229892   6.083   1.598   7.421  0.4147  0.5963 -0.4424
 2778TIP3    H129893   6.102   1.505   7.414  0.4193  0.4698  0.9639
 2778TIP3    H229894   6.111   1.622   7.510 -1.6051  1.4394  0.0187
 2779TIP3   OH229895   1.144   4.911   8.059  0.4556 -0.1222 -0.0869
 2779TIP3    H129896   1.093   4.990   8.077  1.7378  1.0109 -1.2679
 2779TIP3    H229897   1.083   4.853   8.013 -0.0606  0.8204 -0.6113
 2780TIP3   OH229898   6.664   2.695   1.544  0.1647  0.4347  0.4325
 2780TIP3    H129899   6.575   2.660   1.548 -0.6089  1.9710 -1.4758
 2780TIP3    H229900   6.660   2.763   1.477  3.0115 -0.1147 -0.4575
 2781TIP3   OH229901   0.803   5.446   0.549  0.6860 -0.3026  0.2845
 2781TIP3    H129902   0.797   5.485   0.636 -0.6889 -0.7683  0.4362
 2781TIP3    H229903   0.881   5.484   0.510  1.0048  0.3414  1.5114
 2782TIP3   OH229904   1.320   5.687   1.009  0.2076 -0.3858  0.1775
 2782TIP3    H129905   1.411   5.704   1.032  0.4228 -1.1553 -0.0773
 2782TIP3    H229906   1.322   5.604   0.961 -0.7648 -1.0055  1.1573
 2783TIP3   OH229907   6.057   2.721   1.525  0.3090 -0.5336  0.3240
 2783TIP3    H129908   6.044   2.658   1.597  1.1025 -1.4137 -0.2752
 2783TIP3    H229909   6.039   2.670   1.446  0.5670  0.1117 -0.1588
 2784TIP3   OH229910   5.420   3.870   1.008  0.3964 -0.1330 -0.2953
 2784TIP3    H129911   5.504   3.850   0.966  0.4230 -1.8799  0.4914
 2784TIP3    H229912   5.377   3.929   0.946  1.8876  0.2264 -1.0601
 2785TIP3   OH229913   3.581   4.214   8.465  0.3896 -0.5005 -0.2735
 2785TIP3    H129914   3.645   4.143   8.468 -0.9886 -1.9248 -2.3197
 2785TIP3    H229915   3.619   4.278   8.405  0.5240 -0.6552 -0.3543
 2786TIP3   OH229916   0.580   0.859   1.606 -0.1918  0.3840  0.1811
 2786TIP3    H129917   0.571   0.873   1.700  1.3184  0.4314  0.3401
 2786TIP3    H229918   0.506   0.907   1.568 -3.5745 -3.2313  1.5066
 2787TIP3   OH229919   5.224   0.956   8.205  0.4223  0.2332 -0.9556
 2787TIP3    H129920   5.272   1.007   8.270  0.2733 -2.2541  1.2946
 2787TIP3    H229921   5.136   0.945   8.243  0.4492 -1.6227 -1.3260
 2788TIP3   OH229922   3.690   6.288   1.095  0.1297  0.1652 -0.6792
 2788TIP3    H129923   3.641   6.358   1.052 -0.6693  0.1409  0.1688
 2788TIP3    H229924   3.656   6.208   1.055 -1.2846  0.0833  0.5997
 2789TIP3   OH229925   6.802   4.060   7.374  0.6454  0.0213  0.1483
 2789TIP3    H129926   6.756   4.035   7.454  0.8158 -0.9387 -0.0517
 2789TIP3    H229927   6.892   4.077   7.403  1.0546 -1.6877 -0.0468
 2790TIP3   OH229928   1.377   1.058   1.295 -0.0980 -0.4799 -0.1029
 2790TIP3    H129929   1.411   1.104   1.218 -2.2580  1.3495 -0.0547
 2790TIP3    H229930   1.291   1.026   1.268 -0.6805 -0.2421  1.3705
 2791TIP3   OH229931   1.856   5.518   7.069 -0.4398 -0.1420  0.3383
 2791TIP3    H129932   1.815   5.576   7.005  2.0087 -0.1366 -1.3795
 2791TIP3    H229933   1.819   5.432   7.051 -1.6205  0.2840  0.6448
 2792TIP3   OH229934   6.325   1.197   0.890  0.4108  0.3069  0.0020
 2792TIP3    H129935   6.285   1.176   0.806 -1.3565  0.5427  0.7307
 2792TIP3    H229936   6.357   1.286   0.881  1.8602 -0.2763 -0.9602
 2793TIP3   OH229937   3.752   3.761   8.493  0.0049 -0.1414 -0.2880
 2793TIP3    H129938   3.725   3.795   8.578 -0.1508  0.3853 -0.5430
 2793TIP3    H229939   3.782   3.838   8.444  1.4434 -0.6235 -0.2173
 2794TIP3   OH229940   3.758   1.023   2.655 -0.0707  0.1598  0.3916
 2794TIP3    H129941   3.795   1.086   2.594 -0.3890 -0.3727 -0.3745
 2794TIP3    H229942   3.823   1.015   2.725  0.1600  1.0056  0.2774
 2795TIP3   OH229943   3.184   1.948   1.194  0.2924  0.1879 -0.1994
 2795TIP3    H129944   3.149   2.035   1.212 -2.6430 -0.9158 -0.0012
 2795TIP3    H229945   3.179   1.939   1.099 -1.0196 -0.3005 -0.1131
 2796TIP3   OH229946   3.782   4.793   2.159  0.5316  0.4512  0.4195
 2796TIP3    H129947   3.778   4.880   2.197 -0.5122  0.7153 -0.2761
 2796TIP3    H229948   3.706   4.747   2.194  0.2016  0.3313 -0.4197
 2797TIP3   OH229949   4.190   4.180   7.605 -0.1096 -0.7179  0.0843
 2797TIP3    H129950   4.261   4.217   7.552  0.0190 -0.5143  0.3937
 2797TIP3    H229951   4.179   4.091   7.571 -0.0261 -0.5932 -0.2798
 2798TIP3   OH229952   3.917   3.720   0.097 -0.1573 -0.3381 -0.3477
 2798TIP3    H129953   3.931   3.647   0.156 -1.3048 -0.3465 -0.0633
 2798TIP3    H229954   4.002   3.734   0.055  0.7425 -0.1867  1.4450
 2799TIP3   OH229955   2.060   1.417   1.241 -0.2369 -0.8229 -0.2552
 2799TIP3    H129956   2.135   1.420   1.181  0.1903  0.1846  0.3109
 2799TIP3    H229957   2.090   1.362   1.314 -0.1033 -0.5430 -0.0996
 2800TIP3   OH229958   0.742   6.674   7.357 -0.3597  0.2162 -0.2382
 2800TIP3    H129959   0.803   6.740   7.325  0.9015 -0.1792  1.2175
 2800TIP3    H229960   0.693   6.718   7.426  1.2556 -0.6175  1.5061
 2801TIP3   OH229961   3.175   6.761   7.290  0.1086 -0.3282 -0.9170
 2801TIP3    H129962   3.227   6.753   7.210 -0.7913  0.5232 -1.6141
 2801TIP3    H229963   3.181   6.854   7.313 -0.6798 -0.3249 -0.7174
 2802TIP3   OH229964   4.303   4.122   2.071 -0.0416 -0.5818  0.1803
 2802TIP3    H129965   4.215   4.158   2.067 -0.4638 -1.3091  2.0823
 2802TIP3    H229966   4.355   4.180   2.015 -1.2370  1.3549  0.9747
 2803TIP3   OH229967   3.484   6.716   2.261  0.1592  0.3693  0.8249
 2803TIP3    H129968   3.517   6.791   2.212  0.8864  0.3525  1.2686
 2803TIP3    H229969   3.389   6.723   2.255  0.2289  0.8270  0.1168
 2804TIP3   OH229970   6.131   0.437   7.292 -0.2836 -0.4455 -0.0530
 2804TIP3    H129971   6.191   0.367   7.268  2.0243  1.0984  0.7724
 2804TIP3    H229972   6.049   0.393   7.314  0.5693 -2.6855 -1.0950
 2805TIP3   OH229973   0.830   5.813   0.217 -0.6844  0.2759  0.0417
 2805TIP3    H129974   0.870   5.817   0.304 -0.2894  0.4191 -0.1426
 2805TIP3    H229975   0.888   5.867   0.163  0.2291 -1.4393 -0.7694
 2806TIP3   OH229976   1.394   0.238   7.114  0.0823 -0.4815 -0.0890
 2806TIP3    H129977   1.392   0.310   7.052 -0.5006 -0.5174 -0.1131
 2806TIP3    H229978   1.333   0.173   7.079  1.2104 -1.3524 -0.5093
 2807TIP3   OH229979   6.489   4.591   1.011 -0.0258 -0.1380 -0.0494
 2807TIP3    H129980   6.467   4.638   1.091 -0.5012 -1.3853  0.5786
 2807TIP3    H229981   6.561   4.641   0.973  1.3517 -0.4112  2.0216
 2808TIP3   OH229982   3.543   0.938   1.435 -0.1045 -0.3108  0.0541
 2808TIP3    H129983   3.505   1.007   1.490 -0.2113  0.2256 -0.6785
 2808TIP3    H229984   3.560   0.981   1.351 -0.1112 -1.1654 -0.3912
 2809TIP3   OH229985   5.109   2.119   0.641 -0.2677 -0.2584 -0.2546
 2809TIP3    H129986   5.125   2.195   0.697  0.5938 -1.2342  0.8708
 2809TIP3    H229987   5.189   2.067   0.648 -0.9189 -1.3724 -0.8471
 2810TIP3   OH229988   5.390   2.088   8.545  0.2900 -0.0677  0.2245
 2810TIP3    H129989   5.386   2.182   8.558 -0.2216  0.0907 -0.9056
 2810TIP3    H229990   5.299   2.061   8.534  0.5109 -0.4402 -0.9152
 2811TIP3   OH229991   0.744   0.874   1.021 -0.0119  0.0450 -0.1655
 2811TIP3    H129992   0.684   0.923   0.965  0.3247  0.5804 -0.0695
 2811TIP3    H229993   0.722   0.782   1.006 -1.4041  0.2470  0.4824
 2812TIP3   OH229994   0.634   3.684   6.134  0.7382 -0.1162  0.3734
 2812TIP3    H129995   0.592   3.730   6.062  2.4291  0.2908 -0.4188
 2812TIP3    H229996   0.593   3.597   6.135 -0.4532  0.4274  0.0050
 2813TIP3   OH229997   5.969   1.650   8.099 -0.5998  0.0012 -0.0022
 2813TIP3    H129998   5.901   1.666   8.033 -0.2943  2.6721  0.2355
 2813TIP3    H229999   6.051   1.663   8.051 -0.3662  1.2388  0.6995
 2814TIP3   OH230000   0.239   4.178   7.465  0.2969  0.5553 -0.1783
 2814TIP3    H130001   0.330   4.207   7.454 -0.5437  3.4499 -0.1438
 2814TIP3    H230002   0.197   4.248   7.516 -2.0077 -0.6348 -0.3161
 2815TIP3   OH230003   6.472   2.009   8.529 -0.5779  0.9523 -0.7142
 2815TIP3    H130004   6.511   1.990   8.615 -1.2302  1.0106 -0.4034
 2815TIP3    H230005   6.387   2.046   8.549 -0.9196  0.5550 -1.3989
 2816TIP3   OH230006   6.302   4.095   7.696  0.0196 -0.1249 -0.1819
 2816TIP3    H130007   6.364   4.105   7.768 -0.9829 -0.7302  0.8205
 2816TIP3    H230008   6.218   4.076   7.740 -0.2728 -2.3740 -1.5266
 2817TIP3   OH230009   0.547   6.006   0.248 -0.1793  0.0003  0.2824
 2817TIP3    H130010   0.532   6.059   0.326 -1.0858 -0.1604  0.2283
 2817TIP3    H230011   0.642   6.008   0.236 -0.0795  0.4969  1.0537
 2818TIP3   OH230012   4.377   0.071   1.017  0.4377  0.6587 -0.0429
 2818TIP3    H130013   4.291   0.040   0.988  0.3428 -0.3994  1.2554
 2818TIP3    H230014   4.409   0.002   1.074  0.8779  2.2867  1.8057
 2819TIP3   OH230015   1.942   5.080   7.487  0.1403  0.9403  0.0085
 2819TIP3    H130016   1.856   5.120   7.476 -0.2024  0.8990  2.0972
 2819TIP3    H230017   1.924   4.997   7.532  1.3767  1.9401  2.5307
 2820TIP3   OH230018   3.716   4.353   6.877 -0.5620 -0.3449  0.0669
 2820TIP3    H130019   3.740   4.418   6.811  0.4324 -0.8875 -0.1364
 2820TIP3    H230020   3.773   4.278   6.858 -1.2838 -1.0613  0.6462
 2821TIP3   OH230021   5.237   2.315   6.258 -0.0968  0.2349  0.4581
 2821TIP3    H130022   5.310   2.375   6.240  0.4368 -0.3223  0.7074
 2821TIP3    H230023   5.280   2.233   6.282 -0.7183  0.7265  3.6965
 2822TIP3   OH230024   6.668   2.389   6.966 -0.1324  0.0457 -0.4143
 2822TIP3    H130025   6.708   2.466   6.926  1.6986  0.5875  2.1903
 2822TIP3    H230026   6.742   2.330   6.983 -0.7779 -0.2126  1.8629
 2823TIP3   OH230027   4.917   1.619   8.076 -0.4650 -0.4305  0.4693
 2823TIP3    H130028   5.009   1.612   8.048 -0.3250 -0.9377  1.0454
 2823TIP3    H230029   4.911   1.706   8.114 -0.4718 -0.0150 -0.4503
 2824TIP3   OH230030   0.430   3.078   7.582  0.0827  0.0427  0.2110
 2824TIP3    H130031   0.510   3.071   7.529  0.1055  1.3892  0.0260
 2824TIP3    H230032   0.456   3.132   7.657 -0.3649 -0.5039  0.7669
 2825TIP3   OH230033   1.627   4.978   0.603  0.0299 -0.4680  0.2764
 2825TIP3    H130034   1.544   4.949   0.640  0.1991  0.2744  1.2888
 2825TIP3    H230035   1.682   4.997   0.679  0.9347 -0.4063 -0.3722
 2826TIP3   OH230036   2.118   1.249   1.443  0.9797  0.2850 -0.4083
 2826TIP3    H130037   2.130   1.276   1.534 -2.0323  2.1033 -0.4004
 2826TIP3    H230038   2.130   1.154   1.445  1.1893  0.2933  1.8540
 2827TIP3   OH230039   2.295   4.501   6.522  0.1551  0.5144  0.4344
 2827TIP3    H130040   2.231   4.481   6.590  2.6255 -1.6020  2.3611
 2827TIP3    H230041   2.258   4.464   6.442 -1.1388 -0.4014  1.4267
 2828TIP3   OH230042   4.078   3.276   6.965  0.1282 -0.1312  0.0746
 2828TIP3    H130043   4.074   3.331   6.886 -1.0485  1.4336  1.1535
 2828TIP3    H230044   3.989   3.240   6.973 -0.4640  1.5742  1.8792
 2829TIP3   OH230045   5.303   5.817   1.471 -0.4190  0.3501 -0.4850
 2829TIP3    H130046   5.332   5.908   1.462 -3.4269  1.5777  0.9085
 2829TIP3    H230047   5.380   5.771   1.505  1.0799  2.4455 -0.8227
 2830TIP3   OH230048   0.434   0.439   0.783 -0.0315 -0.7791 -0.1247
 2830TIP3    H130049   0.373   0.512   0.779 -0.5780 -1.2083  0.2209
 2830TIP3    H230050   0.501   0.461   0.719 -0.6587 -0.3975 -0.6710
 2831TIP3   OH230051   3.606   0.269   7.869  0.3834  1.0355 -0.1790
 2831TIP3    H130052   3.607   0.190   7.923 -0.1053  0.8131 -0.4783
 2831TIP3    H230053   3.688   0.314   7.889  0.1068  1.0808  0.9131
 2832TIP3   OH230054   3.141   2.961   1.641  0.1050  0.4360 -0.7829
 2832TIP3    H130055   3.203   2.982   1.572 -0.6752  0.4546 -1.4878
 2832TIP3    H230056   3.125   2.867   1.631 -0.2093  0.4907 -0.7871
 2833TIP3   OH230057   5.565   5.525   7.655 -0.1446  0.0349  0.2870
 2833TIP3    H130058   5.606   5.596   7.705  0.2028 -0.1702  0.2903
 2833TIP3    H230059   5.474   5.553   7.646 -0.5548 -0.5129  2.1697
 2834TIP3   OH230060   4.956   6.641   8.766 -0.1206  0.0564  0.2826
 2834TIP3    H130061   4.913   6.651   8.851 -2.5937 -1.3947 -0.6609
 2834TIP3    H230062   4.930   6.719   8.717  1.2342  0.8508  0.7785
 2835TIP3   OH230063   1.317   2.619   7.080  0.4405 -0.3096 -0.0775
 2835TIP3    H130064   1.381   2.570   7.029  0.8067  2.3686 -2.4568
 2835TIP3    H230065   1.370   2.673   7.139  0.3225  0.2540 -0.4684
 2836TIP3   OH230066   4.014   3.295   1.239  0.3742  0.4690  0.0151
 2836TIP3    H130067   4.014   3.354   1.314  0.6333 -1.9375  2.0204
 2836TIP3    H230068   4.100   3.307   1.198  1.8258 -0.8661  2.4520
 2837TIP3   OH230069   4.742   6.125   7.938 -0.2899 -0.0858  0.0629
 2837TIP3    H130070   4.802   6.071   7.989 -0.0693 -0.4820 -0.6032
 2837TIP3    H230071   4.696   6.063   7.882 -1.2010  0.2362  0.4435
 2838TIP3   OH230072   4.676   1.175   2.200  0.0497 -0.0435  0.2699
 2838TIP3    H130073   4.716   1.176   2.113 -1.1338 -0.9350 -0.3185
 2838TIP3    H230074   4.618   1.099   2.198 -1.7505  1.2471  1.0314
 2839TIP3   OH230075   0.430   2.126   0.674 -0.1805 -0.3903  0.3397
 2839TIP3    H130076   0.352   2.129   0.619 -0.1231  0.1081  0.2811
 2839TIP3    H230077   0.400   2.095   0.759 -0.3007 -1.0029  0.0752
 2840TIP3   OH230078   2.976   6.226   8.305  0.8272 -0.6113 -0.7329
 2840TIP3    H130079   2.958   6.146   8.255  0.5540 -0.2381 -1.2386
 2840TIP3    H230080   3.060   6.208   8.349  0.2734 -1.5666 -0.0193
 2841TIP3   OH230081   5.932   2.282   1.112  0.6073  0.1718  0.2354
 2841TIP3    H130082   5.880   2.219   1.161  1.8392 -0.6162  0.5629
 2841TIP3    H230083   5.879   2.300   1.033 -0.1189 -0.6437  0.5216
 2842TIP3   OH230084   4.197   0.851   8.534 -0.1875 -0.0322  0.0979
 2842TIP3    H130085   4.148   0.770   8.531  0.7025 -0.8432  3.3439
 2842TIP3    H230086   4.148   0.907   8.594  1.4268  0.1026  1.3646
 2843TIP3   OH230087   3.095   4.644   6.882  0.0190 -0.4441 -0.3058
 2843TIP3    H130088   3.154   4.717   6.900  0.5323 -0.8371 -0.3770
 2843TIP3    H230089   3.152   4.571   6.862 -0.4906 -0.8866 -0.1797
 2844TIP3   OH230090   3.433   5.139   8.140  0.2065  0.6269  0.0475
 2844TIP3    H130091   3.371   5.148   8.068  0.7168  1.9141 -0.2538
 2844TIP3    H230092   3.451   5.045   8.145  0.2965  0.5402 -1.6158
 2845TIP3   OH230093   0.984   4.041   1.815 -0.2048 -0.8229  0.6381
 2845TIP3    H130094   1.045   4.041   1.889 -2.5402 -3.0715  2.7212
 2845TIP3    H230095   0.909   4.091   1.846 -0.4985 -0.2499 -0.9365
 2846TIP3   OH230096   1.283   5.026   2.116  0.7810  0.5143  0.2927
 2846TIP3    H130097   1.304   4.935   2.136 -0.9409 -0.3670 -1.5980
 2846TIP3    H230098   1.338   5.048   2.041 -0.3526  0.2935 -0.6233
 2847TIP3   OH230099   3.855   1.791   8.399 -0.3657 -0.1779  0.3301
 2847TIP3    H130100   3.811   1.724   8.452  0.1345 -1.1435 -0.4484
 2847TIP3    H230101   3.933   1.814   8.450 -0.6497 -0.0219  0.7009
 2848TIP3   OH230102   5.752   0.063   7.215 -0.3418  0.3737 -0.1274
 2848TIP3    H130103   5.697   0.054   7.294  0.2168  0.9831  0.3366
 2848TIP3    H230104   5.689   0.066   7.143 -0.8109 -2.0087  0.0988
 2849TIP3   OH230105   4.158   5.080   0.590  0.1529  0.2980  0.2403
 2849TIP3    H130106   4.070   5.048   0.573 -0.0343  0.0323  1.6406
 2849TIP3    H230107   4.156   5.110   0.681  0.9952  2.0326 -0.2660
 2850TIP3   OH230108   2.238   4.355   6.885  0.0587 -0.5744  0.1239
 2850TIP3    H130109   2.249   4.395   6.971 -0.5091 -0.7614  0.2918
 2850TIP3    H230110   2.324   4.360   6.844  0.3302 -0.4824  0.7030
 2851TIP3   OH230111   3.311   2.063   6.704  0.0807 -1.0154 -0.3984
 2851TIP3    H130112   3.380   2.022   6.652 -0.5004 -1.2199 -1.0128
 2851TIP3    H230113   3.244   2.087   6.641 -0.6874 -1.3637  0.2607
 2852TIP3   OH230114   1.220   1.023   7.326  0.1194  0.1500  0.2530
 2852TIP3    H130115   1.249   1.109   7.357 -1.7646  0.3455  1.7024
 2852TIP3    H230116   1.301   0.974   7.311  1.2185  1.7928  0.5325
 2853TIP3   OH230117   5.829   5.733   8.292 -0.1635 -0.1338 -0.0427
 2853TIP3    H130118   5.876   5.809   8.258 -0.8224 -0.0690 -0.8567
 2853TIP3    H230119   5.739   5.744   8.260 -0.3660 -1.0382  0.1738
 2854TIP3   OH230120   5.898   4.172   1.204 -0.2576 -0.2362  0.0072
 2854TIP3    H130121   5.919   4.128   1.122 -1.4066 -0.9243  0.0618
 2854TIP3    H230122   5.805   4.154   1.218 -0.5210  1.3835  0.5464
 2855TIP3   OH230123   4.216   3.383   0.377 -0.1461  0.8708 -0.5531
 2855TIP3    H130124   4.195   3.413   0.465  0.8390  0.7921 -0.2847
 2855TIP3    H230125   4.298   3.426   0.355  1.1323 -1.2660 -0.2933
 2856TIP3   OH230126   2.061   5.602   1.731  0.6094  0.4048 -0.3023
 2856TIP3    H130127   2.069   5.605   1.827  0.1331  1.4692 -0.2834
 2856TIP3    H230128   2.133   5.545   1.703  0.2873 -0.5529  0.7364
 2857TIP3   OH230129   0.418   1.475   8.028 -0.4480  0.7058 -0.1378
 2857TIP3    H130130   0.357   1.460   8.100 -0.1865  1.3204  0.2183
 2857TIP3    H230131   0.492   1.520   8.068  0.8727 -1.2037 -0.2955
 2858TIP3   OH230132   3.100   4.334   8.459  0.2793 -0.2187  0.2992
 2858TIP3    H130133   3.032   4.361   8.521 -1.4653  0.3131 -1.7204
 2858TIP3    H230134   3.127   4.416   8.417  0.5647 -0.6928 -0.4619
 2859TIP3   OH230135   1.700   1.247   7.165 -0.4782 -0.4869 -0.2406
 2859TIP3    H130136   1.777   1.197   7.140 -0.8761 -0.7448 -0.9872
 2859TIP3    H230137   1.637   1.232   7.095 -0.7077  0.8527 -0.3615
 2860TIP3   OH230138   5.751   5.195   7.886  0.2545  0.0789  0.0321
 2860TIP3    H130139   5.751   5.136   7.810 -0.8424  0.4092 -0.2479
 2860TIP3    H230140   5.782   5.278   7.850  2.1140 -0.3741  0.4959
 2861TIP3   OH230141   2.748   5.718   0.694  0.1914  0.0290 -0.4939
 2861TIP3    H130142   2.665   5.704   0.649  0.1307  2.1660 -1.1513
 2861TIP3    H230143   2.813   5.727   0.624  0.7676 -0.3741 -0.0218
 2862TIP3   OH230144   0.504   1.222   6.257 -0.2513 -0.3432 -0.0027
 2862TIP3    H130145   0.587   1.229   6.305  0.0960 -0.4321 -0.5865
 2862TIP3    H230146   0.518   1.270   6.176 -1.5621  1.6945  0.9079
 2863TIP3   OH230147   3.069   1.397   0.678 -0.3607  0.7023  0.0081
 2863TIP3    H130148   3.055   1.488   0.703  0.6107  0.6791  0.7036
 2863TIP3    H230149   3.033   1.346   0.750  2.9728  0.6427  1.8735
 2864TIP3   OH230150   4.301   1.037   0.081  0.1358  0.0653  0.9307
 2864TIP3    H130151   4.352   0.961   0.111  0.3797 -0.3692 -0.4994
 2864TIP3    H230152   4.269   1.077   0.161 -0.6355 -1.9772  1.7142
 2865TIP3   OH230153   5.991   5.106   0.854 -0.4039  0.0489  0.5538
 2865TIP3    H130154   5.908   5.091   0.809 -0.6899  0.4260  0.9463
 2865TIP3    H230155   5.998   5.201   0.859 -0.0361  0.0148  0.6824
 2866TIP3   OH230156   4.664   0.811   0.537 -0.1419 -0.1425 -0.2899
 2866TIP3    H130157   4.670   0.762   0.455  1.8011 -2.1693  0.9559
 2866TIP3    H230158   4.622   0.751   0.598  2.2633 -0.3825  1.2764
 2867TIP3   OH230159   2.369   6.705   7.472 -0.1869 -0.4283  0.1759
 2867TIP3    H130160   2.318   6.759   7.411  0.1933 -0.2716 -0.0025
 2867TIP3    H230161   2.303   6.662   7.527 -0.5095  2.7944  2.6152
 2868TIP3   OH230162   1.091   3.248   2.140  0.4663 -0.7223 -0.8144
 2868TIP3    H130163   1.101   3.322   2.079  0.7823  0.0861  0.1825
 2868TIP3    H230164   1.163   3.190   2.120  1.2915  0.1342 -0.4256
 2869TIP3   OH230165   2.850   1.313   8.518 -0.0697  0.3211 -0.0743
 2869TIP3    H130166   2.943   1.292   8.512 -0.1342 -0.4809  1.3778
 2869TIP3    H230167   2.812   1.243   8.571 -0.9729  2.0915  1.7427
 2870TIP3   OH230168   3.092   1.686   0.566  0.5176  0.4693  0.1903
 2870TIP3    H130169   3.100   1.746   0.492  0.1955 -0.5925 -0.7295
 2870TIP3    H230170   3.012   1.637   0.548  0.5727  0.0136  1.1241
 2871TIP3   OH230171   4.691   6.730   0.996  0.0461 -0.2313  0.9975
 2871TIP3    H130172   4.696   6.729   1.091  2.4560  0.2792  0.9464
 2871TIP3    H230173   4.678   6.638   0.971 -2.3059 -0.1728  1.8033
 2872TIP3   OH230174   5.289   6.529   0.162 -0.8910  0.0850  0.3014
 2872TIP3    H130175   5.259   6.616   0.189 -1.0711 -0.1368  0.8247
 2872TIP3    H230176   5.227   6.468   0.202 -1.5402 -0.2345 -1.1300
 2873TIP3   OH230177   2.032   2.725   0.864  0.2286  0.2073 -0.8655
 2873TIP3    H130178   2.053   2.659   0.799  0.4537 -0.7616  0.1649
 2873TIP3    H230179   2.043   2.681   0.948  0.8270  1.6870 -0.1357
 2874TIP3   OH230180   0.109   2.613   8.472  0.1369 -0.4880 -0.1069
 2874TIP3    H130181   0.181   2.670   8.500  0.6766 -1.1419 -0.1331
 2874TIP3    H230182   0.098   2.551   8.545  0.0049 -0.7583 -0.3555
 2875TIP3   OH230183   5.751   3.350   0.043  0.0947 -0.0461  0.6078
 2875TIP3    H130184   5.735   3.422   0.105  1.6719  0.5557  0.3643
 2875TIP3    H230185   5.799   3.285   0.094  0.0058 -0.2565  0.4249
 2876TIP3   OH230186   3.288   2.703   7.104  0.4415 -0.0954 -0.1994
 2876TIP3    H130187   3.266   2.612   7.083 -3.2498  0.3990  0.7569
 2876TIP3    H230188   3.266   2.752   7.025  1.1861  0.1376 -0.2723
 2877TIP3   OH230189   0.141   5.952   8.746 -0.5699 -0.2424 -0.2450
 2877TIP3    H130190   0.224   5.947   8.698  0.8563  0.5127  1.9936
 2877TIP3    H230191   0.144   5.879   8.808 -1.1495  0.3242  0.4750
 2878TIP3   OH230192   0.046   3.142   7.722 -0.5785 -0.1618  0.1068
 2878TIP3    H130193  -0.042   3.175   7.744 -0.0982  0.9516  0.4135
 2878TIP3    H230194   0.103   3.180   7.788  0.1640 -0.8341 -0.1281
 2879TIP3   OH230195   4.415   3.044   6.068 -0.0014 -0.0500  0.4123
 2879TIP3    H130196   4.480   3.064   6.135 -0.1946  0.0994  0.5566
 2879TIP3    H230197   4.362   3.123   6.062 -0.2985 -0.2428  0.4469
 2880TIP3   OH230198   4.261   2.206   7.289 -0.3457  0.5210 -0.0607
 2880TIP3    H130199   4.221   2.121   7.266  0.3532  0.4952 -1.2097
 2880TIP3    H230200   4.319   2.185   7.362 -0.6367  0.1218  0.0647
 2881TIP3   OH230201   6.346   3.594   8.342 -0.0741  0.6246  0.2519
 2881TIP3    H130202   6.295   3.537   8.284 -0.5229  1.0969  0.1704
 2881TIP3    H230203   6.429   3.549   8.354 -0.4176 -0.0377  0.1763
 2882TIP3   OH230204   2.817   0.549   2.020 -0.6052  0.8072  0.6088
 2882TIP3    H130205   2.857   0.598   2.092 -1.4103 -0.0872  1.7130
 2882TIP3    H230206   2.730   0.587   2.011 -1.1025 -0.1492  1.2291
 2883TIP3   OH230207   1.193   2.631   0.958  0.0158  0.2066  0.2635
 2883TIP3    H130208   1.125   2.680   1.003 -0.4084  1.0555 -1.2303
 2883TIP3    H230209   1.197   2.669   0.871  1.3164 -0.8814 -0.2024
 2884TIP3   OH230210   4.616   2.070   7.210 -0.2389  0.9338  0.1148
 2884TIP3    H130211   4.594   1.987   7.167  1.6758  0.8542 -0.8021
 2884TIP3    H230212   4.673   2.045   7.283 -0.8224  1.3418  0.7223
 2885TIP3   OH230213   2.769   6.123   0.964 -0.1479 -0.1615 -0.1555
 2885TIP3    H130214   2.772   6.185   1.037 -0.4423 -1.9168  1.4220
 2885TIP3    H230215   2.676   6.110   0.948 -0.1714 -1.8370  1.0606
 2886TIP3   OH230216   5.330   1.073   8.426 -0.7295 -0.2702  0.1138
 2886TIP3    H130217   5.309   1.161   8.460 -2.7298 -0.4695 -0.4748
 2886TIP3    H230218   5.386   1.035   8.493 -0.5615  1.1302  0.8193
 2887TIP3   OH230219   3.727   0.534   1.495 -0.0694  0.1229 -0.4051
 2887TIP3    H130220   3.694   0.534   1.405 -1.4105  1.3996  0.0422
 2887TIP3    H230221   3.691   0.454   1.534  0.0354 -0.1400 -0.8437
 2888TIP3   OH230222   4.124   1.817   0.254  0.2947  0.7276 -0.1303
 2888TIP3    H130223   4.114   1.865   0.336 -1.1961  0.4922 -0.1351
 2888TIP3    H230224   4.218   1.802   0.245  0.4435  0.3018  1.7986
 2889TIP3   OH230225   3.193   3.503   8.776  0.1093 -0.0626 -0.3073
 2889TIP3    H130226   3.105   3.536   8.796 -0.5139 -1.4389 -0.5898
 2889TIP3    H230227   3.210   3.531   8.686 -1.3715 -2.2877 -1.3852
 2890TIP3   OH230228   6.459   4.051   8.470  0.0180 -0.0190 -1.3803
 2890TIP3    H130229   6.516   4.084   8.400  1.3224  0.0964 -0.3052
 2890TIP3    H230230   6.501   3.970   8.498 -0.6950 -0.2542 -0.9849
 2891TIP3   OH230231   3.687   2.358   0.757 -0.3846  1.0806 -0.0327
 2891TIP3    H130232   3.745   2.394   0.690  0.1425  0.2246 -0.0435
 2891TIP3    H230233   3.640   2.287   0.712  0.0840  0.3998  0.5475
 2892TIP3   OH230234   1.879   0.855   0.334  0.0942 -0.4746  0.7049
 2892TIP3    H130235   1.906   0.940   0.299 -0.0973 -0.9693 -0.7264
 2892TIP3    H230236   1.810   0.877   0.397 -0.0560  0.4293  0.2531
 2893TIP3   OH230237   4.026   5.706   7.648  0.3989 -0.1942  0.3448
 2893TIP3    H130238   4.059   5.671   7.730  0.9945  1.1887  0.7230
 2893TIP3    H230239   3.932   5.689   7.650 -0.1721  2.4857  2.7546
 2894TIP3   OH230240   5.049   6.497   1.981 -0.0301  0.1132 -0.1024
 2894TIP3    H130241   4.999   6.469   1.904 -0.7520  1.5101 -0.1792
 2894TIP3    H230242   4.997   6.467   2.056 -0.0784  0.0348 -0.1677
 2895TIP3   OH230243   3.383   6.380   8.426 -0.5163  0.9347  0.4801
 2895TIP3    H130244   3.411   6.469   8.445  1.1894  0.9210 -1.5617
 2895TIP3    H230245   3.459   6.339   8.383 -1.3461 -1.4101  1.0583
 2896TIP3   OH230246   3.092   5.449   1.088 -0.0749  0.1972  0.7052
 2896TIP3    H130247   3.079   5.544   1.081  1.1798  0.2888 -1.1176
 2896TIP3    H230248   3.003   5.413   1.096 -0.6618  1.4425  0.0837
 2897TIP3   OH230249   1.383   1.571   6.334 -0.3684  0.3087  0.6085
 2897TIP3    H130250   1.455   1.566   6.397  1.3970  0.6783 -1.3201
 2897TIP3    H230251   1.388   1.659   6.298 -1.3579  0.1030 -0.0678
 2898TIP3   OH230252   4.649   3.099   8.086  0.1374  0.4520 -0.5237
 2898TIP3    H130253   4.725   3.068   8.137  0.5250  3.3198  0.8954
 2898TIP3    H230254   4.684   3.115   7.999  0.3212 -1.3262 -0.8051
 2899TIP3   OH230255   0.825   5.143   7.936 -0.4367  0.4276  0.2960
 2899TIP3    H130256   0.782   5.059   7.954 -1.0233  0.1850 -1.9047
 2899TIP3    H230257   0.772   5.183   7.867  0.4955  2.0923  0.4869
 2900TIP3   OH230258   3.764   2.630   7.981  0.5966 -0.0144  0.6334
 2900TIP3    H130259   3.689   2.582   7.946  0.6877  1.2409 -1.4675
 2900TIP3    H230260   3.731   2.719   7.995  2.1039  1.1412 -2.3682
 2901TIP3   OH230261   6.134   6.366   8.677 -0.0589 -0.1373  0.1253
 2901TIP3    H130262   6.057   6.416   8.652  0.1846  1.1298  1.7052
 2901TIP3    H230263   6.204   6.401   8.622 -0.1896  0.2569  0.2053
 2902TIP3   OH230264   4.767   2.173   0.300 -0.2155  0.3431  0.8089
 2902TIP3    H130265   4.744   2.082   0.319  0.2456 -0.3943 -1.7948
 2902TIP3    H230266   4.810   2.204   0.379  1.6155 -2.4093  1.0227
 2903TIP3   OH230267   1.510   2.610   0.719  0.7725  0.6072  0.0811
 2903TIP3    H130268   1.462   2.544   0.670  1.0660 -0.9611  1.8088
 2903TIP3    H230269   1.526   2.570   0.805  1.2053  2.8141  1.1067
 2904TIP3   OH230270   0.428   1.343   0.690 -0.5107 -0.6463 -0.7935
 2904TIP3    H130271   0.425   1.435   0.666  2.4428  0.4016  2.0323
 2904TIP3    H230272   0.446   1.297   0.608  0.2176  1.5639 -1.9608
 2905TIP3   OH230273   3.707   5.153   8.666  0.0867  0.1708 -0.0046
 2905TIP3    H130274   3.715   5.144   8.761 -1.4982  2.1523  0.3768
 2905TIP3    H230275   3.646   5.085   8.640  0.2120 -0.1166  0.4371
 2906TIP3   OH230276   4.286   5.958   6.766  0.0725  0.0448  0.1033
 2906TIP3    H130277   4.371   5.993   6.794 -0.6378  0.4299  1.9207
 2906TIP3    H230278   4.271   5.883   6.824 -1.0761  0.3202  0.1730
 2907TIP3   OH230279   1.452   0.573   8.013  0.0347 -0.1597  1.2036
 2907TIP3    H130280   1.362   0.602   8.027  0.3751  0.5729  1.9788
 2907TIP3    H230281   1.466   0.581   7.919 -0.4427  0.5526  1.1864
 2908TIP3   OH230282   1.866   3.721   0.596 -0.3468 -0.7872  0.6144
 2908TIP3    H130283   1.808   3.709   0.671 -2.2998 -3.3352 -1.1459
 2908TIP3    H230284   1.861   3.639   0.548  1.7072  0.3358 -1.7512
 2909TIP3   OH230285   2.657   5.221   2.203  0.1625  0.2141 -0.3432
 2909TIP3    H130286   2.603   5.176   2.138 -2.4747  1.1577  1.0296
 2909TIP3    H230287   2.695   5.150   2.255  0.7377 -0.4948 -1.6955
 2910TIP3   OH230288   0.597   5.354   1.184  0.2329  0.0577 -0.4347
 2910TIP3    H130289   0.621   5.321   1.097 -0.6832  1.3292 -1.1825
 2910TIP3    H230290   0.545   5.432   1.168 -1.3325 -0.5659  1.2286
 2911TIP3   OH230291   2.598   1.259   8.425 -0.1811 -0.3750 -0.2246
 2911TIP3    H130292   2.599   1.296   8.336  0.8894 -0.0575 -0.0916
 2911TIP3    H230293   2.689   1.262   8.453 -0.4001 -1.1713  0.6096
 2912TIP3   OH230294   6.161   3.855   1.427 -0.2313  0.6927 -0.4390
 2912TIP3    H130295   6.124   3.821   1.346  1.3585 -1.4404 -0.3669
 2912TIP3    H230296   6.252   3.877   1.404  0.9813 -2.1270  1.1627
 2913TIP3   OH230297   6.018   0.358   0.817  0.2778 -0.0443 -0.0089
 2913TIP3    H130298   6.035   0.287   0.755  0.8943  1.2904 -1.4457
 2913TIP3    H230299   5.924   0.374   0.810  0.2998 -0.0760 -0.4022
 2914TIP3   OH230300   4.755   4.902   7.855  0.5462  0.1187 -0.2312
 2914TIP3    H130301   4.729   4.816   7.824 -1.4861  0.3618  0.6526
 2914TIP3    H230302   4.780   4.888   7.946 -1.8737  0.7178  0.6095
 2915TIP3   OH230303   5.545   6.065   6.407 -0.4235  0.2654 -1.1664
 2915TIP3    H130304   5.540   6.125   6.333 -0.2160  2.0551  0.1846
 2915TIP3    H230305   5.627   6.088   6.451 -1.3465  0.4760  0.5672
 2916TIP3   OH230306   0.308   2.449   1.851 -0.0176 -0.2629  0.2826
 2916TIP3    H130307   0.396   2.438   1.816  0.7808  0.1379  2.0654
 2916TIP3    H230308   0.321   2.471   1.943 -1.9124  1.6740  0.1836
 2917TIP3   OH230309   5.080   2.433   1.141  0.0765 -0.2940 -0.3415
 2917TIP3    H130310   5.038   2.497   1.085  0.2911 -0.1821 -0.3754
 2917TIP3    H230311   5.084   2.475   1.227 -0.3151 -0.4929 -0.2270
 2918TIP3   OH230312   3.447   0.761   2.144  0.2959  0.2159 -0.0554
 2918TIP3    H130313   3.523   0.726   2.191 -0.0597 -0.8438 -0.2372
 2918TIP3    H230314   3.390   0.794   2.214  0.4221 -0.0237  0.1651
 2919TIP3   OH230315   4.215   3.536   7.206  0.7843 -0.1265  0.0147
 2919TIP3    H130316   4.174   3.577   7.130 -0.4128  0.0958  0.7458
 2919TIP3    H230317   4.167   3.572   7.281 -1.6745 -4.1665  0.6915
 2920TIP3   OH230318   0.083   0.084   7.703  0.1606 -0.1138 -0.0673
 2920TIP3    H130319   0.118  -0.003   7.718 -1.4143 -1.0826 -1.6103
 2920TIP3    H230320   0.070   0.089   7.608 -3.6264  0.1664  0.3133
 2921TIP3   OH230321   2.527   0.124   8.059 -0.9774  0.4133  0.3615
 2921TIP3    H130322   2.453   0.112   8.000  0.9979  0.5868 -2.2829
 2921TIP3    H230323   2.503   0.200   8.112 -2.9279  0.0903  0.0027
 2922TIP3   OH230324   5.261   5.281   8.159  0.3836  0.4009 -0.2545
 2922TIP3    H130325   5.304   5.263   8.076  0.3161 -0.6072 -0.0911
 2922TIP3    H230326   5.318   5.241   8.225 -0.6526 -0.7831 -0.0218
 2923TIP3   OH230327   5.705   4.759   0.320  0.0922  0.0559 -0.6590
 2923TIP3    H130328   5.762   4.832   0.344 -0.1566  0.8409 -2.3167
 2923TIP3    H230329   5.709   4.755   0.225  0.4119 -2.3940 -0.6116
 2924TIP3   OH230330   2.973   6.280   2.041 -0.1317  0.5349  0.4208
 2924TIP3    H130331   2.938   6.368   2.052 -1.9628 -0.1822  0.7761
 2924TIP3    H230332   2.902   6.231   2.001  0.0832 -1.2706  2.0915
 2925TIP3   OH230333   4.341   5.832   2.032  0.0878  0.3214 -0.7131
 2925TIP3    H130334   4.250   5.859   2.019 -0.0876 -0.7023 -1.7824
 2925TIP3    H230335   4.359   5.772   1.960  2.3236  2.1627 -1.8213
 2926TIP3   OH230336   0.362   5.476   7.520 -0.1244  0.2911 -0.2475
 2926TIP3    H130337   0.410   5.395   7.502  1.7549  1.2469  0.2378
 2926TIP3    H230338   0.280   5.447   7.559 -0.2820 -1.4378 -1.7226
 2927TIP3   OH230339   4.886   0.839   6.656 -0.1359 -0.2379  0.2735
 2927TIP3    H130340   4.932   0.755   6.656 -1.7217 -1.1407  0.3986
 2927TIP3    H230341   4.805   0.822   6.703  0.2388  1.8046  1.8365
 2928TIP3   OH230342   4.842   2.526   1.595 -0.3139 -0.0013 -0.2943
 2928TIP3    H130343   4.794   2.463   1.648 -0.1171 -0.3274 -0.5048
 2928TIP3    H230344   4.833   2.609   1.643  1.5172 -0.6612  1.3239
 2929TIP3   OH230345   1.306   6.532   6.854 -0.0486  0.1328 -0.2482
 2929TIP3    H130346   1.222   6.496   6.881 -0.2392  0.3784 -0.5074
 2929TIP3    H230347   1.284   6.616   6.813  0.3923  0.5604  0.3752
 2930TIP3   OH230348   2.451   4.247   8.147  0.4517  0.2034  0.0185
 2930TIP3    H130349   2.538   4.223   8.115  0.5902  0.1487  0.4355
 2930TIP3    H230350   2.391   4.217   8.078  0.8432  1.3037 -0.8283
 2931TIP3   OH230351   1.194   2.651   1.245 -0.0959 -0.0045 -0.6036
 2931TIP3    H130352   1.202   2.652   1.341  1.1730  2.3080 -0.6660
 2931TIP3    H230353   1.161   2.563   1.225  0.5154 -0.8875  1.8743
 2932TIP3   OH230354   2.369   2.398   6.823 -0.0031 -0.8253 -0.2589
 2932TIP3    H130355   2.428   2.473   6.815  0.7016 -1.1344  1.4696
 2932TIP3    H230356   2.367   2.359   6.736  2.6704 -1.0209 -0.3042
 2933TIP3   OH230357   5.176   2.278   1.887 -0.0340  0.0566 -0.3047
 2933TIP3    H130358   5.115   2.295   1.959  1.2469 -1.8478  1.3201
 2933TIP3    H230359   5.153   2.190   1.857 -0.0597  0.5375 -1.7496
 2934TIP3   OH230360   3.480   3.328   7.773 -0.5532 -0.2336  0.3564
 2934TIP3    H130361   3.501   3.393   7.706 -0.3511 -0.5380  0.1163
 2934TIP3    H230362   3.458   3.249   7.723 -2.4862  0.1133  0.5895
 2935TIP3   OH230363   1.294   3.343   8.438  0.2831 -0.1547  0.3583
 2935TIP3    H130364   1.251   3.421   8.403 -0.3220  0.5472  2.5085
 2935TIP3    H230365   1.345   3.308   8.365  0.5334  2.2296 -0.6739
 2936TIP3   OH230366   4.814   6.374   0.144 -0.2791  0.2337 -0.2196
 2936TIP3    H130367   4.861   6.293   0.125  2.0890  1.6229 -0.6048
 2936TIP3    H230368   4.843   6.399   0.232 -1.3860  0.4428  0.1117
 2937TIP3   OH230369   1.980   0.246   7.707  0.7239 -0.2215 -0.2114
 2937TIP3    H130370   1.890   0.277   7.713  0.7307  0.0309 -1.3167
 2937TIP3    H230371   2.032   0.326   7.696  0.7834 -0.5365 -2.6701
 2938TIP3   OH230372   6.540   6.056   8.015 -0.0418 -0.5577  0.1691
 2938TIP3    H130373   6.582   6.108   7.946 -1.4775  0.9129  0.3545
 2938TIP3    H230374   6.603   6.054   8.086  0.5374 -0.1479 -0.3256
 2939TIP3   OH230375   5.914   3.729   0.720 -0.5930 -0.2147 -1.1177
 2939TIP3    H130376   6.005   3.714   0.746 -1.1771 -0.8272  0.6973
 2939TIP3    H230377   5.900   3.823   0.733 -0.9834 -0.5488  1.4007
 2940TIP3   OH230378   6.038   2.330   7.310  0.4863 -0.1133  0.3158
 2940TIP3    H130379   6.008   2.268   7.377  1.6273  0.6010  1.5442
 2940TIP3    H230380   5.964   2.391   7.299 -0.5626 -1.5158 -0.7469
 2941TIP3   OH230381   2.936   0.776   6.738  0.3751 -0.6229  0.1458
 2941TIP3    H130382   2.987   0.748   6.814  0.2083  0.4186  0.6649
 2941TIP3    H230383   2.845   0.763   6.764  0.2304  1.4393  0.8835
 2942TIP3   OH230384   4.805   1.948   0.107  0.2573 -0.6336  0.2164
 2942TIP3    H130385   4.870   1.887   0.074 -0.0933 -0.8813 -0.0217
 2942TIP3    H230386   4.847   2.034   0.100  0.1560 -0.6677 -0.9627
 2943TIP3   OH230387   0.055   4.505   1.848 -0.0690  0.0554  0.4007
 2943TIP3    H130388   0.064   4.538   1.938 -2.2346 -1.0505  1.0985
 2943TIP3    H230389   0.135   4.454   1.833 -1.1587 -2.8241  3.1732
 2944TIP3   OH230390   5.891   5.572   1.856  0.0994 -0.5499 -0.5692
 2944TIP3    H130391   5.795   5.578   1.862 -0.3143  0.4912 -4.7042
 2944TIP3    H230392   5.919   5.660   1.829  1.9600 -1.2913 -1.2372
 2945TIP3   OH230393   5.798   4.303   6.674 -0.3231  0.1884 -0.1650
 2945TIP3    H130394   5.709   4.336   6.678 -0.9957 -1.5728  0.4921
 2945TIP3    H230395   5.794   4.230   6.612  0.7601  0.3423 -0.4466
 2946TIP3   OH230396   3.943   0.923   7.076  0.0705 -0.0273 -0.1842
 2946TIP3    H130397   3.892   0.956   7.003 -1.4700 -0.8152  0.4914
 2946TIP3    H230398   3.889   0.854   7.114  1.1718 -0.1641  1.2279
 2947TIP3   OH230399   1.965   0.354   8.220 -0.7302 -0.5775  0.7168
 2947TIP3    H130400   2.003   0.268   8.205  1.6011  0.3520  0.9048
 2947TIP3    H230401   2.004   0.410   8.153 -1.0057  0.6586  1.5363
 2948TIP3   OH230402   2.435   5.806   8.481  0.1391 -0.4227 -0.8729
 2948TIP3    H130403   2.471   5.768   8.400 -0.4653  0.4333 -1.5713
 2948TIP3    H230404   2.378   5.876   8.450  0.8678  0.7627  0.3459
 2949TIP3   OH230405   5.994   1.989   6.659 -0.3920 -0.6182  0.5112
 2949TIP3    H130406   5.976   2.035   6.577 -1.9371 -0.3820  0.9488
 2949TIP3    H230407   6.022   2.057   6.720  1.5731 -0.9104 -0.0211
 2950TIP3   OH230408   1.862   1.067   8.196 -0.0297 -0.2289 -0.7135
 2950TIP3    H130409   1.847   1.078   8.289  1.1720  0.2048 -0.5421
 2950TIP3    H230410   1.902   0.980   8.188  1.3760  0.3802 -0.5993
 2951TIP3   OH230411   1.159   3.851   6.409  0.2264 -0.6567 -0.1617
 2951TIP3    H130412   1.168   3.939   6.372 -2.0876  0.1685  1.0250
 2951TIP3    H230413   1.228   3.846   6.475 -0.4143  0.8165  0.6730
 2952TIP3   OH230414   1.161   5.206   0.882 -0.5646 -0.6077 -0.0117
 2952TIP3    H130415   1.257   5.207   0.877 -0.5666  2.0600 -2.5793
 2952TIP3    H230416   1.140   5.262   0.957 -0.0210  1.0894 -1.0686
 2953TIP3   OH230417   5.241   4.978   6.683 -0.6056 -0.3665  0.2214
 2953TIP3    H130418   5.267   4.888   6.661  0.2210 -1.0619  3.5716
 2953TIP3    H230419   5.147   4.981   6.662 -0.5805 -1.8911 -0.2689
 2954TIP3   OH230420   0.833   1.344   6.760  0.4366 -0.0657 -0.0246
 2954TIP3    H130421   0.901   1.396   6.802 -0.3808  0.5709  0.5557
 2954TIP3    H230422   0.783   1.408   6.709 -0.7246 -0.2151  0.8807
 2955TIP3   OH230423   2.936   2.581   8.204  0.2018 -0.0610  0.0440
 2955TIP3    H130424   2.915   2.642   8.274  0.8033  1.6071 -1.1557
 2955TIP3    H230425   2.902   2.623   8.125  1.2694 -0.9307 -0.9111
 2956TIP3   OH230426   5.034   1.344   7.513  0.5094 -0.2149 -0.0798
 2956TIP3    H130427   5.011   1.436   7.524  2.8545  0.4510 -0.3543
 2956TIP3    H230428   4.968   1.297   7.564  0.7043  1.7431  2.1458
 2957TIP3   OH230429   4.958   2.214   1.616 -0.0848  0.4067 -0.2849
 2957TIP3    H130430   4.902   2.259   1.680  0.9975  0.2638  0.8058
 2957TIP3    H230431   4.939   2.121   1.628 -0.3463  0.4147 -0.6285
 2958TIP3   OH230432   4.516   4.559   0.233 -0.0473 -0.0755 -0.2879
 2958TIP3    H130433   4.424   4.585   0.231  0.1625  0.6617 -0.9286
 2958TIP3    H230434   4.518   4.485   0.293 -0.9875  0.1686  0.0766
 2959TIP3   OH230435   1.533   6.579   8.719 -0.2755  0.8392  0.3269
 2959TIP3    H130436   1.525   6.491   8.754 -0.6329  0.7640  0.0660
 2959TIP3    H230437   1.512   6.569   8.626 -3.0949  1.6407  0.7920
 2960TIP3   OH230438   6.459   4.097   7.927 -0.2676 -0.5458  0.0805
 2960TIP3    H130439   6.412   4.156   7.986 -1.0872  0.0008 -1.0737
 2960TIP3    H230440   6.551   4.121   7.936 -0.5472  0.5797 -0.0214
 2961TIP3   OH230441   3.791   6.281   0.382  0.6354 -0.1553  0.3927
 2961TIP3    H130442   3.880   6.313   0.391  0.5949 -0.1243  0.7004
 2961TIP3    H230443   3.769   6.296   0.290  0.7474  0.3591  0.4465
 2962TIP3   OH230444   0.463   2.507   0.932 -0.3820  0.0749 -0.3198
 2962TIP3    H130445   0.537   2.523   0.989  1.3332  1.1365 -2.6895
 2962TIP3    H230446   0.489   2.543   0.847 -4.8325  3.6468 -0.5819
 2963TIP3   OH230447   0.794   3.762   1.133 -0.0615  0.5981  0.1241
 2963TIP3    H130448   0.780   3.835   1.072 -1.1386 -1.0208 -1.6932
 2963TIP3    H230449   0.708   3.747   1.173 -0.3169 -0.7400 -0.8470
 2964TIP3   OH230450   4.596   2.701   8.109  0.4573 -0.7153 -0.0128
 2964TIP3    H130451   4.629   2.710   8.019 -1.8745  0.5099 -0.8419
 2964TIP3    H230452   4.513   2.653   8.099  0.0293 -0.3290  1.4668
 2965TIP3   OH230453   5.017   2.918   6.867  0.4674  0.6936  0.0738
 2965TIP3    H130454   4.967   2.928   6.786  0.2336  1.3390  0.2922
 2965TIP3    H230455   4.988   2.834   6.903  0.1378  0.6833 -0.2132
 2966TIP3   OH230456   3.305   0.709   1.733  0.2065  0.4049  0.5910
 2966TIP3    H130457   3.399   0.692   1.736  0.4894  1.6204 -0.4360
 2966TIP3    H230458   3.272   0.647   1.668 -0.0154 -1.1652  2.1254
 2967TIP3   OH230459   3.675   3.665   7.900  0.7447 -0.1225  0.3464
 2967TIP3    H130460   3.654   3.755   7.922  0.2848 -0.1438  0.0162
 2967TIP3    H230461   3.730   3.671   7.822  1.2030 -0.1047  0.6698
 2968TIP3   OH230462   1.690   2.468   0.180 -0.0939 -0.2086  0.2849
 2968TIP3    H130463   1.598   2.445   0.164 -0.5693  1.0277  1.0204
 2968TIP3    H230464   1.728   2.481   0.093 -0.9730  0.4877 -0.0146
 2969TIP3   OH230465   5.386   4.261   8.570  0.6200 -0.6055 -0.6429
 2969TIP3    H130466   5.328   4.194   8.534  1.3081 -2.0241  0.7422
 2969TIP3    H230467   5.354   4.273   8.660  1.1038  0.2206 -0.5764
 2970TIP3   OH230468   5.013   2.983   0.457  0.4616  0.4447  0.1112
 2970TIP3    H130469   4.970   3.044   0.517  1.5606 -0.6573  2.1363
 2970TIP3    H230470   4.941   2.932   0.419 -0.3369  1.8836 -0.3561
 2971TIP3   OH230471   5.604   6.498   1.460 -0.2294  0.5164  0.1290
 2971TIP3    H130472   5.539   6.569   1.469 -0.7310  0.0167  0.5255
 2971TIP3    H230473   5.685   6.536   1.493 -0.2775  1.2045 -0.5127
 2972TIP3   OH230474   0.633   0.376   7.102 -0.2188 -0.5141 -0.3983
 2972TIP3    H130475   0.679   0.311   7.049  0.5894 -1.5310  1.4442
 2972TIP3    H230476   0.586   0.430   7.039  3.1573  0.3493 -2.4098
 2973TIP3   OH230477   5.349   0.613   0.152 -0.5314  0.1179 -0.4607
 2973TIP3    H130478   5.444   0.606   0.164 -0.7669 -1.9039  0.6700
 2973TIP3    H230479   5.338   0.654   0.066  1.3290  2.8926  0.4739
 2974TIP3   OH230480   0.667   6.670   1.026 -0.6747 -0.3397 -0.5002
 2974TIP3    H130481   0.754   6.705   1.010 -1.2034  1.6141  0.5206
 2974TIP3    H230482   0.619   6.684   0.944 -0.4333 -0.0858 -0.5985
 2975TIP3   OH230483   5.188   5.426   1.180 -0.2018 -0.4799 -0.2455
 2975TIP3    H130484   5.149   5.455   1.263 -2.0096 -0.5934 -1.0055
 2975TIP3    H230485   5.129   5.357   1.149 -1.2757  1.5445 -3.0367
 2976TIP3   OH230486   4.452   2.331   1.737  0.0671 -0.0295  0.5451
 2976TIP3    H130487   4.422   2.383   1.662  2.1426  0.2748 -0.1586
 2976TIP3    H230488   4.396   2.358   1.810 -1.0772  0.7090 -0.5757
 2977TIP3   OH230489   0.942   5.201   7.452 -0.2454  0.3487  0.6885
 2977TIP3    H130490   0.861   5.159   7.483 -0.4580  0.9259  0.9116
 2977TIP3    H230491   0.912   5.263   7.386  0.1314 -0.2931 -0.1097
 2978TIP3   OH230492   6.738   6.223   7.657 -0.3372 -0.1231  0.5484
 2978TIP3    H130493   6.689   6.268   7.726  0.0370  1.2796 -0.0704
 2978TIP3    H230494   6.676   6.161   7.620 -1.9814  2.1613 -0.7677
 2979TIP3   OH230495   2.699   5.931   0.099  0.3144 -0.3799 -0.3189
 2979TIP3    H130496   2.697   6.026   0.106 -0.5193 -0.4088 -0.1364
 2979TIP3    H230497   2.625   5.909   0.043  0.1893 -0.9505  0.0570
 2980TIP3   OH230498   4.090   5.570   0.215 -1.0033  0.0665 -0.4502
 2980TIP3    H130499   4.120   5.532   0.298 -0.6529 -0.6183 -0.8911
 2980TIP3    H230500   4.163   5.557   0.155 -1.1091  0.9055 -0.7772
 2981TIP3   OH230501   0.464   1.248   6.992  0.1353 -0.6689 -0.7615
 2981TIP3    H130502   0.416   1.312   7.044 -1.1419 -2.9218  0.9896
 2981TIP3    H230503   0.418   1.247   6.908  0.7557  1.2766 -1.1970
 2982TIP3   OH230504   0.428   0.234   0.586 -0.4087 -0.5617 -0.0602
 2982TIP3    H130505   0.408   0.141   0.577  0.7182 -1.0599  1.9323
 2982TIP3    H230506   0.376   0.262   0.661  0.5299 -0.0386  0.4197
 2983TIP3   OH230507   6.521   6.694   1.944 -0.3960 -0.0620  0.0101
 2983TIP3    H130508   6.451   6.629   1.941 -0.4578  0.0081 -1.9287
 2983TIP3    H230509   6.601   6.642   1.951 -0.4315 -0.4366 -1.7047
 2984TIP3   OH230510   3.113   3.559   7.390 -0.0614  0.2209 -0.2909
 2984TIP3    H130511   3.169   3.482   7.384  1.5763  1.2161  1.2535
 2984TIP3    H230512   3.172   3.629   7.418 -1.9778  1.4583  0.8230
 2985TIP3   OH230513   3.358   5.707   7.572  0.2708  0.1115  0.0097
 2985TIP3    H130514   3.421   5.635   7.568 -1.0317 -0.9920 -2.6129
 2985TIP3    H230515   3.273   5.665   7.555 -0.8408  1.9653  0.7256
 2986TIP3   OH230516   0.699   4.811   7.165 -0.1487  0.5466 -0.2255
 2986TIP3    H130517   0.668   4.892   7.203 -1.3872 -0.5264  1.1605
 2986TIP3    H230518   0.633   4.788   7.100 -1.0326 -0.4923  1.0028
 2987TIP3   OH230519   5.252   2.382   0.306  0.4214  0.2140 -0.0749
 2987TIP3    H130520   5.312   2.375   0.232  0.9790  0.1619  0.3813
 2987TIP3    H230521   5.272   2.468   0.345  0.2539  0.1628  0.1262
 2988TIP3   OH230522   1.359   6.592   1.919  0.0168 -0.0917  0.0007
 2988TIP3    H130523   1.454   6.584   1.928  0.0100  0.1283  0.2945
 2988TIP3    H230524   1.345   6.675   1.873  0.0326 -1.0322 -1.7614
 2989TIP3   OH230525   3.520   3.853   1.154  0.3542 -0.3892 -0.6294
 2989TIP3    H130526   3.535   3.947   1.141 -0.0624 -0.4203 -1.3685
 2989TIP3    H230527   3.479   3.848   1.241  0.0650  0.1532 -0.7282
 2990TIP3   OH230528   2.256   2.539   8.176  0.3421 -0.3201 -0.2396
 2990TIP3    H130529   2.325   2.552   8.110  2.2141 -0.8619  1.5152
 2990TIP3    H230530   2.292   2.472   8.234 -1.3675 -0.0413  1.1967
 2991TIP3   OH230531   3.546   5.707   6.840 -0.2009  0.2485  0.1762
 2991TIP3    H130532   3.490   5.667   6.773 -0.2165 -1.7583  1.3059
 2991TIP3    H230533   3.629   5.723   6.796 -0.0034 -1.6358 -0.2221
 2992TIP3   OH230534   5.586   4.310   1.959  0.2811  0.0062 -0.7536
 2992TIP3    H130535   5.631   4.386   1.994  0.4717 -0.5330  0.2098
 2992TIP3    H230536   5.600   4.315   1.864  0.5055  1.0199 -0.6708
 2993TIP3   OH230537   3.816   2.074   1.682  0.3020 -0.2945  0.0590
 2993TIP3    H130538   3.821   2.005   1.616 -0.9976 -0.6212  0.2725
 2993TIP3    H230539   3.740   2.051   1.735  0.6872  0.5476  1.0161
 2994TIP3   OH230540   5.990   1.909   7.071  0.3617 -0.0012 -0.5071
 2994TIP3    H130541   6.079   1.873   7.072  0.5846  0.4501 -1.7487
 2994TIP3    H230542   6.001   2.000   7.098  0.2742  0.0476 -0.6368
 2995TIP3   OH230543   0.574   1.162   7.929  0.9247  0.2291  0.2109
 2995TIP3    H130544   0.626   1.236   7.961  1.5122 -0.2778  0.4569
 2995TIP3    H230545   0.603   1.088   7.984  0.0858 -0.1018  0.2131
 2996TIP3   OH230546   1.222   4.767   1.300  0.3418  0.2364  0.4800
 2996TIP3    H130547   1.179   4.707   1.240  0.2800  1.1375 -0.4026
 2996TIP3    H230548   1.170   4.763   1.380 -0.6343  0.3557 -0.1387
 2997TIP3   OH230549   0.218   1.740   7.655 -0.8765  0.3297  0.0464
 2997TIP3    H130550   0.297   1.726   7.708 -0.2440  0.9430 -0.7088
 2997TIP3    H230551   0.246   1.723   7.565 -1.6490  0.4202 -0.2194
 2998TIP3   OH230552   5.720   0.802   0.540  0.4173 -0.3534 -0.4550
 2998TIP3    H130553   5.653   0.837   0.599  1.9109  0.0008  1.0988
 2998TIP3    H230554   5.706   0.707   0.542  0.5114 -0.3557  0.5721
 2999TIP3   OH230555   4.832   3.076   0.686 -0.2567 -0.0158 -0.4163
 2999TIP3    H130556   4.805   3.127   0.762 -0.2869 -0.4467 -0.1320
 2999TIP3    H230557   4.771   3.102   0.616 -1.4155 -0.9656  0.2073
 3000TIP3   OH230558   6.620   1.539   6.327  0.2297  0.2962  0.4044
 3000TIP3    H130559   6.531   1.554   6.359  0.0791 -0.0199  0.1405
 3000TIP3    H230560   6.657   1.626   6.318 -0.7710  0.5829 -1.5302
 3001TIP3   OH230561   1.531   4.071   7.481  0.5586  0.2763 -0.0551
 3001TIP3    H130562   1.495   4.043   7.396 -0.8459  1.8965 -0.0439
 3001TIP3    H230563   1.499   4.005   7.543  1.1166 -0.6059 -0.6748
 3002TIP3   OH230564   2.328   3.487   7.928 -0.5969  0.1406 -0.1268
 3002TIP3    H130565   2.316   3.581   7.921 -0.6423  0.2052  0.6923
 3002TIP3    H230566   2.315   3.468   8.021  3.8620 -0.0182  0.6791
 3003TIP3   OH230567   3.988   1.026   8.677  0.0219 -0.0551  0.1125
 3003TIP3    H130568   3.901   1.040   8.639  0.0133 -0.4251 -0.0049
 3003TIP3    H230569   4.006   1.106   8.726 -0.8140 -0.3658  0.9650
 3004TIP3   OH230570   1.190   1.208   0.145  0.5347 -0.2239  0.3469
 3004TIP3    H130571   1.096   1.225   0.142  0.2203 -1.9307 -1.3393
 3004TIP3    H230572   1.199   1.132   0.202  0.7545 -0.7211 -0.3373
 3005TIP3   OH230573   0.079   4.977   1.115  0.2680 -0.1705  0.7465
 3005TIP3    H130574   0.166   4.965   1.154  0.1704 -3.0422  0.3002
 3005TIP3    H230575   0.094   4.973   1.021 -0.3636 -1.3143  0.6685
 3006TIP3   OH230576   5.963   5.298   1.900  0.8111 -0.0856 -0.3087
 3006TIP3    H130577   5.936   5.377   1.853 -2.2947 -1.0305 -0.3173
 3006TIP3    H230578   5.968   5.325   1.992 -1.8221 -0.1428 -0.0851
 3007TIP3   OH230579   4.697   3.783   1.518  0.5180  0.3789  0.6195
 3007TIP3    H130580   4.753   3.768   1.442  1.6072 -2.2792  1.8092
 3007TIP3    H230581   4.611   3.801   1.482  1.5177  1.6956 -1.2428
 3008TIP3   OH230582   0.028   6.761   2.178  0.4388  0.1516 -0.0662
 3008TIP3    H130583   0.109   6.784   2.134 -0.4432  2.2281 -0.7326
 3008TIP3    H230584   0.040   6.670   2.207  2.0737 -0.3631 -2.1850
 3009TIP3   OH230585   5.967   3.410   0.939  0.6786 -0.3913  0.2792
 3009TIP3    H130586   6.012   3.439   0.860  0.5553  0.4715  0.5140
 3009TIP3    H230587   6.031   3.425   1.010  0.6949 -0.9137  0.3785
 3010TIP3   OH230588   3.776   3.908   1.604 -0.1479 -0.5343 -0.4875
 3010TIP3    H130589   3.733   3.984   1.564  1.3905 -0.4066 -2.0424
 3010TIP3    H230590   3.858   3.900   1.556  0.8203 -1.7523  1.2637
 3011TIP3   OH230591   6.700   0.521   6.807 -0.0627  0.3914 -0.0949
 3011TIP3    H130592   6.620   0.557   6.770 -0.3302 -0.2799 -0.1898
 3011TIP3    H230593   6.670   0.449   6.862  0.5598 -0.6779 -1.1158
 3012TIP3   OH230594   4.106   4.799   7.754  0.2635 -0.2022 -0.3736
 3012TIP3    H130595   4.114   4.868   7.820  0.8992  1.1638 -1.8105
 3012TIP3    H230596   4.166   4.826   7.684  1.8250 -3.0741 -0.2788
 3013TIP3   OH230597   3.995   3.705   1.115 -0.3631 -0.5661 -0.0167
 3013TIP3    H130598   3.941   3.751   1.050 -1.0951  0.1916  1.0873
 3013TIP3    H230599   3.956   3.729   1.199  0.6403 -1.4266  0.7133
 3014TIP3   OH230600   5.788   2.382   7.564  0.6107  0.2364  0.6998
 3014TIP3    H130601   5.741   2.396   7.483  0.1941 -1.2989  0.6645
 3014TIP3    H230602   5.849   2.457   7.569  0.1780  0.7048 -0.6593
 3015TIP3   OH230603   6.169   3.191   0.185 -0.6435  0.0112 -0.1478
 3015TIP3    H130604   6.226   3.167   0.258 -1.7142 -0.7657  0.4613
 3015TIP3    H230605   6.200   3.278   0.159  0.0121  0.1434  0.9694
 3016TIP3   OH230606   1.248   2.240   8.294  0.0435 -0.0041  0.3136
 3016TIP3    H130607   1.290   2.248   8.380  1.2358  0.3334 -0.2790
 3016TIP3    H230608   1.321   2.244   8.232 -0.8718  0.5276 -0.7482
 3017TIP3   OH230609   6.120   6.728   0.618  0.3216  0.4707 -0.4141
 3017TIP3    H130610   6.070   6.673   0.678  2.2441  1.9055  2.7687
 3017TIP3    H230611   6.059   6.796   0.591 -0.7529 -0.5331 -0.6015
 3018TIP3   OH230612   2.277   0.491   1.199  0.1984 -0.0224 -0.5257
 3018TIP3    H130613   2.240   0.487   1.287 -0.9541  0.5180 -0.9731
 3018TIP3    H230614   2.298   0.400   1.177 -0.3641 -0.2709 -0.0459
 3019TIP3   OH230615   1.782   5.650   0.746 -0.1340  0.3709  0.3146
 3019TIP3    H130616   1.768   5.675   0.837  1.5673 -1.9519  1.3400
 3019TIP3    H230617   1.861   5.595   0.748 -1.2166 -1.5123 -2.2147
 3020TIP3   OH230618   0.998   4.420   7.710  0.1002 -0.1030  0.3091
 3020TIP3    H130619   1.050   4.438   7.632 -0.5344  2.6576  0.4149
 3020TIP3    H230620   0.975   4.328   7.703  1.9559 -0.5043 -1.5662
 3021TIP3   OH230621   0.297   2.710   7.340 -0.2704  0.7422 -0.3380
 3021TIP3    H130622   0.236   2.645   7.375 -1.8580  2.1524 -0.3498
 3021TIP3    H230623   0.304   2.777   7.408 -0.0073  1.3957 -0.9856
 3022TIP3   OH230624   5.777   6.652   6.168 -0.4694 -0.4553  0.7319
 3022TIP3    H130625   5.790   6.723   6.106 -0.8154  1.1545  2.3901
 3022TIP3    H230626   5.683   6.635   6.166 -0.1414 -2.3353 -1.1257
 3023TIP3   OH230627   1.225   4.126   0.413 -0.4877  0.4141  0.2759
 3023TIP3    H130628   1.233   4.222   0.416  0.5593  0.3186  1.2393
 3023TIP3    H230629   1.315   4.095   0.401 -0.7199 -0.4668  0.7349
 3024TIP3   OH230630   1.481   1.227   1.098 -0.6391  0.3233 -0.4894
 3024TIP3    H130631   1.467   1.322   1.104 -4.2516 -0.1348  0.6727
 3024TIP3    H230632   1.493   1.211   1.005 -0.6296  1.8446 -0.7816
 3025TIP3   OH230633   0.489   6.400   7.985  0.0612  0.1056 -0.0177
 3025TIP3    H130634   0.579   6.367   7.978  0.1312  0.1742  0.4781
 3025TIP3    H230635   0.437   6.342   7.930  0.6045  0.8475 -1.3465
 3026TIP3   OH230636   5.728   0.441   8.560 -1.0313  0.7189  0.1186
 3026TIP3    H130637   5.793   0.403   8.618 -3.1532  1.1867  3.0249
 3026TIP3    H230638   5.742   0.396   8.476  2.5837  0.4559  0.6930
 3027TIP3   OH230639   5.199   5.572   7.329  0.5163 -0.6686 -0.0811
 3027TIP3    H130640   5.160   5.524   7.257 -1.4735 -1.4461  1.4037
 3027TIP3    H230641   5.245   5.645   7.287 -2.2019  0.0846 -2.1071
 3028TIP3   OH230642   5.596   3.473   7.005 -0.2518  0.3742  0.0233
 3028TIP3    H130643   5.656   3.400   7.023 -0.1434  0.2000 -0.9838
 3028TIP3    H230644   5.513   3.430   6.982 -0.7082  0.6092  1.1123
 3029TIP3   OH230645   4.713   4.902   0.512 -0.2508 -0.2870 -0.3295
 3029TIP3    H130646   4.728   4.821   0.561 -1.1372 -0.4173 -0.2706
 3029TIP3    H230647   4.720   4.875   0.420  1.4368 -0.0371 -0.3160
 3030TIP3   OH230648   1.858   6.711   0.548  0.2313  0.7645  0.1415
 3030TIP3    H130649   1.908   6.647   0.497  2.3427  0.5334  2.3074
 3030TIP3    H230650   1.856   6.789   0.493  0.4509 -0.1305 -1.2004
 3031TIP3   OH230651   5.132   1.767   7.396 -0.0143 -0.0092 -0.2129
 3031TIP3    H130652   5.073   1.692   7.403  0.4693 -0.4619 -0.8502
 3031TIP3    H230653   5.210   1.732   7.353 -0.0364  1.0027 -1.1316
 3032TIP3   OH230654   1.899   4.290   7.698 -0.5884  0.1957  0.3214
 3032TIP3    H130655   1.879   4.257   7.610 -1.0800 -0.0442  0.5199
 3032TIP3    H230656   1.838   4.243   7.756 -0.5784  0.6880  0.7343
 3033TIP3   OH230657   5.232   4.030   0.868 -0.2613 -0.3568 -0.2932
 3033TIP3    H130658   5.184   3.948   0.872 -0.3460 -0.2965 -0.0348
 3033TIP3    H230659   5.219   4.070   0.954 -1.4607  0.6230 -0.8997
 3034TIP3   OH230660   0.766   0.964   0.445  0.1846 -0.1016  0.7184
 3034TIP3    H130661   0.694   0.918   0.402 -0.1205 -0.0556  1.1776
 3034TIP3    H230662   0.840   0.903   0.439  0.5823  0.5182 -1.2263
 3035TIP3   OH230663   4.488   4.917   8.620  0.0512  0.2175  0.5387
 3035TIP3    H130664   4.578   4.949   8.624 -0.3218  1.1825  1.7293
 3035TIP3    H230665   4.450   4.941   8.704 -1.3499 -0.1072  0.0242
 3036TIP3   OH230666   3.436   6.062   1.942  0.9951 -0.7383 -0.0115
 3036TIP3    H130667   3.360   6.115   1.969  1.8204  1.2664 -1.3484
 3036TIP3    H230668   3.412   6.027   1.857  1.0254 -1.2771  0.2028
 3037TIP3   OH230669   2.942   4.528   6.660 -0.3821 -0.7549 -0.2031
 3037TIP3    H130670   3.004   4.482   6.604 -1.4187 -0.4294 -1.6759
 3037TIP3    H230671   2.996   4.574   6.724  0.8223 -1.2796 -0.8222
 3038TIP3   OH230672   1.672   5.223   7.686 -0.2239  0.3736 -0.1949
 3038TIP3    H130673   1.655   5.308   7.644 -0.7961  0.3531  0.0003
 3038TIP3    H230674   1.602   5.166   7.655  0.4474 -0.1802 -0.7313
 3039TIP3   OH230675   2.486   4.634   6.940 -0.1178  0.6232  0.5107
 3039TIP3    H130676   2.533   4.608   7.019  1.1625  1.8732  0.1952
 3039TIP3    H230677   2.509   4.567   6.875  0.2750  0.5880  0.6843
 3040TIP3   OH230678   0.322   5.818   8.572  0.2364  0.3035 -0.2969
 3040TIP3    H130679   0.381   5.848   8.503 -0.2644  0.7756 -0.5354
 3040TIP3    H230680   0.379   5.778   8.637  0.7530  0.1622 -0.8256
 3041TIP3   OH230681   6.404   5.417   0.898 -0.1603  0.1005 -0.1645
 3041TIP3    H130682   6.406   5.329   0.935 -1.2125  1.0010  2.2470
 3041TIP3    H230683   6.474   5.464   0.944 -0.0808  0.7206 -0.9011
 3042TIP3   OH230684   4.036   0.799   7.689 -0.2413  0.5857 -0.3617
 3042TIP3    H130685   3.981   0.731   7.651  0.2589  0.2863 -0.5606
 3042TIP3    H230686   3.990   0.881   7.671 -0.2365  0.4106 -1.2188
 3043TIP3   OH230687   0.363   6.356   8.538  0.0748 -0.5547 -0.1415
 3043TIP3    H130688   0.297   6.424   8.556  0.7835  0.0056  0.4181
 3043TIP3    H230689   0.444   6.405   8.524  0.3873 -1.2397 -0.7629
 3044TIP3   OH230690   0.796   0.252   8.217  0.4338  0.6651  0.1000
 3044TIP3    H130691   0.736   0.262   8.291  0.7702 -0.3249  0.5309
 3044TIP3    H230692   0.740   0.258   8.139 -0.4661 -1.4392  0.5108
 3045TIP3   OH230693   0.208   4.266   0.602 -0.5184 -0.6239  0.6719
 3045TIP3    H130694   0.169   4.200   0.544 -0.4336  1.4207 -1.8814
 3045TIP3    H230695   0.277   4.306   0.550 -0.5400  1.4626  2.1379
 3046TIP3   OH230696   5.526   6.700   0.312  0.0188 -0.7344 -0.8206
 3046TIP3    H130697   5.507   6.657   0.228  0.0811 -0.9591 -0.7204
 3046TIP3    H230698   5.480   6.783   0.307 -0.5127 -1.0240 -0.8128
 3047TIP3   OH230699   2.876   2.709   8.474 -0.7386 -0.2313 -0.2298
 3047TIP3    H130700   2.924   2.656   8.537  1.7537 -0.2178 -2.0049
 3047TIP3    H230701   2.873   2.796   8.514  0.2448 -0.3675  0.1603
 3048TIP3   OH230702   0.992   4.961   7.101 -0.0339  0.0060 -0.4053
 3048TIP3    H130703   1.023   5.051   7.096 -0.0370  0.0320 -0.0126
 3048TIP3    H230704   0.902   4.964   7.069  0.4932 -0.1409 -1.9569
 3049TIP3   OH230705   1.156   4.617   1.075  0.4108  0.2121  0.1558
 3049TIP3    H130706   1.062   4.637   1.074  0.5892  1.3100  1.8214
 3049TIP3    H230707   1.164   4.539   1.130  0.4516 -0.1022 -0.2888
 3050TIP3   OH230708   3.015   4.767   7.158  0.9921  0.2871  0.0272
 3050TIP3    H130709   3.105   4.770   7.191  1.0468 -3.0300  0.5447
 3050TIP3    H230710   2.964   4.733   7.232 -0.1806 -0.3944 -1.0685
 3051TIP3   OH230711   5.085   5.923   7.269 -0.1637 -0.3460 -0.4196
 3051TIP3    H130712   5.083   5.934   7.364  0.6327 -0.3785 -0.3924
 3051TIP3    H230713   5.001   5.883   7.248 -1.5477  2.1619 -0.0595
 3052TIP3   OH230714   4.060   5.393   7.907  0.3309  0.2497 -0.2984
 3052TIP3    H130715   4.094   5.398   7.817  1.1637 -0.2335 -0.0130
 3052TIP3    H230716   4.048   5.485   7.932 -0.1666  0.3889 -0.9903
 3053TIP3   OH230717   3.491   6.143   1.615  0.4687 -0.7438  0.0471
 3053TIP3    H130718   3.399   6.167   1.630  0.9019  0.4573  0.9270
 3053TIP3    H230719   3.494   6.049   1.634 -0.4513 -0.6653  0.6594
 3054TIP3   OH230720   2.695   6.258   0.723  0.4134  0.0714 -0.4096
 3054TIP3    H130721   2.687   6.196   0.796 -1.9463  1.2169  0.4044
 3054TIP3    H230722   2.762   6.219   0.667 -0.6979 -3.0727  0.2184
 3055TIP3   OH230723   5.182   6.557   8.550  0.3096 -0.0947 -0.1086
 3055TIP3    H130724   5.202   6.648   8.530 -0.0013 -0.3345 -1.6200
 3055TIP3    H230725   5.107   6.562   8.609  0.3220  0.6298 -0.1461
 3056TIP3   OH230726   6.025   0.689   7.222  0.3542 -0.0214 -0.1099
 3056TIP3    H130727   6.099   0.669   7.280 -0.2236 -0.4725  0.4807
 3056TIP3    H230728   5.948   0.669   7.274 -0.1976  0.7436 -0.6206
 3057TIP3   OH230729   2.206   5.572   7.562  0.3111 -0.4172  0.1985
 3057TIP3    H130730   2.180   5.586   7.653 -0.4713  0.0002 -0.0788
 3057TIP3    H230731   2.172   5.648   7.515  1.6479 -0.0833 -0.2775
 3058TIP3   OH230732   3.849   3.532   6.747 -0.3382 -0.4292 -0.0802
 3058TIP3    H130733   3.934   3.494   6.723  0.2569 -0.2364  1.5405
 3058TIP3    H230734   3.870   3.623   6.772 -1.5227  0.6003 -2.5571
 3059TIP3   OH230735   3.914   4.045   6.855 -0.6437  0.0845  0.6974
 3059TIP3    H130736   3.854   4.083   6.790  0.2456 -2.1172 -1.6096
 3059TIP3    H230737   3.978   4.114   6.871 -1.0550  0.8072 -0.5873
 3060TIP3   OH230738   2.654   5.195   1.777 -0.0505 -0.1968  0.7889
 3060TIP3    H130739   2.739   5.164   1.808 -0.4664 -2.5653 -0.2979
 3060TIP3    H230740   2.670   5.225   1.687 -0.0029  1.2378  1.2505
 3061TIP3   OH230741   0.311   0.767   8.680 -0.9465  0.1697  0.1446
 3061TIP3    H130742   0.285   0.857   8.663 -0.3344  0.4749  0.7698
 3061TIP3    H230743   0.295   0.755   8.774  0.6924  0.2254  0.4560
 3062TIP3   OH230744   2.901   5.995   8.202  0.1952  0.1675 -0.1855
 3062TIP3    H130745   2.916   5.907   8.235  0.1555 -0.1756 -1.0535
 3062TIP3    H230746   2.853   5.982   8.120 -1.0821  1.0502  0.3767
 3063TIP3   OH230747   2.222   4.083   0.033  0.6002  0.1994  0.7002
 3063TIP3    H130748   2.240   4.039   0.116  1.2729  0.4803  0.7053
 3063TIP3    H230749   2.234   4.015  -0.033  1.3203  0.2929  0.7329
 3064TIP3   OH230750   6.029   0.765   1.023 -0.7017 -0.0060 -0.2766
 3064TIP3    H130751   6.097   0.750   0.958  1.0375 -0.3479  1.5207
 3064TIP3    H230752   6.060   0.840   1.074 -2.0974  0.3643  0.0603
 3065TIP3   OH230753   4.956   5.956   0.571  0.4693 -0.0266  0.0660
 3065TIP3    H130754   4.878   5.988   0.526  1.1811  4.2209  1.3323
 3065TIP3    H230755   4.941   5.979   0.663  3.5545  2.1433  0.1760
 3066TIP3   OH230756   2.999   1.586   1.976 -0.2515  0.4117 -0.2602
 3066TIP3    H130757   2.943   1.525   2.024  0.4283 -0.1122 -0.1173
 3066TIP3    H230758   2.961   1.672   1.993 -0.4636  0.1555  0.6031
 3067TIP3   OH230759   4.319   2.836   0.097 -0.0857 -0.6128  0.3409
 3067TIP3    H130760   4.231   2.831   0.060 -0.0073  0.4114 -0.0234
 3067TIP3    H230761   4.306   2.879   0.182  0.4597  3.7061 -1.5115
 3068TIP3   OH230762   1.959   5.727   8.356  0.1536  0.3502  0.6890
 3068TIP3    H130763   1.870   5.754   8.334  0.9542  1.6244 -1.1791
 3068TIP3    H230764   2.010   5.743   8.277  1.9537 -0.9169  1.5163
 3069TIP3   OH230765   0.523   5.081   0.113  0.0063 -0.0230  0.9517
 3069TIP3    H130766   0.460   5.052   0.178  0.2551  0.5108  1.4330
 3069TIP3    H230767   0.584   5.007   0.104 -0.8061 -0.6302  0.3097
 3070TIP3   OH230768   6.027   2.884   8.280  0.0646  0.4253 -0.0097
 3070TIP3    H130769   5.953   2.944   8.289 -0.1139  0.3994 -1.1213
 3070TIP3    H230770   6.074   2.891   8.363 -1.1106  0.5361  0.6705
 3071TIP3   OH230771   4.593   4.991   0.162  0.8989 -0.0857  0.3525
 3071TIP3    H130772   4.564   5.076   0.197  1.0216  0.4011 -0.6971
 3071TIP3    H230773   4.566   4.992   0.071 -1.2167 -2.1918  0.8637
 3072TIP3   OH230774   1.959   0.557   1.653 -0.3238  0.2234  0.7601
 3072TIP3    H130775   1.881   0.582   1.603  0.5612  0.2874 -0.6350
 3072TIP3    H230776   1.969   0.463   1.637 -0.2160  0.1775  1.0903
 3073TIP3   OH230777   3.268   5.959   8.127 -0.1433  0.3044  0.1311
 3073TIP3    H130778   3.190   5.910   8.155  1.2122 -1.5749  0.7859
 3073TIP3    H230779   3.288   5.923   8.040  0.9279 -0.4299  0.6656
 3074TIP3   OH230780   3.672   3.365   7.050  0.0484 -0.0578  0.0083
 3074TIP3    H130781   3.685   3.402   7.137 -0.5899 -0.9573  0.5127
 3074TIP3    H230782   3.577   3.354   7.043  0.2196 -1.7996 -0.0059
 3075TIP3   OH230783   4.967   3.541   0.553 -0.2459  0.5730 -0.3832
 3075TIP3    H130784   4.874   3.525   0.540 -0.2887  0.2145  0.3317
 3075TIP3    H230785   4.994   3.476   0.617  1.2346 -1.5125 -2.9279
 3076TIP3   OH230786   2.712   2.609   0.144 -0.1035 -0.4626  0.8690
 3076TIP3    H130787   2.766   2.560   0.082  1.0159  0.8208  0.7853
 3076TIP3    H230788   2.625   2.570   0.135 -0.0140 -0.2713 -1.5899
 3077TIP3   OH230789   2.564   3.094   0.828  0.0668 -0.1325 -0.2107
 3077TIP3    H130790   2.564   3.179   0.785  1.0543 -0.2804 -0.5198
 3077TIP3    H230791   2.478   3.089   0.871  0.4785  1.5870  0.9252
 3078TIP3   OH230792   0.122   5.627   8.369 -0.5485 -0.7498  0.7137
 3078TIP3    H130793   0.130   5.532   8.376 -0.1745 -0.7263  0.6190
 3078TIP3    H230794   0.068   5.652   8.445  1.3001 -0.7917  2.1258
 3079TIP3   OH230795   3.035   4.866   0.865  0.3997  0.4060 -0.9760
 3079TIP3    H130796   3.032   4.914   0.782 -1.1535 -1.6778 -2.2422
 3079TIP3    H230797   3.125   4.834   0.871  1.3700  3.0415 -0.2669
 3080TIP3   OH230798   2.008   3.799   0.317  0.2590 -0.0189  0.6509
 3080TIP3    H130799   2.034   3.825   0.405 -2.0435  1.0093  1.0998
 3080TIP3    H230800   1.931   3.743   0.329  0.3446 -0.4708 -0.6793
 3081TIP3   OH230801   2.671   3.275   8.524  0.2980 -0.3940  0.1631
 3081TIP3    H130802   2.635   3.259   8.611 -0.5871 -3.0906 -0.5867
 3081TIP3    H230803   2.620   3.349   8.490 -0.7422 -0.6109  1.1833
 3082TIP3   OH230804   4.164   2.342   6.711 -0.7392  0.2249  0.0332
 3082TIP3    H130805   4.103   2.416   6.709 -0.7683  0.2609  1.3752
 3082TIP3    H230806   4.246   2.379   6.676 -1.5343  0.0679 -2.1624
 3083TIP3   OH230807   4.435   0.726   8.717  0.6488  0.0406 -0.7891
 3083TIP3    H130808   4.412   0.802   8.771  0.8617 -0.7612  0.4668
 3083TIP3    H230809   4.528   0.713   8.733  1.2218  1.0004 -2.9549
 3084TIP3   OH230810   3.313   2.129   7.646 -0.3330  0.2510 -0.0733
 3084TIP3    H130811   3.350   2.042   7.631  0.5746  0.4217  0.9982
 3084TIP3    H230812   3.226   2.127   7.605  1.1165  0.0927 -3.4096
 3085TIP3   OH230813   0.024   0.671   7.951  0.0999  0.2578 -0.2248
 3085TIP3    H130814   0.036   0.766   7.955  0.1223  0.2573 -0.2705
 3085TIP3    H230815   0.098   0.636   8.000 -1.0252  0.3116  1.5883
 3086TIP3   OH230816   4.084   2.541   1.400 -0.0680 -0.4895  0.2530
 3086TIP3    H130817   4.135   2.500   1.470 -0.4712  1.0854  1.5515
 3086TIP3    H230818   4.149   2.569   1.335  0.6614  0.4806  1.3419
 3087TIP3   OH230819   4.246   4.163   1.179  0.1543 -0.0017 -0.7936
 3087TIP3    H130820   4.239   4.090   1.117  0.4186 -0.0317 -0.7887
 3087TIP3    H230821   4.156   4.176   1.211 -0.3255  1.0825 -2.4082
 3088TIP3   OH230822   0.914   4.826   8.683  0.1261 -0.2739 -0.2907
 3088TIP3    H130823   0.967   4.746   8.690  0.8134  0.2709  1.0725
 3088TIP3    H230824   0.973   4.896   8.711 -0.5872  0.6701 -1.0948
 3089TIP3   OH230825   4.020   5.522   1.295  0.1119  0.2482  0.1530
 3089TIP3    H130826   4.015   5.430   1.268  0.9479  0.3663 -0.4275
 3089TIP3    H230827   3.941   5.535   1.348 -0.1311 -0.7414  0.0601
 3090TIP3   OH230828   2.082   4.511   6.712  0.6487  0.1445 -0.3599
 3090TIP3    H130829   2.078   4.602   6.743  1.5825 -0.3703  1.3814
 3090TIP3    H230830   2.121   4.462   6.785 -0.2628 -1.7529 -1.0841
 3091TIP3   OH230831   2.768   4.413   6.948 -0.2431  0.0332 -0.0623
 3091TIP3    H130832   2.853   4.456   6.955 -0.4108  0.4478 -0.5186
 3091TIP3    H230833   2.739   4.431   6.859 -1.7098  1.6396  0.6616
 3092TIP3   OH230834   0.392   2.614   6.806  0.3437  0.7370 -0.2072
 3092TIP3    H130835   0.457   2.555   6.844 -0.4889 -0.7785 -1.0219
 3092TIP3    H230836   0.354   2.660   6.881  0.0813 -0.7560  0.6152
 3093TIP3   OH230837   3.793   2.403   6.727 -0.1621  0.9056  0.2696
 3093TIP3    H130838   3.786   2.399   6.822  0.3178  0.9677  0.3060
 3093TIP3    H230839   3.861   2.468   6.710 -0.1914  0.8400 -0.1157
 3094TIP3   OH230840   6.192   4.184   6.891 -0.0844  0.1360  0.5517
 3094TIP3    H130841   6.254   4.256   6.907 -0.4711  0.2055  1.8745
 3094TIP3    H230842   6.136   4.217   6.821  1.5183 -0.0410 -0.8930
 3095TIP3   OH230843   3.480   2.039   1.226 -0.2365  0.3769  0.0858
 3095TIP3    H130844   3.524   2.032   1.141  1.2187 -0.9956  0.8913
 3095TIP3    H230845   3.493   2.130   1.253  0.4969  0.4713 -0.5428
 3096TIP3   OH230846   5.622   5.740   7.824 -0.2088 -0.3567  0.1651
 3096TIP3    H130847   5.604   5.826   7.862 -1.2243 -1.6078  2.7558
 3096TIP3    H230848   5.700   5.754   7.770 -1.0602  2.4157 -0.5166
 3097TIP3   OH230849   1.647   0.192   7.463  0.3583  0.0732  0.2072
 3097TIP3    H130850   1.623   0.099   7.456  1.3325 -0.1585 -0.1438
 3097TIP3    H230851   1.635   0.212   7.556 -0.4839 -0.2173  0.1745
 3098TIP3   OH230852   2.382   3.650   1.341 -0.3115  0.0190 -0.2835
 3098TIP3    H130853   2.473   3.642   1.368 -0.4332 -0.1856  0.0608
 3098TIP3    H230854   2.371   3.583   1.273 -0.6325 -1.0381  0.7832
 3099TIP3   OH230855   5.745   2.765   7.331  0.0378 -0.2505 -0.4552
 3099TIP3    H130856   5.660   2.743   7.367  0.2326 -1.2618 -0.5849
 3099TIP3    H230857   5.726   2.807   7.247 -0.3929  1.5475  0.4812
 3100TIP3   OH230858   0.059   5.573   1.010 -0.8033  0.6947 -0.7449
 3100TIP3    H130859   0.129   5.509   1.006 -0.2463  1.3541 -2.3195
 3100TIP3    H230860   0.069   5.615   1.095  0.9176  0.9864 -1.0615
 3101TIP3   OH230861   0.168   4.167   7.779 -0.7255  0.2132 -0.4465
 3101TIP3    H130862   0.076   4.188   7.763 -0.5863  1.7478  0.6647
 3101TIP3    H230863   0.186   4.094   7.719 -2.6947 -0.2213 -0.5641
 3102TIP3   OH230864   5.397   3.246   0.292 -0.1993 -0.3264  0.1570
 3102TIP3    H130865   5.304   3.236   0.272  0.1018 -0.7735 -1.1755
 3102TIP3    H230866   5.432   3.157   0.291  0.0821 -0.2479  1.5881
 3103TIP3   OH230867   2.414   6.285   7.524 -0.0576 -0.1246  0.3737
 3103TIP3    H130868   2.481   6.216   7.528  1.3066  0.9543 -2.0251
 3103TIP3    H230869   2.458   6.360   7.485 -2.1266  1.3669  0.7258
 3104TIP3   OH230870   1.284   0.521   1.284 -0.3238 -0.2247  0.1284
 3104TIP3    H130871   1.298   0.548   1.375  1.3335 -0.7864  0.0721
 3104TIP3    H230872   1.197   0.482   1.284 -0.3719 -0.1760  1.4617
 3105TIP3   OH230873   2.085   0.097   1.485  0.1282 -0.1145 -0.2147
 3105TIP3    H130874   2.059   0.116   1.396 -1.1256  0.4784  0.2589
 3105TIP3    H230875   2.177   0.125   1.490 -0.0989  0.7942 -1.0220
 3106TIP3   OH230876   1.882   1.397   8.444 -0.0604  0.7342 -0.3894
 3106TIP3    H130877   1.829   1.471   8.474  0.5042  0.5202  1.2677
 3106TIP3    H230878   1.929   1.430   8.367 -1.2878  1.4500 -0.8500
 3107TIP3   OH230879   4.822   2.604   1.094  0.3593 -0.4727  0.2772
 3107TIP3    H130880   4.844   2.694   1.118  0.2097 -0.1841 -0.6077
 3107TIP3    H230881   4.829   2.555   1.175  1.0540  0.2233  0.6510
 3108TIP3   OH230882   3.045   2.632   7.424 -0.0172  0.3160 -0.1589
 3108TIP3    H130883   3.067   2.540   7.437 -0.0720  0.3706  0.3405
 3108TIP3    H230884   3.010   2.660   7.508  0.2457  0.8631 -0.2281
 3109TIP3   OH230885   5.153   5.553   2.154  0.1619  0.7754  0.7610
 3109TIP3    H130886   5.069   5.598   2.146 -0.1786 -0.0522 -0.8585
 3109TIP3    H230887   5.159   5.500   2.074  0.7367 -1.7009  2.3279
 3110TIP3   OH230888   6.721   1.687   7.135  0.1948 -0.2936  0.1737
 3110TIP3    H130889   6.665   1.710   7.209 -0.1229  3.2727 -1.0256
 3110TIP3    H230890   6.670   1.711   7.057  1.6232 -1.3208 -1.1448
 3111TIP3   OH230891   4.172   3.275   7.201  0.2564  0.2417  0.0968
 3111TIP3    H130892   4.139   3.257   7.113 -0.8108  0.0940  0.5239
 3111TIP3    H230893   4.182   3.371   7.203  1.6561  0.1376 -0.6522
 3112TIP3   OH230894   4.737   0.943   2.407  0.2702 -0.3875  0.3772
 3112TIP3    H130895   4.827   0.910   2.411 -0.2334 -1.9503 -0.5008
 3112TIP3    H230896   4.686   0.871   2.369 -1.3766  0.4312  0.9273
 3113TIP3   OH230897   5.649   5.520   1.196  0.3292 -0.4692  0.1803
 3113TIP3    H130898   5.716   5.571   1.241 -1.4246  1.7612  0.4653
 3113TIP3    H230899   5.575   5.518   1.257 -0.9387 -0.1782 -1.2801
 3114TIP3   OH230900   5.076   3.153   0.870 -0.1257  0.2071  0.0406
 3114TIP3    H130901   5.071   3.059   0.886 -2.9295  0.4528  1.0904
 3114TIP3    H230902   5.170   3.172   0.871  0.5961 -2.6872 -1.1569
 3115TIP3   OH230903   2.704   5.083   0.793 -0.2852  0.0931 -0.0834
 3115TIP3    H130904   2.734   5.037   0.871 -1.0943  0.5266  0.4963
 3115TIP3    H230905   2.756   5.045   0.722 -1.3267 -2.2065  0.2662
 3116TIP3   OH230906   2.090   0.494   1.402  1.0513 -0.2112  0.1900
 3116TIP3    H130907   2.011   0.447   1.426  1.2110 -0.7004 -0.2244
 3116TIP3    H230908   2.083   0.578   1.447 -0.3753  0.3131 -0.9537
 3117TIP3   OH230909   1.974   0.698   6.450  0.2108 -0.4401 -0.3809
 3117TIP3    H130910   2.055   0.725   6.493  0.4496  0.1405 -1.1786
 3117TIP3    H230911   2.003   0.640   6.379  0.2270  2.0085 -2.5194
 3118TIP3   OH230912   3.422   2.256   0.862  0.3208 -0.7725  0.3876
 3118TIP3    H130913   3.378   2.294   0.786 -0.2608  0.2399  1.1990
 3118TIP3    H230914   3.493   2.317   0.881 -0.9282  0.2604  2.0099
 3119TIP3   OH230915   0.257   0.212   6.673  0.1131 -0.4310  0.3988
 3119TIP3    H130916   0.266   0.264   6.594 -0.5234 -1.1561 -0.1676
 3119TIP3    H230917   0.321   0.142   6.665 -1.4882 -1.8724 -0.6248
 3120TIP3   OH230918   2.270   6.135   6.872  0.4265  0.4874  0.2584
 3120TIP3    H130919   2.325   6.122   6.795 -2.0317 -0.0770 -1.5124
 3120TIP3    H230920   2.256   6.230   6.876  2.1741  0.7528  1.2903
 3121TIP3   OH230921   5.616   0.156   7.686  0.5418 -0.2976  0.3426
 3121TIP3    H130922   5.525   0.178   7.667  0.8391  0.0222 -0.8069
 3121TIP3    H230923   5.637   0.208   7.764 -0.1099  0.0039  0.3245
 3122TIP3   OH230924   1.787   0.285   8.809 -0.1495  0.3364 -0.1295
 3122TIP3    H130925   1.748   0.200   8.788 -0.7338  0.1467  1.5622
 3122TIP3    H230926   1.745   0.310   8.891  2.0059  0.9816  0.8267
 3123TIP3   OH230927   4.753   6.219   6.774  0.0406 -0.4179 -0.0804
 3123TIP3    H130928   4.828   6.205   6.832 -1.2508 -0.3998  1.6801
 3123TIP3    H230929   4.780   6.290   6.716  1.0531  0.2392  1.1483
 3124TIP3   OH230930   3.727   0.574   1.220 -0.4251 -0.4842 -0.1038
 3124TIP3    H130931   3.649   0.630   1.214 -0.6085 -0.7314 -0.0731
 3124TIP3    H230932   3.801   0.635   1.219 -0.5840 -0.2924 -1.0680
 3125TIP3   OH230933   2.721   4.206   7.800 -0.3845 -0.0398 -0.3782
 3125TIP3    H130934   2.681   4.291   7.782  0.6037  0.3283 -0.9192
 3125TIP3    H230935   2.795   4.201   7.739  0.9448 -0.2823  1.1785
 3126TIP3   OH230936   5.999   2.980   1.682  1.3711 -0.1562 -0.0581
 3126TIP3    H130937   5.967   2.996   1.593  1.4859 -0.6040 -0.1828
 3126TIP3    H230938   5.949   3.041   1.737  1.9025  0.7228 -0.5267
 3127TIP3   OH230939   4.677   2.891   8.509  0.4775  0.5595 -0.1345
 3127TIP3    H130940   4.720   2.812   8.477  0.4612  0.8844 -0.9850
 3127TIP3    H230941   4.611   2.911   8.442  0.3515  1.1837  0.1703
 3128TIP3   OH230942   0.998   2.715   8.635 -0.2670 -0.5518  0.6277
 3128TIP3    H130943   0.912   2.694   8.672 -0.1920 -0.0838  1.0827
 3128TIP3    H230944   1.056   2.719   8.711  0.6847 -3.1770  0.1601
 3129TIP3   OH230945   3.363   3.668   7.889  0.4725 -0.8142 -0.0929
 3129TIP3    H130946   3.370   3.705   7.977 -1.4296 -3.1206  1.1331
 3129TIP3    H230947   3.443   3.615   7.880  0.5939 -0.7081  0.3064
 3130TIP3   OH230948   0.617   1.734   8.500 -0.3042  0.3848  0.2047
 3130TIP3    H130949   0.658   1.768   8.420 -2.5525  0.3490 -1.0349
 3130TIP3    H230950   0.566   1.658   8.472 -0.1185 -0.4347  1.9228
 3131TIP3   OH230951   1.564   5.885   7.748  0.2789  0.2355  0.0909
 3131TIP3    H130952   1.556   5.836   7.666  0.1592  1.1981 -0.4835
 3131TIP3    H230953   1.643   5.938   7.738 -0.5574  1.4991 -0.0356
 3132TIP3   OH230954   1.545   3.398   6.857  0.2937  0.5876  0.3971
 3132TIP3    H130955   1.511   3.324   6.907 -1.4978  1.2499  0.2179
 3132TIP3    H230956   1.606   3.359   6.794 -0.4352 -0.7075  0.4719
 3133TIP3   OH230957   1.206   3.162   0.131  0.6954 -0.7999 -0.0378
 3133TIP3    H130958   1.118   3.134   0.105  0.0256  1.3908 -0.3445
 3133TIP3    H230959   1.265   3.096   0.095 -0.8313 -2.4590  0.4016
 3134TIP3   OH230960   3.918   5.046   7.728  0.4908  0.1848  0.6736
 3134TIP3    H130961   3.975   5.062   7.803  1.7092  0.0419 -0.1916
 3134TIP3    H230962   3.966   5.080   7.653 -1.5068  2.0845  0.1374
 3135TIP3   OH230963   4.258   2.186   1.990 -0.0687 -0.2916 -0.8818
 3135TIP3    H130964   4.277   2.279   1.991  2.6530 -0.7360 -2.3969
 3135TIP3    H230965   4.314   2.148   2.057  1.1905 -1.1517 -2.3646
 3136TIP3   OH230966   0.544   6.440   0.860  0.4914  0.4478  0.3537
 3136TIP3    H130967   0.533   6.533   0.881 -0.7239  0.1754  1.0181
 3136TIP3    H230968   0.492   6.427   0.781 -1.5664 -0.1879  1.7368
 3137TIP3   OH230969   6.381   0.667   8.625 -0.2126  0.4475  0.0279
 3137TIP3    H130970   6.401   0.576   8.647  0.6636  0.8196  0.8751
 3137TIP3    H230971   6.387   0.713   8.709 -0.8074  1.2606 -0.3639
 3138TIP3   OH230972   6.327   4.134   7.430 -0.2363 -0.0609 -0.0436
 3138TIP3    H130973   6.338   4.106   7.521  3.8309 -3.1994 -1.1909
 3138TIP3    H230974   6.385   4.210   7.422  0.0238 -0.2660 -0.1434
 3139TIP3   OH230975   4.524   3.923   0.887  0.0486 -0.3278  0.2114
 3139TIP3    H130976   4.499   4.005   0.844 -0.0995 -0.2653  0.4139
 3139TIP3    H230977   4.587   3.949   0.954 -0.4496 -0.3011  0.6759
 3140TIP3   OH230978   3.362   1.750   1.646 -0.1771  0.9534  0.0639
 3140TIP3    H130979   3.318   1.696   1.712 -0.8455 -0.2664 -1.3118
 3140TIP3    H230980   3.306   1.827   1.637 -1.5533 -0.1169 -0.9381
 3141TIP3   OH230981   4.946   1.614   7.577  0.7427  0.4745 -0.0243
 3141TIP3    H130982   4.995   1.689   7.611  2.2583  0.1113 -1.3045
 3141TIP3    H230983   4.863   1.616   7.625  1.0750  2.4783  0.5524
 3142TIP3   OH230984   5.386   5.977   1.713  0.0328  0.1218  0.2535
 3142TIP3    H130985   5.413   5.889   1.686  0.1204  0.3937 -0.5793
 3142TIP3    H230986   5.429   5.991   1.797  2.9257  0.6854 -1.1742
 3143TIP3   OH230987   5.943   0.925   7.103 -0.9896  0.3752 -0.0136
 3143TIP3    H130988   5.904   0.922   7.016 -0.2497 -0.9238 -0.3189
 3143TIP3    H230989   5.968   0.835   7.122 -1.0590  0.6524  1.5190
 3144TIP3   OH230990   6.143   5.482   7.495 -0.5048 -0.3400  0.1264
 3144TIP3    H130991   6.176   5.554   7.549  0.6620 -0.8321  0.1036
 3144TIP3    H230992   6.097   5.525   7.423  0.3608  0.3959 -0.0080
 3145TIP3   OH230993   4.552   4.148   8.310  0.6885  0.0483 -0.4291
 3145TIP3    H130994   4.601   4.186   8.382  0.3630 -0.2925 -0.0213
 3145TIP3    H230995   4.551   4.054   8.328 -0.4869  0.0916 -0.1788
 3146TIP3   OH230996   6.261   5.421   2.673  0.3018 -0.5176 -0.1888
 3146TIP3    H130997   6.296   5.338   2.639 -0.7936 -1.5723  1.1129
 3146TIP3    H230998   6.325   5.487   2.647  1.5718 -1.8740 -0.6557
 3147TIP3   OH230999   5.341   2.990   7.715  0.3131  0.0303 -0.3077
 3147TIP3    H131000   5.326   2.933   7.790  1.4249  0.5906  0.3645
 3147TIP3    H231001   5.264   2.978   7.660 -0.8313  0.1256  1.2361
 3148TIP3   OH231002   0.299   5.204   6.297 -0.3083  0.2084  0.2689
 3148TIP3    H131003   0.278   5.111   6.303  0.3059  0.1111  1.2032
 3148TIP3    H231004   0.217   5.249   6.317 -1.3820 -0.0557 -3.0089
 3149TIP3   OH231005   4.135   1.125   0.523 -1.1531 -0.6276 -0.2783
 3149TIP3    H131006   4.171   1.059   0.582 -0.0095  1.0044  0.9385
 3149TIP3    H231007   4.200   1.132   0.453 -0.0452  0.8530  0.8441
 3150TIP3   OH231008   5.714   1.213   7.682  0.0618  0.5190  0.1741
 3150TIP3    H131009   5.771   1.185   7.754 -2.7453 -0.7338  2.0886
 3150TIP3    H231010   5.688   1.302   7.706  0.2358  0.6250 -0.0319
 3151TIP3   OH231011   2.385   6.607   8.269  0.2057  0.5410 -0.0454
 3151TIP3    H131012   2.418   6.627   8.181  1.0283 -2.2186 -0.4573
 3151TIP3    H231013   2.310   6.665   8.280  0.8160  1.8080 -2.0809
 3152TIP3   OH231014   4.287   5.827   1.382 -0.0628  0.3256  0.9499
 3152TIP3    H131015   4.371   5.815   1.336 -0.0341 -0.4554  1.2053
 3152TIP3    H231016   4.241   5.893   1.329  0.8410  1.0137  0.9921
 3153TIP3   OH231017   5.482   2.597   7.704  0.0017 -0.1005 -0.4121
 3153TIP3    H131018   5.554   2.588   7.766  1.1461  2.7799 -1.1597
 3153TIP3    H231019   5.404   2.609   7.759  0.9820  2.3818  0.5565
 3154TIP3   OH231020   3.164   5.656   1.331 -0.0375 -0.4561  0.3383
 3154TIP3    H131021   3.078   5.622   1.307  0.0611  0.2122 -1.0651
 3154TIP3    H231022   3.214   5.657   1.249  1.6388 -1.7044  1.2672
 3155TIP3   OH231023   5.013   4.613   8.727 -0.4214  0.4304  0.3827
 3155TIP3    H131024   5.089   4.644   8.775  0.4792  0.1879 -0.8313
 3155TIP3    H231025   4.958   4.690   8.715 -0.6858  0.4812  1.7979
 3156TIP3   OH231026   6.504   1.669   6.645  0.5925 -0.2173  0.1921
 3156TIP3    H131027   6.475   1.627   6.564  1.5185  0.4340 -0.4995
 3156TIP3    H231028   6.512   1.597   6.708 -1.9874 -0.4935  0.3007
 3157TIP3   OH231029   0.940   0.513   8.700 -0.9930 -0.6997 -0.5134
 3157TIP3    H131030   1.010   0.577   8.682 -2.8865  1.1274 -1.8187
 3157TIP3    H231031   0.986   0.436   8.734  1.5750  0.6621 -0.6691
 3158TIP3   OH231032   2.805   6.787   0.287 -0.2331 -0.3665  0.7661
 3158TIP3    H131033   2.832   6.831   0.207 -2.0724  0.7814  0.7182
 3158TIP3    H231034   2.883   6.787   0.342  0.7864 -0.2761 -0.6208
 3159TIP3   OH231035   2.900   5.337   0.143 -0.0588  0.1616 -0.7968
 3159TIP3    H131036   2.943   5.258   0.176  1.8195  1.2143 -0.6170
 3159TIP3    H231037   2.807   5.320   0.157  0.4124 -1.1437  1.2469
 3160TIP3   OH231038   1.591   2.952   7.426 -0.4475  0.1177  0.2139
 3160TIP3    H131039   1.684   2.953   7.450  0.1943  0.5016 -2.0602
 3160TIP3    H231040   1.551   3.017   7.484  0.8109  0.3758  0.8286
 3161TIP3   OH231041   5.563   1.651   0.140  0.0736 -0.0250 -0.3102
 3161TIP3    H131042   5.498   1.585   0.116  0.5812 -0.1592 -1.3712
 3161TIP3    H231043   5.586   1.630   0.231 -0.4139 -0.7572 -0.3458
 3162TIP3   OH231044   4.374   2.400   7.794 -0.4161  0.8202  0.3303
 3162TIP3    H131045   4.310   2.334   7.821  0.2432  0.0569  0.0895
 3162TIP3    H231046   4.441   2.350   7.746  0.9595  1.4005  1.5548
 3163TIP3   OH231047   6.536   0.190   8.155 -0.4303  0.3468  0.0391
 3163TIP3    H131048   6.581   0.204   8.238 -0.4190 -0.6837  0.2206
 3163TIP3    H231049   6.576   0.252   8.094  0.6951 -0.0286  0.3910
 3164TIP3   OH231050   2.626   6.271   7.824  0.5174  0.1708 -0.8873
 3164TIP3    H131051   2.649   6.307   7.738  3.4894  2.7650  0.7883
 3164TIP3    H231052   2.710   6.261   7.868 -1.0010  0.7940  2.4000
 3165TIP3   OH231053   1.498   2.601   2.111  0.4072  0.0295  0.6904
 3165TIP3    H131054   1.480   2.534   2.044 -0.4254  0.6659  0.2679
 3165TIP3    H231055   1.523   2.550   2.188  1.8818 -0.7131 -0.2141
 3166TIP3   OH231056   2.706   3.418   7.863  0.2497  0.0099  0.5556
 3166TIP3    H131057   2.749   3.365   7.796  0.4714 -0.1160  0.7987
 3166TIP3    H231058   2.616   3.385   7.865  0.7588 -1.4085  1.7758
 3167TIP3   OH231059   5.751   4.326   6.957 -0.1832  0.0866  0.2904
 3167TIP3    H131060   5.686   4.395   6.970 -1.6571 -0.9965 -0.9465
 3167TIP3    H231061   5.778   4.336   6.866  0.8825  0.0882  0.5979
 3168TIP3   OH231062   3.277   4.451   6.905  0.0259 -0.1961 -0.0887
 3168TIP3    H131063   3.241   4.363   6.911  0.3763 -0.2734  1.0035
 3168TIP3    H231064   3.355   4.450   6.960 -1.1491  1.3822  1.7396
 3169TIP3   OH231065   2.467   4.663   7.735  0.6542  0.0065  0.5903
 3169TIP3    H131066   2.390   4.614   7.763  0.1566  0.6020  0.2943
 3169TIP3    H231067   2.498   4.707   7.814  2.5518 -2.6203  1.4492
 3170TIP3   OH231068   5.854   5.889   0.665  0.1001  0.1559 -0.2045
 3170TIP3    H131069   5.773   5.938   0.652 -0.6473 -0.6550  1.1729
 3170TIP3    H231070   5.854   5.824   0.595 -1.1190 -0.6565  0.4971
 3171TIP3   OH231071   6.258   4.029   1.133 -0.3063  0.5797 -0.1198
 3171TIP3    H131072   6.171   4.009   1.099  0.3613  0.0713 -1.6156
 3171TIP3    H231073   6.284   3.951   1.181 -0.0802  0.1051 -0.9807
 3172TIP3   OH231074   0.413   1.275   1.651  0.1959 -0.1438 -0.3266
 3172TIP3    H131075   0.335   1.256   1.598 -0.9478  2.4697  0.2642
 3172TIP3    H231076   0.487   1.255   1.592 -0.9026 -1.5020 -1.3227
 3173TIP3   OH231077   3.211   5.602   8.773  0.6564 -0.2663  0.1945
 3173TIP3    H131078   3.300   5.625   8.799  0.7572 -0.5106  0.0585
 3173TIP3    H231079   3.170   5.570   8.854  0.4916  0.4545  0.4062
 3174TIP3   OH231080   3.600   6.064   6.744  0.0193 -0.0852 -0.1238
 3174TIP3    H131081   3.667   6.127   6.772  0.3323 -0.2741 -0.4500
 3174TIP3    H231082   3.648   5.983   6.729 -0.4369 -0.5137  0.6540
 3175TIP3   OH231083   6.316   0.820   0.799  0.6392 -0.3206 -0.2526
 3175TIP3    H131084   6.391   0.820   0.859  1.7693  0.3200 -1.5863
 3175TIP3    H231085   6.298   0.727   0.784  1.3522 -0.4909 -0.1047
 3176TIP3   OH231086   0.969   4.274   8.539 -0.0031 -0.0844 -0.7493
 3176TIP3    H131087   0.918   4.248   8.462 -2.1273  1.1828  0.1640
 3176TIP3    H231088   1.044   4.321   8.502 -0.5079 -0.2492 -2.0723
 3177TIP3   OH231089   4.393   0.510   0.388  0.5288 -0.3368  0.0107
 3177TIP3    H131090   4.474   0.541   0.347  0.7187  0.4364  0.9237
 3177TIP3    H231091   4.413   0.422   0.418  1.0802 -0.1092  0.3298
 3178TIP3   OH231092   4.014   6.542   6.872 -0.0227 -0.1445 -0.8330
 3178TIP3    H131093   4.057   6.550   6.787 -1.3194 -0.6872 -1.5631
 3178TIP3    H231094   3.930   6.586   6.862 -0.6687 -1.1632 -0.2007
 3179TIP3   OH231095   5.129   3.988   6.730 -0.7815  0.3494 -0.1510
 3179TIP3    H131096   5.080   3.996   6.648 -0.9787  0.1575 -0.0548
 3179TIP3    H231097   5.206   4.043   6.718  0.6878 -1.8183 -1.5604
 3180TIP3   OH231098   2.974   1.093   1.562 -0.0906  0.7325  0.4657
 3180TIP3    H131099   2.930   1.011   1.540  0.2219  0.2848  1.4289
 3180TIP3    H231100   2.995   1.084   1.655  1.4183  1.2207  0.2027
 3181TIP3   OH231101   4.708   2.737   6.305  0.1206  0.0554 -0.1823
 3181TIP3    H131102   4.721   2.657   6.253  1.3537  0.5163 -0.6097
 3181TIP3    H231103   4.753   2.720   6.388  1.8283  0.8768 -0.8845
 3182TIP3   OH231104   5.869   4.974   8.257 -0.2139 -0.4430 -0.4550
 3182TIP3    H131105   5.908   5.045   8.206  0.0389  1.0172  1.6778
 3182TIP3    H231106   5.939   4.908   8.261  0.6201  0.4321 -0.0547
 3183TIP3   OH231107   3.062   5.571   0.168  0.1159  0.4613 -0.0097
 3183TIP3    H131108   3.000   5.644   0.160  0.4828  0.8789  0.8416
 3183TIP3    H231109   3.011   5.494   0.144 -0.4070  0.9339 -0.4643
 3184TIP3   OH231110   1.321   5.442   7.422 -0.6332 -0.8038  0.0914
 3184TIP3    H131111   1.322   5.494   7.341  1.5629 -0.8927  0.0088
 3184TIP3    H231112   1.295   5.354   7.393  0.5009 -0.9295 -0.6168
 3185TIP3   OH231113   0.620   0.664   8.587 -0.0241  0.1732 -0.5741
 3185TIP3    H131114   0.617   0.752   8.550  2.6026  0.8116  0.4841
 3185TIP3    H231115   0.677   0.615   8.528  0.0592 -0.2531 -0.1465
 3186TIP3   OH231116   2.273   3.247   6.523  0.2065  0.0287 -0.0316
 3186TIP3    H131117   2.360   3.285   6.535 -0.1786  0.7316  0.6267
 3186TIP3    H231118   2.221   3.316   6.482  0.2135 -0.7411 -1.3959
 3187TIP3   OH231119   5.219   2.206   6.836 -0.2945 -0.6175 -0.2574
 3187TIP3    H131120   5.131   2.216   6.801 -0.3206 -0.6128 -0.1908
 3187TIP3    H231121   5.267   2.282   6.805  0.0661 -1.2997 -1.4282
 3188TIP3   OH231122   3.990   5.042   1.392 -0.5297 -0.1596  0.1370
 3188TIP3    H131123   3.929   5.065   1.462 -0.2324 -1.0650  0.7088
 3188TIP3    H231124   3.933   5.025   1.316 -0.9810 -0.7814  0.6049
 3189TIP3   OH231125   6.399   5.681   0.154 -0.1313 -0.0160  0.0222
 3189TIP3    H131126   6.467   5.614   0.152 -0.8723 -0.8225 -2.2661
 3189TIP3    H231127   6.323   5.638   0.115 -1.3180  1.4968  0.5634
 3190TIP3   OH231128   0.740   2.978   1.101  0.6964  0.5575 -0.1400
 3190TIP3    H131129   0.663   2.921   1.103  3.1817 -3.2054  0.5372
 3190TIP3    H231130   0.732   3.028   1.021 -2.6757  0.8026  0.2250
 3191TIP3   OH231131   5.210   3.614   8.750 -0.9071  0.8355  0.5147
 3191TIP3    H131132   5.210   3.600   8.845  0.5942 -0.6421  0.3243
 3191TIP3    H231133   5.299   3.595   8.723 -1.4013  0.9327 -1.2631
 3192TIP3   OH231134   6.660   3.876   7.521 -0.4170  0.3523  0.4883
 3192TIP3    H131135   6.712   3.809   7.566  1.3097  0.7267 -0.8260
 3192TIP3    H231136   6.613   3.827   7.453  1.5703  0.4856 -1.0958
 3193TIP3   OH231137   0.380   2.089   7.236 -0.2963  0.0035 -0.3968
 3193TIP3    H131138   0.449   2.080   7.302 -0.6674  0.4231  0.0549
 3193TIP3    H231139   0.324   2.159   7.269 -0.5972  0.0845 -1.0665
 3194TIP3   OH231140   4.560   5.814   8.495 -0.5149 -0.0814 -0.2338
 3194TIP3    H131141   4.623   5.829   8.425 -0.1452  0.7107  0.2528
 3194TIP3    H231142   4.612   5.776   8.566 -0.8170 -0.5384 -0.2565
 3195TIP3   OH231143   2.527   1.028   7.970  0.0060 -0.2549 -0.7022
 3195TIP3    H131144   2.580   1.108   7.972  0.9334 -0.8543  0.1272
 3195TIP3    H231145   2.553   0.985   7.888  1.6176 -1.0208  0.1444
 3196TIP3   OH231146   1.951   4.148   8.124  0.7225  0.0735 -0.4184
 3196TIP3    H131147   1.973   4.234   8.159 -0.1949  0.1337  0.0410
 3196TIP3    H231148   1.857   4.139   8.140  1.0766 -1.6536  1.0296
 3197TIP3   OH231149   0.199   1.007   2.030 -0.4800 -0.5672 -0.0329
 3197TIP3    H131150   0.155   1.067   1.970 -1.0642 -0.3939  0.5538
 3197TIP3    H231151   0.249   0.948   1.973 -0.1038  0.3159 -0.6214
 3198TIP3   OH231152   1.586   2.097   8.516  0.6672  0.1299 -0.0886
 3198TIP3    H131153   1.525   2.163   8.548  0.3667  0.1358 -0.6604
 3198TIP3    H231154   1.560   2.017   8.561 -0.0501  0.0363 -0.6431
 3199TIP3   OH231155   4.824   6.758   1.734  0.3287 -0.4122 -0.0242
 3199TIP3    H131156   4.820   6.833   1.793 -2.1748 -0.1162 -0.4925
 3199TIP3    H231157   4.774   6.689   1.777  0.5312 -1.0145 -0.7111
 3200TIP3   OH231158   6.531   0.279   7.769  0.0414 -0.2007 -0.1196
 3200TIP3    H131159   6.565   0.357   7.725  1.6585 -1.3591 -1.0576
 3200TIP3    H231160   6.437   0.295   7.779 -0.2065  0.6456 -2.9623
 3201TIP3   OH231161   0.817   5.942   6.910  0.6068 -0.1553 -0.0698
 3201TIP3    H131162   0.736   5.990   6.894  0.0453 -1.0888 -0.0941
 3201TIP3    H231163   0.818   5.874   6.842  0.5322 -1.2388  0.9857
 3202TIP3   OH231164   6.119   0.631   1.708 -0.5156 -0.3625 -0.1871
 3202TIP3    H131165   6.194   0.583   1.673 -0.4568 -0.0976 -0.4250
 3202TIP3    H231166   6.071   0.660   1.631  0.9587  2.3965 -0.1846
 3203TIP3   OH231167   0.045   6.649   1.216  0.4860 -0.2021 -0.2205
 3203TIP3    H131168   0.046   6.714   1.146  1.1505  2.8354  2.3500
 3203TIP3    H231169   0.136   6.643   1.245  0.1173 -0.7778  0.8828
 3204TIP3   OH231170   4.766   6.311   1.259  0.1542  0.0298 -0.3571
 3204TIP3    H131171   4.784   6.382   1.319  0.2785  1.0412 -1.5527
 3204TIP3    H231172   4.672   6.318   1.241 -0.5958 -2.1644  2.0127
 3205TIP3   OH231173   1.037   3.668   8.027  0.3206 -0.0435  0.4532
 3205TIP3    H131174   1.049   3.685   7.933  0.0336 -0.3591  0.3581
 3205TIP3    H231175   0.942   3.658   8.038  0.4099 -0.6574  0.6654
 3206TIP3   OH231176   0.912   4.631   1.516 -0.2591 -0.1981 -0.4961
 3206TIP3    H131177   0.848   4.699   1.539 -1.2611 -1.9550  2.3731
 3206TIP3    H231178   0.992   4.660   1.559 -1.3474 -1.9243  3.1012
 3207TIP3   OH231179   3.438   6.511   8.772 -0.3971  0.0005 -0.1706
 3207TIP3    H131180   3.522   6.524   8.728 -0.1618  0.7277  0.4605
 3207TIP3    H231181   3.461   6.505   8.865 -1.0998  1.0673  0.0976
 3208TIP3   OH231182   3.333   5.832   7.895  0.1977  0.0359 -0.1353
 3208TIP3    H131183   3.318   5.851   7.802 -0.0736 -1.1330 -0.3484
 3208TIP3    H231184   3.405   5.769   7.896  0.4259  0.2991  0.4744
 3209TIP3   OH231185   6.384   6.314   2.265  0.1486  0.0870 -0.0388
 3209TIP3    H131186   6.444   6.375   2.306 -0.6221  0.0551  1.1797
 3209TIP3    H231187   6.369   6.246   2.331 -0.8005 -0.1860 -0.5141
 3210TIP3   OH231188   5.313   2.324   1.470 -0.3847 -0.3084 -0.5755
 3210TIP3    H131189   5.240   2.353   1.525 -1.3654  0.3995 -2.1534
 3210TIP3    H231190   5.390   2.365   1.508 -0.8619 -0.6724  0.8424
 3211TIP3   OH231191   2.952   1.736   7.847 -0.4525  0.2038  0.0736
 3211TIP3    H131192   2.947   1.645   7.874 -2.1025  0.1737 -0.2306
 3211TIP3    H231193   2.889   1.782   7.902 -0.1948  1.0206 -0.2892
 3212TIP3   OH231194   3.127   2.211   1.516 -0.8001 -0.2685 -0.5949
 3212TIP3    H131195   3.069   2.241   1.586  0.5011  0.1628  0.3399
 3212TIP3    H231196   3.068   2.185   1.446 -2.2317 -1.9849  1.1376
 3213TIP3   OH231197   1.362   6.337   0.236 -0.1593  0.6246  0.7781
 3213TIP3    H131198   1.447   6.312   0.201  0.0103  1.0742  0.8667
 3213TIP3    H231199   1.323   6.392   0.168 -0.8690 -0.5152  0.2344
 3214TIP3   OH231200   1.805   4.763   1.445 -0.0241 -0.5066  0.6817
 3214TIP3    H131201   1.758   4.701   1.501 -2.6501 -1.1718 -1.9607
 3214TIP3    H231202   1.829   4.711   1.368 -1.2721  1.4334 -1.1080
 3215TIP3   OH231203   0.175   1.904   7.152  0.2430  0.0031  0.0373
 3215TIP3    H131204   0.246   1.963   7.178 -0.2085  0.7245 -0.3549
 3215TIP3    H231205   0.103   1.926   7.211 -0.3946  0.8380 -1.0243
 3216TIP3   OH231206   1.717   3.703   0.262  0.0433 -0.0744 -0.3196
 3216TIP3    H131207   1.691   3.741   0.346  1.0752  2.1185 -0.9387
 3216TIP3    H231208   1.664   3.749   0.197 -1.6278 -2.5834 -0.8746
 3217TIP3   OH231209   3.563   1.412   0.729  0.1886  0.0897 -0.1578
 3217TIP3    H131210   3.658   1.411   0.726  0.2088  0.8842  0.1354
 3217TIP3    H231211   3.536   1.418   0.637  0.4686  2.0111 -0.1474
 3218TIP3   OH231212   2.908   3.270   7.637  0.1534  0.0914 -0.2517
 3218TIP3    H131213   2.917   3.365   7.632  2.2688 -0.1137 -1.7370
 3218TIP3    H231214   2.995   3.237   7.615  0.0715 -2.1818  2.3420
 3219TIP3   OH231215   6.620   6.016   7.153  0.4033 -0.2062 -0.1639
 3219TIP3    H131216   6.692   6.078   7.150  1.4535 -1.3866 -0.2839
 3219TIP3    H231217   6.644   5.947   7.091  0.1662 -1.6417  1.2480
 3220TIP3   OH231218   3.651   2.428   0.298 -0.3675  0.2557 -0.3034
 3220TIP3    H131219   3.604   2.485   0.237 -1.9220 -0.0165  0.5899
 3220TIP3    H231220   3.729   2.401   0.250 -0.4404  1.7702 -1.3675
 3221TIP3   OH231221   6.181   1.344   8.180  0.6468  0.7419 -0.5316
 3221TIP3    H131222   6.194   1.404   8.253  0.3687  0.4405 -0.2308
 3221TIP3    H231223   6.086   1.334   8.172  0.5190  2.8349 -2.6482
 3222TIP3   OH231224   3.527   2.293   7.622  0.0705 -0.5396 -0.2554
 3222TIP3    H131225   3.492   2.373   7.582  0.9043  0.0779  0.2175
 3222TIP3    H231226   3.450   2.237   7.633 -0.5968  0.3475 -0.2358
 3223TIP3   OH231227   4.322   1.640   7.518 -0.1580 -0.0022 -0.4277
 3223TIP3    H131228   4.368   1.640   7.602  0.0349 -1.3239 -0.5154
 3223TIP3    H231229   4.239   1.684   7.537  0.3598  0.7485  0.1714
 3224TIP3   OH231230   3.457   4.423   8.613 -0.2156 -0.2770 -0.4830
 3224TIP3    H131231   3.404   4.425   8.693  1.4121 -1.5174  0.7063
 3224TIP3    H231232   3.462   4.330   8.591  1.4635 -0.1915 -0.5293
 3225TIP3   OH231233   2.826   3.569   8.571  0.0777 -0.0878  0.1671
 3225TIP3    H131234   2.911   3.549   8.531  0.3404  0.0926  0.6216
 3225TIP3    H231235   2.762   3.554   8.501  0.4989 -0.0806 -0.2263
 3226TIP3   OH231236   3.091   6.680   0.049  0.1930 -0.0556 -0.4083
 3226TIP3    H131237   3.023   6.737   0.016 -0.1919 -0.0041  0.4522
 3226TIP3    H231238   3.139   6.652  -0.029 -0.0967  0.8098 -0.9098
 3227TIP3   OH231239   2.233   4.733   1.084  0.7523 -0.2193  0.1059
 3227TIP3    H131240   2.183   4.788   1.023  1.4763  0.2312 -0.0884
 3227TIP3    H231241   2.175   4.721   1.159 -0.4953 -1.4677 -0.9902
 3228TIP3   OH231242   4.612   6.606   8.289  0.2886  1.1943  0.0484
 3228TIP3    H131243   4.571   6.566   8.212 -0.2986  0.0398  0.9256
 3228TIP3    H231244   4.538   6.628   8.346  0.7280  1.8297  0.3812
 3229TIP3   OH231245   3.757   0.166   1.452  0.4409  0.5549  0.3281
 3229TIP3    H131246   3.680   0.151   1.397  0.5253 -1.2825  0.6419
 3229TIP3    H231247   3.724   0.220   1.524 -0.7009 -0.6174  0.7222
 3230TIP3   OH231248   3.507   5.598   7.876 -0.0788  0.1871  0.3732
 3230TIP3    H131249   3.538   5.524   7.928  1.1894  0.3305 -0.1463
 3230TIP3    H231250   3.454   5.558   7.806  1.3415 -0.3370 -0.4429
 3231TIP3   OH231251   0.534   3.727   1.208  0.2108 -0.1814  0.1838
 3231TIP3    H131252   0.540   3.661   1.277 -0.5908 -1.9419 -1.3483
 3231TIP3    H231253   0.443   3.723   1.179 -0.0989  2.2663  0.6296
 3232TIP3   OH231254   0.159   2.819   7.807  0.2779  0.0507  0.0096
 3232TIP3    H131255   0.069   2.847   7.825 -0.2332 -1.1978 -0.4670
 3232TIP3    H231256   0.164   2.731   7.845 -0.0533 -1.6546 -3.4429
 3233TIP3   OH231257   2.418   3.862   6.048 -0.9957 -0.6036  0.0265
 3233TIP3    H131258   2.500   3.897   6.084 -2.0571  1.6513  0.4571
 3233TIP3    H231259   2.445   3.791   5.991  1.4769  1.4818 -1.6180
 3234TIP3   OH231260   5.334   1.315   0.556  0.2809 -0.5174 -0.2326
 3234TIP3    H131261   5.318   1.409   0.548  2.5744 -0.0164  0.3707
 3234TIP3    H231262   5.272   1.286   0.622 -0.4814  0.5662 -0.4420
 3235TIP3   OH231263   2.916   1.921   6.783 -0.1244  0.0372  0.0593
 3235TIP3    H131264   2.876   1.953   6.702 -0.4448 -1.7456 -0.5174
 3235TIP3    H231265   2.978   1.854   6.754  1.2576  0.7988  1.1555
 3236TIP3   OH231266   6.735   4.868   0.882  0.2991 -0.2386  0.4552
 3236TIP3    H131267   6.727   4.784   0.837 -0.0409  0.2073 -0.3511
 3236TIP3    H231268   6.655   4.877   0.933 -0.0043 -0.0784 -0.0435
 3237TIP3   OH231269   5.292   3.092   1.127 -0.7190  0.7273  0.2307
 3237TIP3    H131270   5.262   3.177   1.096 -1.9118  0.8205  1.5637
 3237TIP3    H231271   5.318   3.107   1.218 -1.4349 -0.4205  0.6471
 3238TIP3   OH231272   6.714   2.369   8.367  0.2951  0.2774  0.3571
 3238TIP3    H131273   6.746   2.331   8.285 -0.1640  0.4616  0.0910
 3238TIP3    H231274   6.773   2.442   8.384  0.6944 -0.0626  0.4531
 3239TIP3   OH231275   5.909   4.846   0.009 -0.0795  0.6856 -0.4721
 3239TIP3    H131276   5.954   4.921   0.046 -1.7129  0.9122  1.1819
 3239TIP3    H231277   5.910   4.862  -0.086 -1.6938  3.6402 -0.1279
 3240TIP3   OH231278   1.996   6.549   6.817 -0.3318 -0.2579 -0.0161
 3240TIP3    H131279   1.933   6.483   6.789 -0.5618  0.4002 -1.1486
 3240TIP3    H231280   2.069   6.500   6.853 -0.7378 -1.1061 -0.3262
 3241TIP3   OH231281   0.042   6.203   8.146  0.2982 -0.3446  0.0936
 3241TIP3    H131282   0.041   6.138   8.076  0.1258  0.9111 -1.1084
 3241TIP3    H231283   0.016   6.155   8.225  0.2082 -1.7191 -0.7591
 3242TIP3   OH231284   4.153   1.976   0.486  0.3741  0.2291  0.3773
 3242TIP3    H131285   4.128   2.064   0.513  0.0556  0.0779  0.5884
 3242TIP3    H231286   4.129   1.921   0.561  2.0653  0.1745  0.9275
 3243TIP3   OH231287   6.449   0.100   8.446 -0.2605  0.1839 -0.6001
 3243TIP3    H131288   6.540   0.106   8.417  0.4919  2.7796  1.8509
 3243TIP3    H231289   6.452   0.047   8.525 -0.8296  0.6097 -0.2873
 3244TIP3   OH231290   6.635   4.970   0.189 -0.2134  0.1848  0.1414
 3244TIP3    H131291   6.565   4.975   0.254  0.6624 -2.3543  1.4256
 3244TIP3    H231292   6.692   5.044   0.210 -1.5970  1.2897  0.1501
 3245TIP3   OH231293   1.999   2.682   6.995 -0.2777 -0.4032 -0.5962
 3245TIP3    H131294   2.056   2.757   7.012 -0.5835  0.0709 -1.5846
 3245TIP3    H231295   2.056   2.606   7.005  0.1120 -0.0286  0.1218
 3246TIP3   OH231296   2.969   5.509   6.559 -0.2398 -0.0054 -0.0327
 3246TIP3    H131297   2.932   5.595   6.580  2.9868  1.6822 -0.6326
 3246TIP3    H231298   3.011   5.480   6.639  1.0524  0.3207 -0.5746
 3247TIP3   OH231299   5.001   0.578   1.033  0.3965 -0.3983  0.3639
 3247TIP3    H131300   5.056   0.623   1.097  0.2513  0.8376 -0.3360
 3247TIP3    H231301   4.978   0.646   0.970 -1.4116 -1.0231  0.2840
 3248TIP3   OH231302   1.935   5.243   7.793 -0.5440 -0.1035 -0.5012
 3248TIP3    H131303   1.980   5.278   7.716 -0.5973  0.4779 -0.2764
 3248TIP3    H231304   1.842   5.241   7.767 -0.5185 -0.2666 -0.5822
 3249TIP3   OH231305   3.943   4.192   1.648  0.1020  0.1174 -0.8435
 3249TIP3    H131306   3.930   4.284   1.672 -1.6847  0.1584 -1.8143
 3249TIP3    H231307   3.907   4.142   1.721  1.4857  0.1392 -0.1038
 3250TIP3   OH231308   6.564   4.900   7.088 -0.0071 -0.1792  0.3731
 3250TIP3    H131309   6.639   4.931   7.037 -0.5059  1.1907  0.4451
 3250TIP3    H231310   6.488   4.919   7.033 -0.5121  0.8426  1.3803
 3251TIP3   OH231311   6.586   3.216   7.163  0.8105  0.0215  0.3145
 3251TIP3    H131312   6.679   3.194   7.161  1.2221  1.7217 -0.5458
 3251TIP3    H231313   6.572   3.253   7.251  0.7036 -1.1207  0.7964
 3252TIP3   OH231314   1.014   4.725   0.269  0.2596  0.0967  0.6196
 3252TIP3    H131315   1.050   4.657   0.213 -2.4389 -1.1209  0.1578
 3252TIP3    H231316   1.016   4.687   0.357  2.8082  1.2788  1.1526
 3253TIP3   OH231317   6.232   0.323   1.157  0.1032  0.0179 -0.3272
 3253TIP3    H131318   6.293   0.278   1.099 -0.1074 -2.1217  1.0431
 3253TIP3    H231319   6.163   0.259   1.175 -0.7162  1.1978  0.9531
 3254TIP3   OH231320   2.526   2.413   8.654  0.9774 -0.4239  0.1401
 3254TIP3    H131321   2.499   2.433   8.743 -0.5172 -0.0090 -0.3854
 3254TIP3    H231322   2.517   2.318   8.646 -0.2225 -0.3069  0.0166
 3255TIP3   OH231323   1.975   3.806   7.107  0.0875 -0.4404 -0.1624
 3255TIP3    H131324   2.008   3.890   7.141  0.2699 -1.8831  3.8024
 3255TIP3    H231325   2.024   3.791   7.027  1.3348  2.4070 -0.0429
 3256TIP3   OH231326   0.996   5.621   7.612  0.2685  0.1908 -0.0086
 3256TIP3    H131327   0.950   5.673   7.546  1.6183 -1.2908 -2.2862
 3256TIP3    H231328   1.040   5.685   7.667 -0.7339  1.5000 -0.6581
 3257TIP3   OH231329   3.355   5.401   0.376 -0.1538 -0.2617  0.5425
 3257TIP3    H131330   3.295   5.473   0.394 -2.1515 -1.3279 -1.3980
 3257TIP3    H231331   3.329   5.332   0.437  0.0789 -0.2165  0.6934
 3258TIP3   OH231332   5.122   6.705   1.644  0.6051  0.1350  0.1668
 3258TIP3    H131333   5.129   6.760   1.722 -0.3962 -1.2190  1.2754
 3258TIP3    H231334   5.030   6.678   1.643 -0.1115  2.1897 -2.9888
 3259TIP3   OH231335   4.806   0.222   6.698  0.0221  0.0653  0.0434
 3259TIP3    H131336   4.857   0.276   6.637  0.6506 -0.3694  0.1745
 3259TIP3    H231337   4.810   0.271   6.781  0.5061 -0.1226  0.1366
 3260TIP3   OH231338   3.348   0.491   0.916  0.3406 -0.2264  0.4715
 3260TIP3    H131339   3.362   0.447   1.000  1.6531 -1.8052 -0.5021
 3260TIP3    H231340   3.417   0.557   0.911 -0.8928  1.1981  1.4066
 3261TIP3   OH231341   3.290   1.093   8.015  0.1286  0.0163  0.1183
 3261TIP3    H131342   3.215   1.145   8.044 -1.2060 -1.1926 -0.9971
 3261TIP3    H231343   3.259   1.003   8.017  1.1230 -0.4195 -1.5567
 3262TIP3   OH231344   5.946   4.370   0.262  0.2031 -0.7272 -0.1052
 3262TIP3    H131345   5.920   4.418   0.341 -0.0723 -1.0481 -0.0015
 3262TIP3    H231346   5.904   4.417   0.190 -0.4711 -1.0996  0.0398
 3263TIP3   OH231347   6.545   4.234   6.841  0.2037  0.2604 -0.0097
 3263TIP3    H131348   6.577   4.227   6.751  0.1105 -1.1986  0.0325
 3263TIP3    H231349   6.575   4.319   6.871 -0.0091  0.8985 -1.5127
 3264TIP3   OH231350   1.183   5.575   7.929  0.0800  0.0287 -0.5054
 3264TIP3    H131351   1.230   5.538   7.854 -0.0818 -0.1568 -0.5145
 3264TIP3    H231352   1.105   5.520   7.938 -0.1779  0.3880 -0.5371
 3265TIP3   OH231353   2.661   0.991   0.818  0.0596  0.0572  0.4559
 3265TIP3    H131354   2.677   0.952   0.904  2.3699  0.5544  0.3240
 3265TIP3    H231355   2.602   0.930   0.775 -1.1716 -0.1971  2.3686
 3266TIP3   OH231356   4.223   0.285   1.934 -0.3396 -0.0106 -0.3251
 3266TIP3    H131357   4.233   0.329   2.018 -1.2264 -1.2570  0.4565
 3266TIP3    H231358   4.291   0.325   1.878 -0.7522  1.9271  0.4812
 3267TIP3   OH231359   4.131   3.137   7.425  0.0226  0.7200 -0.1272
 3267TIP3    H131360   4.047   3.102   7.398 -0.5870  1.3741  0.8503
 3267TIP3    H231361   4.156   3.197   7.355  1.2874 -1.8712 -2.0265
 3268TIP3   OH231362   3.912   2.014   0.876  0.0321 -0.5424  0.4952
 3268TIP3    H131363   4.008   2.020   0.873 -0.0100 -0.2776 -1.1009
 3268TIP3    H231364   3.882   2.098   0.841 -0.7522 -1.3653 -0.9016
 3269TIP3   OH231365   0.870   3.495   7.792 -0.2400  0.0788  0.4377
 3269TIP3    H131366   0.797   3.555   7.803 -1.3089 -1.1681  0.4093
 3269TIP3    H231367   0.829   3.408   7.784  1.1207 -0.4651 -1.3554
 3270TIP3   OH231368   6.356   0.977   8.669 -0.4294 -0.0873 -0.0665
 3270TIP3    H131369   6.403   0.921   8.607  0.8592  0.2850  0.5479
 3270TIP3    H231370   6.416   1.049   8.688 -1.8663  1.2701 -0.4532
 3271TIP3   OH231371   6.289   0.454   1.598 -0.1423 -0.0946  0.5247
 3271TIP3    H131372   6.236   0.387   1.554  0.9308 -1.4955  1.2927
 3271TIP3    H231373   6.380   0.428   1.582  0.2892  0.2830  2.1322
 3272TIP3   OH231374   3.553   1.052   2.202 -0.1875 -0.2848 -0.2766
 3272TIP3    H131375   3.639   1.037   2.162  0.4519  1.4347  0.3415
 3272TIP3    H231376   3.567   1.042   2.296  0.1867  3.0491  0.1551
 3273TIP3   OH231377   6.328   5.379   1.578 -0.1567 -0.2174 -0.0466
 3273TIP3    H131378   6.351   5.435   1.503  1.6460 -0.4085  0.3018
 3273TIP3    H231379   6.238   5.403   1.599 -0.6370 -0.0001 -2.1165
 3274TIP3   OH231380   4.740   0.977   7.437  0.2963 -0.1522 -0.0455
 3274TIP3    H131381   4.828   1.008   7.416  0.3494 -0.0324  0.3350
 3274TIP3    H231382   4.702   1.046   7.491  0.0720 -0.3302  0.0303
 3275TIP3   OH231383   1.514   1.669   8.150  0.0224  0.4057 -0.1888
 3275TIP3    H131384   1.598   1.626   8.169  0.6123  2.3618  2.0955
 3275TIP3    H231385   1.534   1.762   8.153 -2.2233  0.9258  0.3315
 3276TIP3   OH231386   6.168   6.710   7.619 -0.1885 -0.3035  0.3849
 3276TIP3    H131387   6.257   6.675   7.607 -0.3731 -1.0533  1.0799
 3276TIP3    H231388   6.176   6.803   7.598  0.6421 -0.4671 -0.0922
 3277TIP3   OH231389   4.314   5.839   0.337  0.5740 -0.0215 -0.3291
 3277TIP3    H131390   4.340   5.869   0.424  0.0229 -1.7828  0.4816
 3277TIP3    H231391   4.290   5.747   0.349 -3.3118  0.6626 -1.5358
 3278TIP3   OH231392   1.517   6.295   6.498 -0.3909 -0.2471 -0.1485
 3278TIP3    H131393   1.485   6.265   6.413 -1.6184  2.9144 -0.9434
 3278TIP3    H231394   1.613   6.292   6.489 -0.4134 -2.8573 -0.4236
 3279TIP3   OH231395   6.615   0.026   7.700  0.7745 -0.2255 -0.4018
 3279TIP3    H131396   6.707   0.051   7.688  0.2923  1.4533 -0.8832
 3279TIP3    H231397   6.590   0.067   7.783  0.4314 -0.6080 -0.3121
 3280TIP3   OH231398   6.400   1.828   8.344 -0.8540  0.8142  0.3168
 3280TIP3    H131399   6.424   1.906   8.394  1.5103  0.0209  0.5771
 3280TIP3    H231400   6.305   1.833   8.336 -1.0266  2.4970  2.3397
 3281TIP3   OH231401   2.508   5.497   0.345  0.1013 -0.2058  0.1332
 3281TIP3    H131402   2.576   5.559   0.319  0.0139  0.0414  0.4921
 3281TIP3    H231403   2.438   5.511   0.280  0.1515 -0.0470  0.1112
 3282TIP3   OH231404   4.266   6.396   0.660 -0.0042 -0.2961  0.3500
 3282TIP3    H131405   4.341   6.336   0.657  0.6066  0.4465  0.4254
 3282TIP3    H231406   4.219   6.379   0.578  0.7961 -0.0872 -0.1684
 3283TIP3   OH231407   1.882   5.341   1.895 -0.0005  0.2220 -0.7007
 3283TIP3    H131408   1.932   5.315   1.973  1.4913  0.4285 -1.5469
 3283TIP3    H231409   1.872   5.436   1.904  0.2760  0.2635 -0.7986
 3284TIP3   OH231410   6.603   5.722   7.236  0.2907 -0.4606 -0.4092
 3284TIP3    H131411   6.580   5.813   7.221  0.0381 -0.4745 -0.1212
 3284TIP3    H231412   6.555   5.698   7.316  0.3899 -0.8295 -0.4590
 3285TIP3   OH231413   2.073   4.832   1.744  0.1308 -0.1263  0.3774
 3285TIP3    H131414   2.148   4.861   1.692  0.4149 -1.3319  0.0740
 3285TIP3    H231415   2.069   4.893   1.817  0.8691  0.4816 -0.0763
 3286TIP3   OH231416   3.801   4.933   1.238  0.0984 -0.3210  0.0798
 3286TIP3    H131417   3.811   4.898   1.150 -0.3396 -0.1552 -0.0362
 3286TIP3    H231418   3.707   4.931   1.255  0.1125  0.3271  0.2654
 3287TIP3   OH231419   4.247   2.915   2.179 -0.6256  0.0457  0.1201
 3287TIP3    H131420   4.204   2.933   2.096  0.1846 -3.0263 -1.1259
 3287TIP3    H231421   4.195   2.843   2.217 -0.8453  1.2390  2.2147
 3288TIP3   OH231422   6.250   0.888   0.294 -0.3032 -0.3399  0.4362
 3288TIP3    H131423   6.312   0.824   0.328 -0.3756 -0.2256  0.7834
 3288TIP3    H231424   6.203   0.920   0.371 -2.0463 -1.7265  0.0107
 3289TIP3   OH231425   6.629   3.780   0.760  0.1140  0.0712 -0.4876
 3289TIP3    H131426   6.620   3.754   0.668  0.0060 -0.2104 -0.3969
 3289TIP3    H231427   6.663   3.870   0.756  0.0801  0.0711 -0.8028
 3290TIP3   OH231428   3.623   2.930   7.946 -0.0475 -0.1740  0.2715
 3290TIP3    H131429   3.588   2.955   8.031 -2.4436  0.3367 -0.7775
 3290TIP3    H231430   3.604   3.004   7.888 -0.4266 -1.3451 -1.1877
 3291TIP3   OH231431   6.387   0.789   1.621  0.2622 -0.2732  0.4878
 3291TIP3    H131432   6.415   0.746   1.540  0.8283  4.1198 -1.9263
 3291TIP3    H231433   6.450   0.859   1.635 -1.7313  1.2425  2.8333
 3292TIP3   OH231434   1.758   0.800   0.804  0.0921  0.4887 -0.0388
 3292TIP3    H131435   1.696   0.872   0.790 -0.7189 -0.5763 -2.5079
 3292TIP3    H231436   1.843   0.837   0.779 -0.1099  0.9620 -0.0402
 3293TIP3   OH231437   0.183   5.818   7.996  0.1738 -0.2575  0.0702
 3293TIP3    H131438   0.122   5.750   8.027 -0.2272 -1.0913 -2.3377
 3293TIP3    H231439   0.264   5.770   7.979 -0.4951 -0.5372 -2.9175
 3294TIP3   OH231440   0.812   6.314   0.270 -0.4694 -0.9252 -0.2221
 3294TIP3    H131441   0.786   6.358   0.189  0.9874 -0.5531 -0.5205
 3294TIP3    H231442   0.755   6.351   0.337 -0.1991  0.4038 -0.7021
 3295TIP3   OH231443   3.514   1.982   7.374  0.3203 -0.3361 -0.1403
 3295TIP3    H131444   3.517   1.950   7.464 -0.1801  0.4121  0.1527
 3295TIP3    H231445   3.523   2.077   7.382  0.5700 -0.2849 -0.9054
 3296TIP3   OH231446   4.623   3.181   0.502  0.5955  0.3114  0.1112
 3296TIP3    H131447   4.563   3.106   0.500 -0.0984  0.8598 -0.8329
 3296TIP3    H231448   4.630   3.207   0.410  0.1352  1.9306  0.5062
 3297TIP3   OH231449   6.454   4.771   8.320  0.7538 -0.1361 -0.2177
 3297TIP3    H131450   6.494   4.814   8.396 -0.4308 -1.5521  1.2814
 3297TIP3    H231451   6.479   4.679   8.330  0.2606 -0.3990 -1.3502
 3298TIP3   OH231452   5.429   1.936   8.193 -0.1544  0.1384  0.1527
 3298TIP3    H131453   5.491   2.000   8.227  0.7140 -0.4067 -0.3570
 3298TIP3    H231454   5.482   1.876   8.140 -1.1676 -0.1347 -0.6077
 3299TIP3   OH231455   6.099   2.995   8.782  0.3408  0.2792 -0.4914
 3299TIP3    H131456   6.116   3.074   8.833  0.9818  0.4425 -0.9406
 3299TIP3    H231457   6.135   2.924   8.836 -2.4340 -0.0596  1.0854
 3300TIP3   OH231458   0.065   1.944   1.648 -0.6912 -0.7679  0.2425
 3300TIP3    H131459  -0.001   1.899   1.702 -1.0766  0.0860  0.5013
 3300TIP3    H231460   0.084   2.024   1.695 -1.5066  0.3140 -1.1877
 3301TIP3   OH231461   5.720   1.835   7.534 -0.2505 -0.6988 -0.2908
 3301TIP3    H131462   5.795   1.801   7.486 -0.5374 -0.0815 -1.2001
 3301TIP3    H231463   5.691   1.911   7.483 -1.1748 -0.6236  0.3215
 3302TIP3   OH231464   4.747   2.631   7.081 -0.6822 -0.5446  0.2558
 3302TIP3    H131465   4.707   2.674   7.157  0.2299  1.0108 -0.0918
 3302TIP3    H231466   4.750   2.539   7.105 -0.5205 -0.1110  2.0773
 3303TIP3   OH231467   6.622   3.342   7.405 -0.3765 -0.6023 -0.8934
 3303TIP3    H131468   6.628   3.436   7.420 -0.6980 -0.6441 -0.4736
 3303TIP3    H231469   6.707   3.318   7.368 -0.4269 -0.0881 -1.3571
 3304TIP3   OH231470   1.632   6.316   2.329  0.2537 -0.3464 -0.1976
 3304TIP3    H131471   1.571   6.378   2.369 -0.9622 -1.8788  0.3769
 3304TIP3    H231472   1.664   6.362   2.251  0.6400  1.6372  1.0442
 3305TIP3   OH231473   4.815   1.235   0.922  0.4154 -0.1699 -0.6013
 3305TIP3    H131474   4.848   1.290   0.851  0.0267  1.9551  0.7665
 3305TIP3    H231475   4.880   1.244   0.991 -0.4246 -0.1839  0.2060
 3306TIP3   OH231476   3.328   5.927   7.215 -0.6617  0.0682  0.6328
 3306TIP3    H131477   3.389   6.001   7.205 -0.6254  0.0009  0.3374
 3306TIP3    H231478   3.375   5.852   7.178 -0.7461 -0.0789  0.8206
 3307TIP3   OH231479   2.484   1.764   1.377 -0.4213 -0.3562 -0.3852
 3307TIP3    H131480   2.417   1.721   1.323  0.3189 -0.9226 -0.8703
 3307TIP3    H231481   2.435   1.800   1.451 -1.2508 -0.8467 -0.6752
 3308TIP3   OH231482   3.391   1.284   7.662  0.1523 -0.4696 -0.0472
 3308TIP3    H131483   3.350   1.333   7.733  0.8815 -1.1662  0.8639
 3308TIP3    H231484   3.434   1.351   7.609 -0.4147  0.0540  0.1368
 3309TIP3   OH231485   2.871   3.083   8.119 -1.0902  0.0431 -0.3586
 3309TIP3    H131486   2.866   3.178   8.113 -0.2724  0.1926  0.8332
 3309TIP3    H231487   2.805   3.059   8.185 -0.4941 -0.0762  0.2089
 3310TIP3   OH231488   3.403   0.750   8.095  0.0615  0.3712 -0.3381
 3310TIP3    H131489   3.344   0.752   8.019 -1.0416  0.0662  0.4874
 3310TIP3    H231490   3.411   0.841   8.122 -0.2625  0.3859 -0.2866
 3311TIP3   OH231491   4.071   1.208   1.635  0.2214 -0.5451  0.1879
 3311TIP3    H131492   4.012   1.245   1.570  1.4840  1.1923 -0.0826
 3311TIP3    H231493   4.069   1.271   1.707 -0.1064 -1.7271  1.2399
 3312TIP3   OH231494   6.733   3.397   1.042 -0.3636  0.6501  0.1679
 3312TIP3    H131495   6.721   3.465   0.976  1.1922  0.7178 -0.1028
 3312TIP3    H231496   6.722   3.314   0.994  0.5412  0.7025 -0.1672
 3313TIP3   OH231497   5.944   4.616   6.310  0.4973  0.2389  0.1280
 3313TIP3    H131498   6.009   4.665   6.360  0.7394 -0.5700  0.6373
 3313TIP3    H231499   5.993   4.541   6.276 -0.3742 -0.9708  1.4120
 3314TIP3   OH231500   3.446   3.592   1.694 -0.1823 -0.8768  0.2215
 3314TIP3    H131501   3.494   3.521   1.652 -0.2766 -0.5394 -0.4565
 3314TIP3    H231502   3.366   3.601   1.643 -0.4096 -0.6173  0.6159
 3315TIP3   OH231503   4.959   3.692   7.911  0.0517  0.8461  0.3863
 3315TIP3    H131504   4.943   3.701   7.817 -0.9448 -0.4313  0.4150
 3315TIP3    H231505   4.905   3.761   7.951  0.9566  1.7978  0.0108
 3316TIP3   OH231506   6.581   6.156   0.202 -0.5663 -1.1412  0.3484
 3316TIP3    H131507   6.671   6.158   0.169 -0.1497  0.5306  1.5140
 3316TIP3    H231508   6.528   6.192   0.131 -0.4942 -2.9505 -0.6938
 3317TIP3   OH231509   1.721   1.106   0.782  0.1850  0.4133 -0.4831
 3317TIP3    H131510   1.763   1.191   0.771  0.3118  0.1334 -2.8016
 3317TIP3    H231511   1.741   1.059   0.700 -1.8050 -0.9929 -0.2432
 3318TIP3   OH231512   0.901   5.861   0.743  0.6820 -0.2605 -0.2193
 3318TIP3    H131513   0.945   5.783   0.709 -0.1939 -1.3821  1.1368
 3318TIP3    H231514   0.971   5.923   0.759  1.4913 -1.1077 -0.4220
 3319TIP3   OH231515   0.462   4.703   7.054  0.0849  0.2366  0.0410
 3319TIP3    H131516   0.411   4.784   7.053 -0.5477 -0.1186 -1.9196
 3319TIP3    H231517   0.396   4.634   7.067  0.5085 -0.0248  0.8413
 3320TIP3   OH231518   5.490   3.416   6.642 -0.6326  0.5448 -0.4416
 3320TIP3    H131519   5.417   3.472   6.616 -0.8888 -0.4555 -2.0020
 3320TIP3    H231520   5.557   3.477   6.673 -1.2373  1.6529 -1.2436
 3321TIP3   OH231521   2.513   4.816   0.099 -0.3984 -0.2204  0.0365
 3321TIP3    H131522   2.517   4.857   0.186 -1.4159 -2.0270  1.0051
 3321TIP3    H231523   2.561   4.734   0.110  0.8976  0.2794 -1.6146
 3322TIP3   OH231524   0.256   3.118   1.535 -0.4383 -0.2890 -0.2577
 3322TIP3    H131525   0.224   3.081   1.617 -1.9941  0.4579 -0.5017
 3322TIP3    H231526   0.318   3.186   1.563  0.0129 -0.8805  0.2411
 3323TIP3   OH231527   3.025   2.414   1.691 -0.2062 -0.1758 -0.3935
 3323TIP3    H131528   3.083   2.466   1.747  0.0678  1.7262 -2.3057
 3323TIP3    H231529   2.937   2.439   1.718 -0.2467 -2.2257  1.7448
 3324TIP3   OH231530   1.362   3.663   8.657  0.1355  0.0214 -0.3653
 3324TIP3    H131531   1.385   3.756   8.665 -1.2962  0.4394 -0.7565
 3324TIP3    H231532   1.358   3.632   8.747  2.6216 -0.2243 -0.2797
 3325TIP3   OH231533   0.535   1.148   0.401 -0.0525 -0.2455 -0.1362
 3325TIP3    H131534   0.533   1.101   0.318  0.0777  0.4457 -0.5424
 3325TIP3    H231535   0.572   1.085   0.463 -0.0013 -0.7196 -0.6346
 3326TIP3   OH231536   0.241   3.348   0.755  0.2897 -0.3123  0.0964
 3326TIP3    H131537   0.279   3.404   0.823  0.1862 -0.7453  0.5216
 3326TIP3    H231538   0.272   3.385   0.673  0.7907 -0.0438  0.3983
 3327TIP3   OH231539   5.852   2.022   0.534 -0.2781  0.4114 -0.1905
 3327TIP3    H131540   5.809   1.940   0.509  0.6083  0.4703 -2.1670
 3327TIP3    H231541   5.781   2.081   0.556 -1.2086  0.1401 -2.2098
 3328TIP3   OH231542   6.487   5.416   0.362  0.1543 -0.9009 -0.5580
 3328TIP3    H131543   6.558   5.479   0.354  1.0369 -1.8276 -0.1386
 3328TIP3    H231544   6.414   5.456   0.313  1.4652 -0.6895 -2.4500
 3329TIP3   OH231545   4.262   4.524   0.265  0.3020 -0.4197  0.2949
 3329TIP3    H131546   4.228   4.445   0.223  1.6817 -0.2864 -1.1227
 3329TIP3    H231547   4.229   4.518   0.355 -0.7565 -1.8998 -0.1427
 3330TIP3   OH231548   6.346   3.256   1.224 -0.0906  0.2881  0.1121
 3330TIP3    H131549   6.331   3.163   1.240  0.5071  0.2418  0.4237
 3330TIP3    H231550   6.382   3.260   1.136  2.7343 -0.0928  1.1398
 3331TIP3   OH231551   4.910   1.374   0.702 -0.7789  0.1549  0.0763
 3331TIP3    H131552   4.885   1.458   0.739 -0.6981  0.4134 -0.4465
 3331TIP3    H231553   4.962   1.396   0.625  0.0739 -0.3783  0.4820
 3332TIP3   OH231554   5.944   6.255   0.002 -0.0160  0.5500 -0.6200
 3332TIP3    H131555   5.942   6.161   0.018 -0.9922  0.3191 -1.9147
 3332TIP3    H231556   6.019   6.268  -0.056  3.1054  1.2949  3.1800
 3333TIP3   OH231557   2.299   5.681   1.488 -0.4436 -0.3397 -0.3653
 3333TIP3    H131558   2.350   5.639   1.420 -1.6042 -1.2502 -0.7031
 3333TIP3    H231559   2.270   5.610   1.545 -1.9360  0.0328 -0.6086
 3334TIP3   OH231560   3.040   6.583   0.800  0.1908 -0.6119  0.2155
 3334TIP3    H131561   3.130   6.576   0.767  0.7850  0.2266  1.5524
 3334TIP3    H231562   3.051   6.611   0.891 -1.4726  1.2161 -0.1030
 3335TIP3   OH231563   6.004   1.006   8.398  0.7647  0.4907  0.2054
 3335TIP3    H131564   6.077   0.969   8.348  0.9250  0.5472  0.3961
 3335TIP3    H231565   5.961   0.930   8.437  0.7143  0.4560  0.0824
 3336TIP3   OH231566   3.830   6.533   7.102 -0.4357  0.0768 -0.2435
 3336TIP3    H131567   3.843   6.456   7.158 -1.5667 -0.5780 -0.8253
 3336TIP3    H231568   3.870   6.605   7.150  2.2826 -1.1454 -0.5051
 3337TIP3   OH231569   3.599   0.287   8.646 -0.3258 -0.5781 -0.1140
 3337TIP3    H131570   3.678   0.334   8.673 -0.8543  0.3993 -0.2114
 3337TIP3    H231571   3.538   0.356   8.622 -0.9947 -1.3442 -0.6524
 3338TIP3   OH231572   0.959   4.586   0.544  0.9334  0.0487 -0.2655
 3338TIP3    H131573   0.949   4.640   0.623  0.1833 -1.1674  0.5140
 3338TIP3    H231574   1.033   4.529   0.564 -0.3483 -1.4873  0.3536
 3339TIP3   OH231575   5.185   6.399   1.172 -0.0810 -0.2531 -0.3887
 3339TIP3    H131576   5.274   6.431   1.159 -0.2078  0.0037 -0.6293
 3339TIP3    H231577   5.130   6.477   1.163 -0.2340 -0.1671  1.0497
 3340TIP3   OH231578   3.503   6.437   7.224  0.6773 -0.9015  0.4716
 3340TIP3    H131579   3.513   6.531   7.209 -0.0095 -1.0195 -0.8423
 3340TIP3    H231580   3.555   6.421   7.303  0.8569  0.5609  0.6957
 3341TIP3   OH231581   4.903   3.751   1.685 -0.1046 -0.0322 -0.6005
 3341TIP3    H131582   4.844   3.751   1.609 -0.9402  0.5079  0.0375
 3341TIP3    H231583   4.845   3.753   1.761  0.7334  0.4026  0.0413
 3342TIP3   OH231584   2.811   5.346   6.304 -0.0220 -0.3171  0.2344
 3342TIP3    H131585   2.729   5.323   6.349  0.8282  0.0407  2.0610
 3342TIP3    H231586   2.790   5.428   6.258 -0.2876  0.6583  2.0076
 3343TIP3   OH231587   3.088   6.749   8.053 -0.1653  0.2776 -0.0386
 3343TIP3    H131588   3.057   6.817   7.994 -0.0664 -0.5711 -1.0902
 3343TIP3    H231589   3.118   6.796   8.131  1.8104  1.6173 -1.5237
 3344TIP3   OH231590   3.723   5.133   1.051  0.4202 -0.5878 -0.3448
 3344TIP3    H131591   3.688   5.066   1.109 -0.6159 -0.3038 -0.6274
 3344TIP3    H231592   3.705   5.216   1.097  1.3848 -0.4750 -0.1532
 3345TIP3   OH231593   4.840   1.998   7.823  0.5223 -0.1867 -0.1047
 3345TIP3    H131594   4.870   2.088   7.810  1.2887 -0.6867 -2.1476
 3345TIP3    H231595   4.786   2.002   7.902  1.6244  1.7886  0.6122
 3346TIP3   OH231596   1.930   5.542   8.091  0.0781 -0.5733  0.4610
 3346TIP3    H131597   1.879   5.509   8.164 -0.6220 -1.4653 -0.4184
 3346TIP3    H231598   2.016   5.561   8.130  0.1928 -2.4212  1.2314
 3347TIP3   OH231599   2.456   3.267   7.807  0.0043  0.0359 -0.0288
 3347TIP3    H131600   2.392   3.337   7.821 -0.4452  0.0570 -1.9034
 3347TIP3    H231601   2.453   3.251   7.713  0.6926 -1.9630  0.2508
 3348TIP3   OH231602   6.357   3.041   1.969  0.1496  0.1599 -0.0909
 3348TIP3    H131603   6.362   2.945   1.964  1.0878  0.2141 -0.3196
 3348TIP3    H231604   6.413   3.064   2.043  0.5189  0.5733 -0.4934
 3349TIP3   OH231605   0.334   0.962   1.578 -0.5728  0.5291 -0.9658
 3349TIP3    H131606   0.303   1.004   1.658 -1.5578 -0.2202 -0.9425
 3349TIP3    H231607   0.318   0.869   1.592  2.4773 -0.0437 -0.6013
 3350TIP3   OH231608   1.754   0.809   2.147 -0.3281 -0.1815  0.1767
 3350TIP3    H131609   1.814   0.734   2.144 -1.0123 -0.7176 -0.5755
 3350TIP3    H231610   1.801   0.875   2.198  1.5118 -0.0839 -1.4925
 3351TIP3   OH231611   3.864   2.641   7.249 -0.2459  0.3595  0.7504
 3351TIP3    H131612   3.818   2.563   7.280 -0.7732  0.9023  1.3631
 3351TIP3    H231613   3.827   2.713   7.300  0.2585  1.0106  0.2222
 3352TIP3   OH231614   5.928   0.470   0.548 -0.1568 -0.0749  0.4030
 3352TIP3    H131615   5.852   0.471   0.490 -0.2416 -0.6418  0.5036
 3352TIP3    H231616   5.891   0.467   0.637 -0.0216 -0.7587  0.4429
 3353TIP3   OH231617   1.210   1.879   7.118  0.7577 -0.1451 -0.2847
 3353TIP3    H131618   1.119   1.876   7.088  0.9930  0.3561 -1.0788
 3353TIP3    H231619   1.262   1.870   7.038  1.4028  0.4092  0.0672
 3354TIP3   OH231620   5.335   4.702   1.398  0.0966 -0.2222 -0.1054
 3354TIP3    H131621   5.300   4.626   1.444  0.2492  0.2067  0.7478
 3354TIP3    H231622   5.409   4.667   1.348  1.1213 -0.4159  1.4475
 3355TIP3   OH231623   6.153   2.316   1.529 -0.5288  0.3994  0.4025
 3355TIP3    H131624   6.120   2.230   1.553 -0.6551  0.0005 -1.1427
 3355TIP3    H231625   6.241   2.300   1.494 -1.2345  0.6332 -1.5987
 3356TIP3   OH231626   1.477   2.220   8.156 -0.3942  0.4743 -0.1054
 3356TIP3    H131627   1.507   2.299   8.201  0.3433  0.7995 -1.1313
 3356TIP3    H231628   1.446   2.251   8.071 -2.5135 -0.0264  0.4366
 3357TIP3   OH231629   5.459   2.323   0.109 -0.0906  0.4464 -0.2327
 3357TIP3    H131630   5.457   2.245   0.055  0.0715 -0.0701  0.4921
 3357TIP3    H231631   5.545   2.362   0.093  0.2205 -0.0708  0.1546
 3358TIP3   OH231632   0.054   1.359   7.397  0.2707  0.2148 -0.2395
 3358TIP3    H131633  -0.015   1.299   7.425  0.8822  0.4876  2.0222
 3358TIP3    H231634   0.122   1.350   7.464  0.9380  2.4540 -0.5464
 3359TIP3   OH231635   1.892   3.265   2.454 -0.1347 -0.7888  0.4954
 3359TIP3    H131636   1.847   3.336   2.499  0.4738 -0.3719  0.4657
 3359TIP3    H231637   1.939   3.308   2.382 -2.1402 -1.5878 -1.3975
 3360TIP3   OH231638   3.928   6.189   8.584  0.0920 -0.1785 -0.0905
 3360TIP3    H131639   3.940   6.178   8.679 -1.5384 -2.3169 -0.0455
 3360TIP3    H231640   4.014   6.216   8.553  0.9112 -0.2574  1.9042
 3361TIP3   OH231641   4.528   5.845   6.106  0.0953  0.3211  0.4524
 3361TIP3    H131642   4.493   5.915   6.051 -0.8988 -1.4331 -1.2756
 3361TIP3    H231643   4.460   5.831   6.173  0.1871  0.8105  0.6541
 3362TIP3   OH231644   0.914   4.640   1.233 -0.0565 -0.0433 -0.0848
 3362TIP3    H131645   0.909   4.619   1.326 -0.5487 -2.8304 -0.6697
 3362TIP3    H231646   0.873   4.566   1.189  2.6967 -0.1938 -2.6902
 3363TIP3   OH231647   0.128   6.021   7.103  0.0265 -0.1229  0.1487
 3363TIP3    H131648   0.181   6.099   7.121  0.0808  0.3495 -1.7934
 3363TIP3    H231649   0.191   5.954   7.076 -0.0190 -0.8881  1.8277
 3364TIP3   OH231650   1.139   2.929   7.970 -0.3085 -0.4026 -0.1972
 3364TIP3    H131651   1.115   3.021   7.959 -0.6524 -0.0863  2.4602
 3364TIP3    H231652   1.150   2.895   7.881 -1.1164  1.9480 -1.2485
 3365TIP3   OH231653   1.326   3.566   7.884 -0.1441 -0.1521 -0.0665
 3365TIP3    H131654   1.301   3.500   7.948 -0.5700 -0.7812 -0.8599
 3365TIP3    H231655   1.244   3.590   7.841  0.1829  0.0011 -0.6154
 3366TIP3   OH231656   1.402   1.827   8.439 -0.4685  0.0223  0.4577
 3366TIP3    H131657   1.437   1.883   8.370  0.3959  1.4684  1.9926
 3366TIP3    H231658   1.308   1.845   8.439 -0.8567 -1.6130 -1.6918
 3367TIP3   OH231659   5.333   5.815   8.384  0.1968  0.6785 -0.2001
 3367TIP3    H131660   5.262   5.877   8.368  0.4057  1.3394  1.2447
 3367TIP3    H231661   5.311   5.774   8.468  0.8149 -0.1181 -0.4172
 3368TIP3   OH231662   0.628   4.512   1.270  0.2542 -0.2790 -0.2352
 3368TIP3    H131663   0.560   4.446   1.261  1.5299 -1.4980 -1.5556
 3368TIP3    H231664   0.655   4.531   1.180  2.8477 -1.1999  0.2552
 3369TIP3   OH231665   6.176   0.099   8.752 -0.0804 -0.5378  0.5011
 3369TIP3    H131666   6.153   0.192   8.757 -0.5592 -0.5047 -1.5158
 3369TIP3    H231667   6.092   0.054   8.763 -0.1929 -0.6300 -0.5996
 3370TIP3   OH231668   5.782   4.318   7.959  0.4420  0.1439 -0.0544
 3370TIP3    H131669   5.792   4.254   7.890 -1.2319 -1.0152  0.7129
 3370TIP3    H231670   5.750   4.397   7.915 -0.6179 -0.5834 -0.6191
 3371TIP3   OH231671   0.777   1.797   0.880  0.3067  0.0799  0.0415
 3371TIP3    H131672   0.699   1.826   0.832  0.5949  0.6237 -0.1124
 3371TIP3    H231673   0.750   1.717   0.924  0.0135 -0.4129 -0.9958
 3372TIP3   OH231674   2.911   6.574   7.134  0.3311  0.8889  0.5523
 3372TIP3    H131675   2.966   6.604   7.061  2.1108  1.1677  1.9378
 3372TIP3    H231676   2.918   6.479   7.131 -1.9498  0.6772 -1.3101
 3373TIP3   OH231677   6.539   6.250   7.384 -0.0775 -0.0049  0.7715
 3373TIP3    H131678   6.577   6.162   7.388  0.7929  0.3827  1.4415
 3373TIP3    H231679   6.601   6.300   7.330  0.0818  0.4996  1.4166
 3374TIP3   OH231680   0.707   4.220   7.961 -0.3515 -0.8906 -0.0362
 3374TIP3    H131681   0.779   4.183   7.910  0.9295 -0.6771  1.5486
 3374TIP3    H231682   0.628   4.187   7.918  0.6689 -4.2948  0.4097
 3375TIP3   OH231683   2.773   3.616   8.164  0.1791 -0.2511  0.1683
 3375TIP3    H131684   2.850   3.655   8.123 -1.1831  0.4246 -1.9154
 3375TIP3    H231685   2.701   3.673   8.139 -1.1845 -1.4786  1.1013
 3376TIP3   OH231686   4.608   1.231   1.678 -0.1562  0.0423  0.6772
 3376TIP3    H131687   4.643   1.294   1.741 -0.0525  2.6050 -1.7355
 3376TIP3    H231688   4.677   1.222   1.612 -0.3667 -2.3129  0.7146
 3377TIP3   OH231689   0.213   6.460   8.145 -0.1235  0.1943  0.3565
 3377TIP3    H131690   0.170   6.375   8.159  0.7548 -0.0605  1.6042
 3377TIP3    H231691   0.306   6.442   8.155  0.1924  1.0330 -0.8550
 3378TIP3   OH231692   0.703   3.382   0.625 -0.0740  0.3940 -0.1706
 3378TIP3    H131693   0.680   3.312   0.686 -1.2793  1.2827  0.4310
 3378TIP3    H231694   0.749   3.337   0.554 -0.0492 -0.8814  0.6167
 3379TIP3   OH231695   1.943   1.918   2.349 -0.5113 -0.4037 -0.3607
 3379TIP3    H131696   1.921   1.912   2.256 -0.9322 -1.0519 -0.2271
 3379TIP3    H231697   1.968   1.829   2.374  1.7153  0.1737 -0.3564
 3380TIP3   OH231698   5.629   6.756   0.626 -0.1121 -0.3751 -0.1202
 3380TIP3    H131699   5.663   6.787   0.710 -0.4169  2.2074 -0.8749
 3380TIP3    H231700   5.543   6.719   0.646  0.7418 -1.8992  0.9780
 3381TIP3   OH231701   0.613   1.922   6.809  0.2354 -0.2202 -0.0249
 3381TIP3    H131702   0.622   2.015   6.788 -1.9011  0.2137  0.7573
 3381TIP3    H231703   0.638   1.877   6.728  1.4582  1.0123 -0.3696
 3382TIP3   OH231704   4.658   5.140   7.164  0.2718 -0.5201 -0.8440
 3382TIP3    H131705   4.656   5.046   7.184  1.2912 -0.6150 -1.1082
 3382TIP3    H231706   4.588   5.152   7.099 -0.4291 -0.9295 -0.1800
 3383TIP3   OH231707   2.043   2.119   6.639 -0.4114 -0.1323 -0.2245
 3383TIP3    H131708   2.064   2.128   6.732 -1.5308  0.5577 -0.0181
 3383TIP3    H231709   2.005   2.031   6.631 -2.7276  0.7177  0.5091
 3384TIP3   OH231710   1.254   4.753   2.268 -0.1161 -0.1058 -0.0177
 3384TIP3    H131711   1.329   4.773   2.324  1.0490  0.5338 -1.7600
 3384TIP3    H231712   1.258   4.659   2.255  0.2658 -0.1019  0.0666
 3385TIP3   OH231713   0.762   2.244   1.642  0.0372 -0.3694 -0.2348
 3385TIP3    H131714   0.830   2.279   1.700 -0.8478  1.0568 -0.0066
 3385TIP3    H231715   0.679   2.267   1.685 -0.6466  0.8876 -2.1070
 3386TIP3   OH231716   6.044   2.913   7.319 -0.3158  0.3449  0.2691
 3386TIP3    H131717   6.064   3.000   7.353 -0.1905  0.0351  1.0068
 3386TIP3    H231718   5.971   2.882   7.372 -1.9256  0.8981 -1.4792
 3387TIP3   OH231719   0.404   1.813   6.941 -0.0257  0.2547  0.1478
 3387TIP3    H131720   0.342   1.886   6.952  0.6759  1.0073 -0.6901
 3387TIP3    H231721   0.479   1.852   6.896 -0.7095 -1.4822 -2.8150
 3388TIP3   OH231722   5.590   2.095   0.638 -0.0156 -0.5125 -0.3010
 3388TIP3    H131723   5.567   2.172   0.586 -3.1284 -1.9163 -1.2107
 3388TIP3    H231724   5.572   2.121   0.729  0.6613  0.3714 -0.4124
 3389TIP3   OH231725   2.989   3.727   6.873  0.4569 -0.0615  0.3257
 3389TIP3    H131726   3.064   3.777   6.842  0.5827 -0.9049 -0.7988
 3389TIP3    H231727   3.015   3.696   6.960  1.3250 -0.1428  0.0455
 3390TIP3   OH231728   1.438   1.464   7.545  0.3746 -0.1521 -0.5073
 3390TIP3    H131729   1.499   1.419   7.486  0.6854  0.6724 -0.8450
 3390TIP3    H231730   1.423   1.549   7.502  1.6719  1.0286  1.2257
 3391TIP3   OH231731   6.800   1.513   0.743 -0.0681  0.0843 -0.3414
 3391TIP3    H131732   6.816   1.484   0.653 -0.0045 -0.9765 -0.0048
 3391TIP3    H231733   6.705   1.519   0.750 -0.0543  0.6783 -0.6276
 3392TIP3   OH231734   3.254   4.385   8.788  0.1776 -0.1751  0.1324
 3392TIP3    H131735   3.166   4.347   8.781  0.2133 -0.8774  2.6406
 3392TIP3    H231736   3.239   4.479   8.793 -0.3847 -0.2566  0.0361
 3393TIP3   OH231737   0.785   6.590   7.758  0.0851 -0.3637 -0.2238
 3393TIP3    H131738   0.827   6.671   7.731  0.4794 -0.6348 -0.4428
 3393TIP3    H231739   0.712   6.617   7.814  1.4611  0.0746  1.4290
 3394TIP3   OH231740   1.994   2.210   2.005 -0.2224 -0.4827  0.6030
 3394TIP3    H131741   2.047   2.289   2.009  0.7377 -1.1503  2.2502
 3394TIP3    H231742   1.966   2.204   1.914  0.2135  1.3891  0.3086
 3395TIP3   OH231743   2.812   1.574   7.216  0.1913  0.2791 -0.1345
 3395TIP3    H131744   2.873   1.586   7.144 -0.2774 -0.2513 -0.6249
 3395TIP3    H231745   2.801   1.662   7.253 -0.6957  0.8142 -1.6213
 3396TIP3   OH231746   4.574   3.013   7.598  0.1646  0.2394  0.3048
 3396TIP3    H131747   4.567   3.097   7.552  0.6862  0.6969  1.0443
 3396TIP3    H231748   4.623   2.957   7.538  1.2603  0.9814  0.4943
 3397TIP3   OH231749   3.225   0.607   7.553 -0.2273  0.3343 -0.2327
 3397TIP3    H131750   3.264   0.577   7.635 -0.3486  0.1507 -0.2407
 3397TIP3    H231751   3.257   0.545   7.487 -2.0661 -1.0398  0.0661
 3398TIP3   OH231752   5.529   5.814   0.294 -0.1069  0.3191 -0.0439
 3398TIP3    H131753   5.440   5.783   0.310  0.2489 -0.3839  0.6167
 3398TIP3    H231754   5.531   5.902   0.332  0.3227 -0.8016  2.6939
 3399TIP3   OH231755   5.559   5.458   8.314  0.6121  0.5764 -0.4936
 3399TIP3    H131756   5.530   5.370   8.288  0.3932  0.3957  0.3308
 3399TIP3    H231757   5.586   5.499   8.232  0.9900 -0.3579 -0.8585
 3400TIP3   OH231758   0.527   4.089   6.823  0.0636  0.6721 -0.4631
 3400TIP3    H131759   0.487   4.166   6.782 -0.2894  0.4806 -0.4779
 3400TIP3    H231760   0.621   4.102   6.811  0.0876  1.7170  0.6060
 3401TIP3   OH231761   4.379   0.832   6.807 -0.1951  0.2605  0.2629
 3401TIP3    H131762   4.338   0.746   6.812  0.7968 -0.1917  0.9340
 3401TIP3    H231763   4.425   0.842   6.891  1.2560  0.6230 -0.5363
 3402TIP3   OH231764   4.220   2.974   0.861 -0.0265 -0.5016  0.6377
 3402TIP3    H131765   4.176   3.054   0.890  0.4727 -0.4179  1.1856
 3402TIP3    H231766   4.281   2.954   0.932  1.9381  0.2582 -0.7413
 3403TIP3   OH231767   6.679   0.203   7.159  0.7938 -0.5145 -0.1876
 3403TIP3    H131768   6.649   0.174   7.073  3.6325 -0.3579 -1.3184
 3403TIP3    H231769   6.743   0.138   7.186  0.1586 -0.4141  1.7411
 3404TIP3   OH231770   1.880   2.628   8.791 -0.5873 -0.2577 -0.1097
 3404TIP3    H131771   1.960   2.631   8.738 -0.5393 -0.8606 -0.0788
 3404TIP3    H231772   1.816   2.582   8.736 -0.5662 -0.8028  0.3085
 3405TIP3   OH231773   0.080   0.027   1.014  0.0802  0.4510  0.1762
 3405TIP3    H131774   0.071   0.118   1.039 -1.1292  1.5731 -3.6367
 3405TIP3    H231775   0.174   0.016   0.997 -0.0834  2.0258 -2.2582
 3406TIP3   OH231776   5.648   6.590   7.619  0.8982 -0.5877 -0.5325
 3406TIP3    H131777   5.663   6.616   7.528  0.7150 -2.8687 -1.2722
 3406TIP3    H231778   5.570   6.536   7.617 -0.4486  1.1131  1.3925
 3407TIP3   OH231779   1.651   5.173   1.938  0.4058  0.4523  0.1079
 3407TIP3    H131780   1.729   5.202   1.891  1.2720 -1.2733  0.3921
 3407TIP3    H231781   1.668   5.195   2.030  0.1217  0.9260  0.0528
 3408TIP3   OH231782   4.717   2.293   7.967  0.0672  0.1939 -0.0774
 3408TIP3    H131783   4.754   2.350   8.035  0.7663 -1.0078  0.5898
 3408TIP3    H231784   4.622   2.310   7.971  0.1081  0.2298  1.1278
 3409TIP3   OH231785   2.258   5.586   8.461  0.0621 -0.0543 -0.2330
 3409TIP3    H131786   2.295   5.497   8.455 -0.7788 -0.6089  1.8120
 3409TIP3    H231787   2.333   5.642   8.482  0.5805 -0.2557 -1.4235
 3410TIP3   OH231788   1.501   5.725   0.216  0.0171  0.1772 -0.1473
 3410TIP3    H131789   1.565   5.739   0.147 -0.7478 -0.1986 -0.9464
 3410TIP3    H231790   1.495   5.810   0.261 -1.6196  1.3556 -2.4054
 3411TIP3   OH231791   1.728   5.846   2.365  0.4121  0.2317 -0.5598
 3411TIP3    H131792   1.655   5.865   2.306  0.2361 -0.3151 -0.5289
 3411TIP3    H231793   1.725   5.750   2.376  0.6761  0.2878  0.0266
 3412TIP3   OH231794   3.258   5.170   0.523 -0.3614 -0.4902 -0.3793
 3412TIP3    H131795   3.241   5.130   0.438 -0.5534  1.0972 -1.1077
 3412TIP3    H231796   3.173   5.204   0.552 -0.4170 -1.4715  0.7247
 3413TIP3   OH231797   2.874   3.444   0.707 -0.0256 -0.7991 -0.2721
 3413TIP3    H131798   2.836   3.529   0.727  2.4891  0.4769 -0.4969
 3413TIP3    H231799   2.936   3.428   0.778  0.8406 -1.5540 -1.1681
 3414TIP3   OH231800   6.332   3.101   8.600 -0.2267 -0.0146 -0.4970
 3414TIP3    H131801   6.244   3.068   8.578 -0.2639  0.2670 -0.7822
 3414TIP3    H231802   6.318   3.194   8.618  0.0737  0.1218 -0.9397
 3415TIP3   OH231803   3.310   0.803   0.060  0.1565  0.4455  0.6703
 3415TIP3    H131804   3.364   0.819  -0.017  2.2714  1.4408  2.2637
 3415TIP3    H231805   3.334   0.714   0.087 -1.2683 -0.2686 -0.2662
 3416TIP3   OH231806   2.630   5.082   8.787 -0.3014  0.1324  0.3204
 3416TIP3    H131807   2.708   5.049   8.742 -0.0364  1.8700 -0.5604
 3416TIP3    H231808   2.563   5.015   8.771  0.8838 -1.2113  0.7965
 3417TIP3   OH231809   5.811   2.417   8.102 -0.9817 -0.6595 -0.3326
 3417TIP3    H131810   5.887   2.359   8.092 -1.4285 -1.2703 -0.2395
 3417TIP3    H231811   5.835   2.474   8.175 -0.0446  0.0815 -1.1957
 3418TIP3   OH231812   4.334   5.240   0.450  0.1919  0.2048 -0.3204
 3418TIP3    H131813   4.417   5.192   0.438  0.1687  0.1436 -0.2343
 3418TIP3    H231814   4.275   5.176   0.489  0.1608  0.3032 -0.2048
 3419TIP3   OH231815   4.877   2.408   8.554  0.3211  0.1185  0.0594
 3419TIP3    H131816   4.820   2.485   8.554  0.0642 -0.0492  1.1818
 3419TIP3    H231817   4.945   2.430   8.618  0.6302 -0.3151 -0.1229
 3420TIP3   OH231818   0.776   1.543   0.270  0.0784  0.1948  0.0642
 3420TIP3    H131819   0.837   1.557   0.198 -1.0296 -0.3839 -1.0300
 3420TIP3    H231820   0.705   1.491   0.231 -1.6559  1.7557  0.9797
 3421TIP3   OH231821   4.695   2.429   7.294  0.2350  0.0269  0.4690
 3421TIP3    H131822   4.751   2.363   7.334 -0.4599 -0.6207  0.4015
 3421TIP3    H231823   4.643   2.464   7.367  0.3886  0.2973  0.4540
 3422TIP3   OH231824   5.759   1.380   0.552  0.4343  0.1306  0.0797
 3422TIP3    H131825   5.737   1.442   0.622 -0.2821 -1.4966  1.3503
 3422TIP3    H231826   5.829   1.326   0.588 -0.6985 -1.4523  0.0030
 3423TIP3   OH231827   5.943   4.706   7.876 -0.2325  0.5720  0.1500
 3423TIP3    H131828   5.980   4.794   7.882 -0.6818  0.6808  1.8491
 3423TIP3    H231829   6.012   4.649   7.908 -1.0953  0.6841  2.3926
 3424TIP3   OH231830   1.835   6.169   0.233  0.5604 -0.5706  0.4412
 3424TIP3    H131831   1.895   6.163   0.158 -1.4016 -0.1055 -1.2765
 3424TIP3    H231832   1.834   6.080   0.269  0.5280 -1.1791 -0.9709
 3425TIP3   OH231833   5.854   2.128   7.974 -0.5799 -0.1110  0.0241
 3425TIP3    H131834   5.900   2.206   7.946 -0.4947 -0.4465 -0.7975
 3425TIP3    H231835   5.868   2.065   7.904 -2.2389 -0.2385 -0.2349
 3426TIP3   OH231836   0.231   3.242   7.961  0.4976  0.1396  0.5452
 3426TIP3    H131837   0.320   3.227   7.992  1.1629  1.8209 -0.4175
 3426TIP3    H231838   0.211   3.332   7.989 -0.3293  0.3102 -0.5283
 3427TIP3   OH231839   3.583   6.090   0.535  0.2512 -0.2227  0.7958
 3427TIP3    H131840   3.523   6.060   0.603 -0.0923 -1.5447 -0.0523
 3427TIP3    H231841   3.530   6.149   0.480 -0.0724 -0.8081  0.4737
 3428TIP3   OH231842   1.359   1.901   0.654  0.6491  0.5688 -0.3312
 3428TIP3    H131843   1.284   1.854   0.619  0.4625 -0.2600  1.0873
 3428TIP3    H231844   1.435   1.846   0.632  0.6946  0.7429 -0.6165
 3429TIP3   OH231845   5.461   0.459   8.666 -0.4726  0.0905 -0.2775
 3429TIP3    H131846   5.556   0.469   8.665 -0.2939 -0.7630  2.1306
 3429TIP3    H231847   5.442   0.402   8.591  1.0504 -0.7542 -0.0494
 3430TIP3   OH231848   2.769   3.602   0.143  0.2451 -0.2740 -0.2345
 3430TIP3    H131849   2.710   3.588   0.069  0.4389 -1.1555 -0.2328
 3430TIP3    H231850   2.714   3.589   0.220  0.6147 -2.0637 -0.2241
 3431TIP3   OH231851   1.164   4.178   0.775 -0.5149 -0.2502  0.3169
 3431TIP3    H131852   1.143   4.135   0.858 -2.1712 -3.8881 -1.7354
 3431TIP3    H231853   1.256   4.159   0.761 -0.1202  0.7205  1.4473
 3432TIP3   OH231854   3.428   5.197   0.730 -0.2854  0.3467 -0.5499
 3432TIP3    H131855   3.365   5.226   0.796 -1.9491 -1.1366 -1.3800
 3432TIP3    H231856   3.373   5.164   0.658  1.4288 -1.7703 -0.9823
 3433TIP3   OH231857   5.877   0.025   8.817 -0.0874  0.3586  0.0647
 3433TIP3    H131858   5.885  -0.070   8.808  1.3587  0.5831 -1.7320
 3433TIP3    H231859   5.783   0.040   8.824 -0.3156 -1.2234  0.9141
 3434TIP3   OH231860   6.312   5.489   1.317 -0.1227 -0.2673 -0.3793
 3434TIP3    H131861   6.252   5.456   1.251 -0.0359 -1.0186 -0.0876
 3434TIP3    H231862   6.391   5.513   1.268 -0.4700  0.2603 -0.6936
 3435TIP3   OH231863   5.826   2.813   6.095  0.0827  0.1054  0.3457
 3435TIP3    H131864   5.778   2.847   6.019  0.5699  2.6759  1.1145
 3435TIP3    H231865   5.841   2.721   6.074 -0.7163  0.4783 -2.1944
 3436TIP3   OH231866   2.949   1.073   0.226 -0.8024  0.1741  0.1158
 3436TIP3    H131867   3.006   1.097   0.153 -0.9199  1.0581  0.3022
 3436TIP3    H231868   2.944   1.152   0.279  0.3911 -0.8683  1.8471
 3437TIP3   OH231869   5.217   4.922   8.456 -0.6053  0.2048  0.5372
 3437TIP3    H131870   5.145   4.863   8.430 -1.3371  0.2320  2.3352
 3437TIP3    H231871   5.294   4.884   8.415 -1.3577 -0.9383  0.1078
 3438TIP3   OH231872   6.291   6.378   1.061  0.0310  0.0432 -0.1193
 3438TIP3    H131873   6.239   6.350   1.137  0.9225 -0.0532  0.4686
 3438TIP3    H231874   6.257   6.324   0.989  0.6067 -1.4295  0.6542
 3439TIP3   OH231875   2.950   3.868   2.016  0.5576  0.1353  0.2822
 3439TIP3    H131876   2.955   3.883   2.111  5.0852 -0.1944  0.3340
 3439TIP3    H231877   2.985   3.948   1.977 -1.7378  0.4797 -1.2704
 3440TIP3   OH231878   6.098   1.054   1.988  0.1597 -1.1141 -0.0125
 3440TIP3    H131879   6.140   1.021   2.067 -0.1800  1.8333  1.5556
 3440TIP3    H231880   6.004   1.041   2.003  0.1554 -1.5883 -0.4469
 3441TIP3   OH231881   0.962   1.989   0.824  0.0660 -0.3746  0.3099
 3441TIP3    H131882   0.953   1.893   0.828 -0.9218 -0.3439 -0.5671
 3441TIP3    H231883   0.902   2.021   0.892 -1.3078 -0.3484 -0.8665
 3442TIP3   OH231884   3.004   0.791   8.428 -0.0813 -0.5772 -0.3875
 3442TIP3    H131885   2.998   0.701   8.394  1.1902 -1.4763  1.5744
 3442TIP3    H231886   3.062   0.784   8.504 -0.2404  1.8686  0.0377
 3443TIP3   OH231887   1.168   5.520   0.631 -0.4980 -0.8519  0.5297
 3443TIP3    H131888   1.147   5.470   0.552 -0.5333 -1.2977  0.8160
 3443TIP3    H231889   1.245   5.571   0.607 -0.7468 -0.6821  0.0841
 3444TIP3   OH231890   3.873   0.165   0.389  0.0104 -0.4938 -0.5688
 3444TIP3    H131891   3.854   0.140   0.479  1.8836  1.2398  0.4070
 3444TIP3    H231892   3.841   0.255   0.381 -0.4813 -0.7555 -1.7648
 3445TIP3   OH231893   1.123   6.400   8.014 -0.4688 -0.4097 -0.4436
 3445TIP3    H131894   1.166   6.420   7.930  0.4802 -0.5637 -0.0072
 3445TIP3    H231895   1.038   6.444   8.009  0.4737  1.4753 -0.5878
 3446TIP3   OH231896   4.761   1.091   7.161  0.3832 -0.0781  0.0522
 3446TIP3    H131897   4.803   1.010   7.131 -1.3425 -1.8190  1.9963
 3446TIP3    H231898   4.716   1.066   7.241 -2.9585  1.9842 -0.9639
 3447TIP3   OH231899   5.722   2.161   8.216 -0.2698  0.5523  0.3296
 3447TIP3    H131900   5.766   2.111   8.147  0.8762  0.8474  0.8258
 3447TIP3    H231901   5.736   2.253   8.191 -1.3686  0.6546  0.0365
 3448TIP3   OH231902   1.363   1.105   7.811  0.2073 -0.3549 -0.2809
 3448TIP3    H131903   1.411   1.024   7.797  0.3009 -0.0842 -1.6750
 3448TIP3    H231904   1.271   1.082   7.795  0.1295 -0.3706  0.1706
 3449TIP3   OH231905   5.565   1.905   2.284  0.2071  0.3358  0.3460
 3449TIP3    H131906   5.572   1.949   2.199  0.4009 -1.0104 -0.3653
 3449TIP3    H231907   5.522   1.969   2.341 -1.2781  0.7468 -1.1531
 3450TIP3   OH231908   0.610   5.311   0.895  0.1213 -0.5040 -0.0500
 3450TIP3    H131909   0.676   5.244   0.913  1.1164 -0.2729 -2.5083
 3450TIP3    H231910   0.598   5.309   0.800 -0.2623  2.3500 -0.1604
 3451TIP3   OH231911   1.354   1.881   1.109 -0.0497  0.2673 -0.0247
 3451TIP3    H131912   1.338   1.964   1.064 -0.1337  1.0759  1.4429
 3451TIP3    H231913   1.395   1.825   1.042  1.5951  2.0485 -0.5897
 3452TIP3   OH231914   6.259   1.666   8.644 -0.0978 -0.3821  0.8508
 3452TIP3    H131915   6.190   1.602   8.663 -0.2747 -0.2404  0.6828
 3452TIP3    H231916   6.238   1.741   8.700  0.9105 -1.0132  2.1274
 3453TIP3   OH231917   3.687   4.940   7.520  0.5922  0.1671  0.6388
 3453TIP3    H131918   3.663   4.920   7.611  0.6325 -0.6773  0.4741
 3453TIP3    H231919   3.764   4.886   7.504 -0.2460 -0.7771 -0.3391
 3454TIP3   OH231920   3.522   5.205   1.493  1.0837  0.5207 -0.0656
 3454TIP3    H131921   3.481   5.128   1.456  2.6190  0.1829 -1.1868
 3454TIP3    H231922   3.491   5.209   1.584 -0.0858 -0.6055 -0.4026
 3455TIP3   OH231923   0.360   2.091   6.733  0.0554 -0.0581  0.0253
 3455TIP3    H131924   0.355   2.124   6.822 -0.9909  1.3168 -0.4927
 3455TIP3    H231925   0.307   2.012   6.733 -1.8006  1.1073  0.1910
 3456TIP3   OH231926   3.544   2.698   6.885 -0.0443  0.0682 -0.4731
 3456TIP3    H131927   3.579   2.753   6.956 -0.5757  0.0337 -0.1826
 3456TIP3    H231928   3.466   2.743   6.856  0.1491  0.0576 -1.0177
 3457TIP3   OH231929   1.273   3.007   0.958  0.1571 -0.2986  0.0846
 3457TIP3    H131930   1.221   2.932   0.928  0.0687 -0.5958  0.9576
 3457TIP3    H231931   1.352   2.968   0.996 -1.4647 -0.2625  3.8772
 3458TIP3   OH231932   0.259   2.806   2.089  0.0180 -0.3566  0.1941
 3458TIP3    H131933   0.192   2.746   2.056 -0.0434  0.2835 -0.8890
 3458TIP3    H231934   0.342   2.763   2.067 -0.0264 -0.6180  0.5266
 3459TIP3   OH231935   1.583   1.563   6.936 -0.1583 -0.2243  0.6301
 3459TIP3    H131936   1.542   1.584   7.020 -1.6391  2.0099 -0.5563
 3459TIP3    H231937   1.509   1.538   6.880  0.7712 -1.3378 -0.1345
 3460TIP3   OH231938   6.207   4.036   6.557  0.3157  0.3925 -0.4352
 3460TIP3    H131939   6.178   4.103   6.619  2.8053  0.1792  1.1351
 3460TIP3    H231940   6.167   3.955   6.590 -1.1757  0.7825 -1.2222
 3461TIP3   OH231941   1.585   3.802   1.110 -0.0084 -0.1117  0.4757
 3461TIP3    H131942   1.511   3.754   1.148  0.6153 -1.5349 -0.0152
 3461TIP3    H231943   1.662   3.767   1.155  0.5772 -0.5375 -0.8022
 3462TIP3   OH231944   1.978   5.511   0.157  0.3761 -0.3753 -0.1237
 3462TIP3    H131945   1.924   5.577   0.201  0.5188 -0.5151  0.2684
 3462TIP3    H231946   2.032   5.561   0.096  0.2248 -0.1702 -0.0906
 3463TIP3   OH231947   6.626   4.330   0.966  0.2660 -0.2601 -0.6167
 3463TIP3    H131948   6.588   4.415   0.943 -0.1523 -0.2630  0.0492
 3463TIP3    H231949   6.579   4.267   0.911  0.5877 -0.0700 -1.1217
 3464TIP3   OH231950   1.095   3.191   7.862  0.3369 -0.1624  0.4532
 3464TIP3    H131951   1.092   3.265   7.922  0.0164 -1.6944  2.4354
 3464TIP3    H231952   1.051   3.222   7.783  2.2036  2.4584  0.3116
 3465TIP3   OH231953   1.244   1.379   8.121 -0.0702  0.1782  0.4207
 3465TIP3    H131954   1.304   1.323   8.072  0.0253  0.4389  0.2370
 3465TIP3    H231955   1.299   1.421   8.187 -0.3965 -1.0281  1.5090
 3466TIP3   OH231956   6.553   0.074   2.164 -0.0465  0.0149  0.1877
 3466TIP3    H131957   6.503   0.011   2.112 -1.4629  0.2173  1.2317
 3466TIP3    H231958   6.635   0.030   2.183 -0.4520 -0.9678 -0.2659
 3467TIP3   OH231959   0.277   1.088   2.502 -0.1455 -0.2030  0.5609
 3467TIP3    H131960   0.360   1.112   2.461 -0.1548 -0.4129  0.4170
 3467TIP3    H231961   0.222   1.166   2.493 -0.4938 -0.5562 -0.7283
 3468TIP3   OH231962   6.591   4.636   7.153  0.8388  0.2982 -0.1225
 3468TIP3    H131963   6.505   4.595   7.145  0.1237  1.2637  1.9182
 3468TIP3    H231964   6.574   4.729   7.143  1.9138  0.4069 -1.1884
 3469TIP3   OH231965   5.681   5.365   1.457 -0.1300 -0.4641  0.5168
 3469TIP3    H131966   5.773   5.379   1.435 -0.0285 -0.9045  0.6529
 3469TIP3    H231967   5.661   5.436   1.519 -0.2800  0.4708 -0.5580
 3470TIP3   OH231968   3.825   2.726   8.614 -0.2057  0.1985 -0.3792
 3470TIP3    H131969   3.913   2.751   8.586  0.7083 -1.4184  0.8344
 3470TIP3    H231970   3.832   2.715   8.709 -2.4752  2.8036  0.2194
 3471TIP3   OH231971   6.584   1.479   0.999  0.2567 -0.4465 -0.0852
 3471TIP3    H131972   6.673   1.448   0.985  0.0831 -0.4326 -1.3507
 3471TIP3    H231973   6.551   1.497   0.911 -1.4592 -1.7576  0.2319
 3472TIP3   OH231974   5.859   3.407   8.122 -0.4773  0.0115 -0.2877
 3472TIP3    H131975   5.772   3.428   8.155  0.1483  0.3290  1.2674
 3472TIP3    H231976   5.855   3.428   8.029 -1.4221  2.1486  0.1668
 3473TIP3   OH231977   1.086   3.842   1.516 -0.5584 -0.3623 -0.1334
 3473TIP3    H131978   1.147   3.769   1.527 -1.1140 -0.5937  1.7682
 3473TIP3    H231979   1.000   3.802   1.520 -0.8943  0.0805 -1.9549
 3474TIP3   OH231980   2.988   5.496   1.857 -0.1690  0.0374  0.8433
 3474TIP3    H131981   3.040   5.416   1.867 -0.8369 -0.3337  1.5716
 3474TIP3    H231982   2.941   5.504   1.941 -0.8020  0.6920  0.4387
 3475TIP3   OH231983   6.064   5.640   1.069 -0.1953  0.2561 -0.5104
 3475TIP3    H131984   5.993   5.673   1.015 -0.3401  0.8761  0.0432
 3475TIP3    H231985   6.073   5.548   1.043 -3.1301 -0.7118  1.3374
 3476TIP3   OH231986   1.279   3.323   1.128  0.0860 -0.0892  0.5717
 3476TIP3    H131987   1.281   3.415   1.101  1.1684  0.3039  1.8845
 3476TIP3    H231988   1.210   3.319   1.195 -0.7206 -0.4848 -0.2630
 3477TIP3   OH231989   0.975   1.688   5.906  0.4097 -0.5302  0.0636
 3477TIP3    H131990   1.035   1.614   5.916  1.0997  0.2166  2.0756
 3477TIP3    H231991   0.903   1.653   5.854  1.9705 -1.8128 -1.3798
 3478TIP3   OH231992   1.172   3.291   8.723  0.1522 -0.4065 -0.0452
 3478TIP3    H131993   1.245   3.247   8.680 -0.1032 -0.9335  0.0577
 3478TIP3    H231994   1.132   3.343   8.654  0.0094 -0.9121 -0.3494
 3479TIP3   OH231995   1.497   1.377   8.628 -0.0842  0.2042 -0.0861
 3479TIP3    H131996   1.419   1.352   8.579 -0.0994  0.8618 -0.4114
 3479TIP3    H231997   1.544   1.295   8.641 -1.1512 -0.3140  0.7002
 3480TIP3   OH231998   2.252   6.015   2.321 -0.2919  0.2063 -0.2656
 3480TIP3    H131999   2.321   5.965   2.365  0.8965  0.5646 -1.6385
 3480TIP3    H232000   2.230   6.085   2.383 -1.1098 -1.2529  1.1552
 3481TIP3   OH232001   2.243   6.062   0.192  0.4803  0.2607 -0.4482
 3481TIP3    H132002   2.271   5.972   0.175 -1.1776  0.1618 -3.2914
 3481TIP3    H232003   2.318   6.102   0.237  1.4275 -2.3780  0.5295
 3482TIP3   OH232004   6.446   5.012   7.443  0.3377 -0.0717  0.0194
 3482TIP3    H132005   6.372   5.059   7.403  1.3101  1.2149 -0.3689
 3482TIP3    H232006   6.415   4.988   7.530 -0.1230  1.6296  0.3686
 3483TIP3   OH232007   2.497   3.367   1.256 -0.1824 -0.5914 -0.3019
 3483TIP3    H132008   2.425   3.385   1.196 -0.0716  0.6526 -0.0930
 3483TIP3    H232009   2.534   3.284   1.226 -2.4609 -1.9078  0.3504
 3484TIP3   OH232010   3.633   6.732   1.673  0.4821  0.8127  0.4271
 3484TIP3    H132011   3.599   6.813   1.636 -0.1044  0.6835  0.6767
 3484TIP3    H232012   3.716   6.717   1.627  0.0047  0.9050 -0.4758
 3485TIP3   OH232013   4.964   0.879   1.199 -0.1715  0.3059 -0.1425
 3485TIP3    H132014   4.875   0.878   1.165 -0.3127  0.0066  0.2337
 3485TIP3    H232015   5.014   0.926   1.132  0.0866 -2.5485 -2.1581
 3486TIP3   OH232016   6.742   6.149   1.266  0.0315  0.0533 -0.6404
 3486TIP3    H132017   6.736   6.179   1.357  0.6355  1.4085 -1.0093
 3486TIP3    H232018   6.791   6.067   1.271 -0.8243 -0.4168  0.3449
 3487TIP3   OH232019   3.820   3.696   2.102  0.5876 -0.2356  0.3252
 3487TIP3    H132020   3.820   3.666   2.193  0.0324 -0.9423  0.1016
 3487TIP3    H232021   3.728   3.719   2.085  0.8990  1.1214  0.3216
 3488TIP3   OH232022   1.727   2.764   6.477  0.2553 -0.0900  0.1553
 3488TIP3    H132023   1.801   2.756   6.418  0.7907 -2.0941  0.9869
 3488TIP3    H232024   1.738   2.691   6.539 -2.4151 -0.4943  0.2844
 3489TIP3   OH232025   5.380   2.735   0.017  0.2287 -0.2741 -0.0494
 3489TIP3    H132026   5.412   2.691   0.096  0.5437  1.3534  0.7776
 3489TIP3    H232027   5.415   2.683  -0.055  0.4442 -1.4544  0.8757
 3490TIP3   OH232028   0.255   5.616   6.620  0.1146  0.0151 -0.3918
 3490TIP3    H132029   0.210   5.628   6.704 -0.1609 -2.8538 -0.0386
 3490TIP3    H232030   0.185   5.610   6.556  0.2423  0.2331 -0.5553
 3491TIP3   OH232031   1.862   5.666   7.589  0.0790 -0.2902 -0.4410
 3491TIP3    H132032   1.912   5.628   7.661  0.7904 -0.0644 -0.8071
 3491TIP3    H232033   1.841   5.591   7.533  0.4672 -0.3161 -0.5567
 3492TIP3   OH232034   4.843   0.852   0.156  0.6149  0.7022  0.3289
 3492TIP3    H132035   4.804   0.786   0.213 -0.0286 -1.8584 -2.8242
 3492TIP3    H232036   4.938   0.841   0.167  0.5017 -0.0167  0.6109
 3493TIP3   OH232037   0.831   6.225   1.249  0.0350  0.1202 -0.0079
 3493TIP3    H132038   0.827   6.234   1.154  0.7240 -0.1638 -0.0730
 3493TIP3    H232039   0.781   6.145   1.268  0.0261  0.0914 -0.1533
 3494TIP3   OH232040   0.976   0.072   1.464  0.1451 -0.0116 -0.3851
 3494TIP3    H132041   0.908   0.139   1.469 -1.1931 -1.3420 -0.2047
 3494TIP3    H232042   1.038   0.095   1.534 -1.9287 -0.7095  1.7943
 3495TIP3   OH232043   3.912   1.043   0.369  0.6354  0.7325  0.3323
 3495TIP3    H132044   3.991   1.019   0.417  1.0867  0.0298 -0.7234
 3495TIP3    H232045   3.867   1.105   0.426  1.2023  0.0179  1.6094
 3496TIP3   OH232046   3.567   1.112   7.094  0.2972  0.3595  0.1834
 3496TIP3    H132047   3.548   1.020   7.080  1.1215  0.4048 -1.5492
 3496TIP3    H232048   3.515   1.137   7.170  0.4253 -1.6328  0.9742
 3497TIP3   OH232049   4.474   2.966   0.409  0.1202  0.2179 -0.1327
 3497TIP3    H132050   4.394   3.013   0.388 -0.1903  0.1762  0.9004
 3497TIP3    H232051   4.449   2.874   0.406 -0.6041  0.2112  2.6832
 3498TIP3   OH232052   1.063   5.629   7.016 -0.0166 -0.2628  0.1672
 3498TIP3    H132053   1.143   5.652   6.967  0.3784 -0.5217  0.6814
 3498TIP3    H232054   1.040   5.542   6.982  0.7092 -0.7932  0.9822
 3499TIP3   OH232055   4.784   4.173   7.729  0.3283 -0.3784  0.4901
 3499TIP3    H132056   4.717   4.215   7.783 -1.0725 -1.3588 -0.4346
 3499TIP3    H232057   4.853   4.239   7.721 -0.3194  0.4980  1.8177
 3500TIP3   OH232058   5.330   2.582   0.497 -0.2339  0.0319 -0.5312
 3500TIP3    H132059   5.293   2.659   0.541 -3.7687 -2.0052  0.4733
 3500TIP3    H232060   5.354   2.524   0.569 -1.6753 -1.4642 -1.1919
 3501TIP3   OH232061   6.082   2.289   0.410 -0.2257 -0.8489 -0.7069
 3501TIP3    H132062   6.036   2.212   0.377 -2.6911  1.2915 -2.8451
 3501TIP3    H232063   6.089   2.346   0.333  0.3035  1.5613  1.0191
 3502TIP3   OH232064   1.506   1.680   0.117 -0.2293 -0.4945 -0.2631
 3502TIP3    H132065   1.526   1.588   0.101 -0.2331 -0.6037  0.3243
 3502TIP3    H232066   1.463   1.710   0.037 -2.7241 -1.7348  0.5156
 3503TIP3   OH232067   0.407   3.424   0.971 -0.2908  0.0750  0.9260
 3503TIP3    H132068   0.461   3.346   0.981 -0.5329 -0.1575  0.4193
 3503TIP3    H232069   0.333   3.410   1.031 -1.0727 -0.7341 -0.2014
 3504TIP3   OH232070   3.104   5.421   8.263  0.0913 -0.6521 -0.0260
 3504TIP3    H132071   3.152   5.350   8.305  1.5650  0.1706 -0.2185
 3504TIP3    H232072   3.167   5.494   8.260 -1.4063  0.7254  0.3148
 3505TIP3   OH232073   4.315   4.738   8.470 -0.0124 -0.2245 -0.0060
 3505TIP3    H132074   4.358   4.728   8.385  2.1996  0.0293  1.0013
 3505TIP3    H232075   4.373   4.797   8.519 -0.6497 -1.2036  2.0399
 3506TIP3   OH232076   1.260   5.180   7.706 -0.1640 -0.1494  0.4253
 3506TIP3    H132077   1.278   5.193   7.800 -0.2177 -0.8901  0.5454
 3506TIP3    H232078   1.234   5.267   7.675 -0.4833  0.0332  1.1728
 3507TIP3   OH232079   3.656   4.709   7.094  0.2189 -1.1486  0.2442
 3507TIP3    H132080   3.634   4.791   7.050  0.6328 -2.0994 -1.8609
 3507TIP3    H232081   3.750   4.717   7.112  0.1283 -0.9155  0.6312
 3508TIP3   OH232082   6.256   6.751   1.257  0.0362 -0.1993 -0.2829
 3508TIP3    H132083   6.343   6.787   1.275  0.9761 -2.8593  0.8775
 3508TIP3    H232084   6.261   6.725   1.165 -0.4214  1.8167 -0.9336
 3509TIP3   OH232085   1.479   3.290   0.012 -0.4300 -0.4005 -0.0092
 3509TIP3    H132086   1.548   3.251   0.066  1.6631  1.1892 -1.3847
 3509TIP3    H232087   1.469   3.229  -0.062  1.4000  0.5657 -1.1195
 3510TIP3   OH232088   0.145   4.790   0.657 -0.4198 -0.0581 -0.1563
 3510TIP3    H132089   0.212   4.810   0.722 -0.4660 -1.5953  0.3957
 3510TIP3    H232090   0.062   4.811   0.700 -0.3581  1.4254 -0.6859
 3511TIP3   OH232091   3.195   2.538   8.443 -0.5887 -0.1488  0.0310
 3511TIP3    H132092   3.281   2.557   8.479  0.6870 -4.5184 -0.2424
 3511TIP3    H232093   3.189   2.593   8.364  1.3868  1.1042  0.6970
 3512TIP3   OH232094   4.527   1.530   0.001 -0.0935  0.0671  0.1662
 3512TIP3    H132095   4.544   1.624  -0.002 -0.6181  0.2621  2.0216
 3512TIP3    H232096   4.542   1.500  -0.088  0.6406  1.8084 -0.3378
 3513TIP3   OH232097   2.481   3.400   6.938 -0.3561  0.4026  0.0512
 3513TIP3    H132098   2.551   3.349   6.897 -0.3435  1.8475 -1.8426
 3513TIP3    H232099   2.461   3.470   6.875 -2.3864  1.0063  1.2566
 3514TIP3   OH232100   5.852   4.055   6.483  0.1798 -0.4064 -0.0778
 3514TIP3    H132101   5.915   4.005   6.535  1.1226 -0.7675 -1.5021
 3514TIP3    H232102   5.893   4.062   6.397 -0.1326  2.4358 -0.0681
 3515TIP3   OH232103   5.875   4.455   0.512  0.0818  0.2602  0.3466
 3515TIP3    H132104   5.857   4.467   0.605  0.6025  3.2365  0.1749
 3515TIP3    H232105   5.788   4.452   0.471 -0.1439 -0.9469  0.8663
 3516TIP3   OH232106   0.510   3.234   8.016 -0.3334  0.8522 -0.7140
 3516TIP3    H132107   0.526   3.257   7.924  1.9059  2.7085  0.0282
 3516TIP3    H232108   0.558   3.152   8.029  0.3980  1.2376 -0.9243
 3517TIP3   OH232109   5.808   3.445   6.424 -0.5012  0.1098 -0.1896
 3517TIP3    H132110   5.898   3.465   6.450 -0.6678 -0.7822  1.1542
 3517TIP3    H232111   5.765   3.531   6.418  0.6096  0.6263 -1.6925
 3518TIP3   OH232112   6.040   0.756   6.297 -0.3701  0.1948 -0.6000
 3518TIP3    H132113   6.119   0.810   6.300 -0.6703  0.6200  0.8703
 3518TIP3    H232114   5.970   0.817   6.271 -0.6207  0.4411  0.5676
 3519TIP3   OH232115   5.516   0.486   7.217  0.3013 -0.5661 -0.4990
 3519TIP3    H132116   5.581   0.511   7.152  0.9765 -0.4160  0.2049
 3519TIP3    H232117   5.467   0.566   7.235  0.7527 -0.3666 -0.1295
 3520TIP3   OH232118   3.900   4.758   7.560 -0.6254  0.6351  0.2674
 3520TIP3    H132119   3.941   4.702   7.494 -1.5387  1.6912 -1.2609
 3520TIP3    H232120   3.957   4.750   7.637 -0.5604 -2.1181  0.0356
 3521TIP3   OH232121   0.658   3.741   6.585 -0.0054  0.0775  0.1864
 3521TIP3    H132122   0.707   3.666   6.619 -0.6454  0.9076  3.2055
 3521TIP3    H232123   0.587   3.702   6.534  2.4155 -1.1745 -2.5671
 3522TIP3   OH232124   0.868   2.423   0.126 -0.5425  0.4106  0.1534
 3522TIP3    H132125   0.924   2.377   0.189 -0.6477  0.6580  0.4288
 3522TIP3    H232126   0.808   2.355   0.093  0.5035 -0.0679 -0.8333
 3523TIP3   OH232127   0.185   6.680   7.527  0.0734  0.5764 -0.0081
 3523TIP3    H132128   0.259   6.626   7.500  0.6094  0.7120  1.1694
 3523TIP3    H232129   0.108   6.624   7.515  0.5638 -0.2394  0.6121
 3524TIP3   OH232130   3.280   3.036   8.672  0.6969  0.0385  0.0891
 3524TIP3    H132131   3.203   3.087   8.696  0.1396 -1.2439  1.1378
 3524TIP3    H232132   3.347   3.101   8.650 -1.2320  1.2430 -2.9127
 3525TIP3   OH232133   0.822   3.405   0.025  0.1503 -0.2309 -0.3322
 3525TIP3    H132134   0.730   3.394   0.047  0.1936  0.8438  0.4774
 3525TIP3    H232135   0.822   3.428  -0.068 -0.4142  0.0030 -0.2755
 3526TIP3   OH232136   3.267   2.853   8.040 -0.0280 -0.2007 -0.1263
 3526TIP3    H132137   3.175   2.837   8.020 -0.1143  0.0824  0.0475
 3526TIP3    H232138   3.290   2.929   7.988 -0.7925  1.8151  2.2939
 3527TIP3   OH232139   2.480   3.395   7.502 -0.1888 -0.1187  0.9187
 3527TIP3    H132140   2.500   3.488   7.492  0.9338 -0.2799  1.5057
 3527TIP3    H232141   2.525   3.353   7.429  0.4453 -0.3292  1.4166
 3528TIP3   OH232142   1.831   5.747   1.762  0.0696  0.6217  0.2958
 3528TIP3    H132143   1.913   5.703   1.744  0.1352 -0.0692  2.0666
 3528TIP3    H232144   1.841   5.782   1.851 -1.6285  0.2716  0.6652
 3529TIP3   OH232145   5.327   3.551   0.569  0.9395  0.1682 -0.2838
 3529TIP3    H132146   5.262   3.616   0.542  0.4103 -0.0764  0.3504
 3529TIP3    H232147   5.275   3.473   0.589  1.4283 -0.0372  0.2190
 3530TIP3   OH232148   1.960   2.666   8.094  0.0268 -0.0112 -0.4871
 3530TIP3    H132149   2.036   2.686   8.148 -1.1214  0.9398  0.8389
 3530TIP3    H232150   1.909   2.747   8.092 -0.5873 -0.3867 -2.0161
 3531TIP3   OH232151   6.237   6.734   0.356 -0.3059  0.6917 -0.4871
 3531TIP3    H132152   6.188   6.687   0.289 -0.2485 -1.1462  0.7025
 3531TIP3    H232153   6.175   6.745   0.428 -0.7168  3.6221 -1.1684
 3532TIP3   OH232154   4.151   3.140   0.036 -0.5792  0.1370 -0.4208
 3532TIP3    H132155   4.118   3.223   0.002 -0.5685 -0.3407 -1.6768
 3532TIP3    H232156   4.222   3.116  -0.024 -0.4943 -0.7103 -0.0048
 3533TIP3   OH232157   0.473   3.831   0.714 -0.7725 -0.1736 -0.6233
 3533TIP3    H132158   0.487   3.740   0.740  1.5191 -0.5811 -2.9593
 3533TIP3    H232159   0.395   3.828   0.659 -0.6306 -0.7503 -0.7984
 3534TIP3   OH232160   4.184   2.335   8.456 -0.8449  0.2399  0.0664
 3534TIP3    H132161   4.182   2.270   8.527  1.5722  1.9335  1.8633
 3534TIP3    H232162   4.264   2.314   8.407 -0.9094  0.8971 -0.3281
 3535TIP3   OH232163   4.101   5.840   0.103  0.0360  0.1258  0.5895
 3535TIP3    H132164   4.130   5.759   0.062  0.4828  0.2435  0.6665
 3535TIP3    H232165   4.122   5.829   0.195  2.3012  1.2426  0.2878
 3536TIP3   OH232166   4.793   0.634   7.715 -0.3256  0.1629 -0.0118
 3536TIP3    H132167   4.824   0.662   7.801  0.4824  2.3384 -0.9402
 3536TIP3    H232168   4.805   0.539   7.714 -0.2868  0.0978  2.2226
 3537TIP3   OH232169   5.371   3.065   8.124 -0.1165 -0.2699  0.8764
 3537TIP3    H132170   5.443   3.043   8.183 -0.8997 -1.6428  1.3525
 3537TIP3    H232171   5.301   3.097   8.182 -0.1275  0.4413  0.4802
 3538TIP3   OH232172   0.902   0.618   1.764  0.0911 -0.0872  0.3611
 3538TIP3    H132173   0.913   0.525   1.748 -2.0210 -0.4177  0.4471
 3538TIP3    H232174   0.953   0.636   1.843  2.0128 -0.7374 -0.6961
 3539TIP3   OH232175   5.920   5.661   1.299 -0.6175 -0.2393  0.3284
 3539TIP3    H132176   5.953   5.586   1.348 -0.6374 -1.3172 -1.2371
 3539TIP3    H232177   5.981   5.670   1.225 -0.6173  1.2914  0.4808
 3540TIP3   OH232178   6.788   6.629   0.818  0.3579  0.3190  0.3434
 3540TIP3    H132179   6.769   6.702   0.758  2.6521  1.7644  1.2345
 3540TIP3    H232180   6.818   6.672   0.898  1.9860 -1.6261  0.8389
 3541TIP3   OH232181   0.281   0.701   7.038  0.0804 -0.2718  0.1444
 3541TIP3    H132182   0.227   0.766   7.083 -0.2638 -0.1315 -0.4580
 3541TIP3    H232183   0.369   0.739   7.038 -0.1417  0.2560 -0.3073
 3542TIP3   OH232184   4.019   6.293   8.291 -0.3664  0.4104  0.1313
 3542TIP3    H132185   4.035   6.286   8.385  0.4992 -0.7019 -0.0746
 3542TIP3    H232186   4.073   6.224   8.252  0.8712  2.1071 -1.3533
 3543TIP3   OH232187   0.493   3.130   7.168 -0.0428 -0.2599 -0.1245
 3543TIP3    H132188   0.542   3.100   7.091 -1.2212 -1.7331 -0.3508
 3543TIP3    H232189   0.542   3.094   7.243 -0.4671 -1.3167 -0.3310
 3544TIP3   OH232190   0.788   0.129   7.311 -0.3842 -0.2275  0.8269
 3544TIP3    H132191   0.829   0.216   7.313 -0.0341 -0.3585 -0.3452
 3544TIP3    H232192   0.694   0.148   7.307 -0.4324  0.0704  2.4825
 3545TIP3   OH232193   0.002   0.629   6.241 -0.2533 -0.0150  0.2324
 3545TIP3    H132194  -0.064   0.613   6.308 -0.2575 -1.4651 -0.0768
 3545TIP3    H232195  -0.035   0.698   6.186 -0.7573  0.3707  1.0408
 3546TIP3   OH232196   4.628   5.664   7.954  0.1343  0.4478 -0.4035
 3546TIP3    H132197   4.701   5.616   7.914  0.0307  0.0921 -0.1625
 3546TIP3    H232198   4.657   5.682   8.043  0.3666  1.2495 -0.6233
 3547TIP3   OH232199   0.433   3.304   1.639  0.3843  0.3896 -0.2858
 3547TIP3    H132200   0.515   3.267   1.672  0.8267  1.2497 -0.4029
 3547TIP3    H232201   0.458   3.354   1.561  0.2975  3.3313  1.4367
 3548TIP3   OH232202   0.331   1.108   1.018  0.5866 -0.2265  0.0484
 3548TIP3    H132203   0.303   1.198   1.031  0.4086 -0.4334  1.2060
 3548TIP3    H232204   0.312   1.065   1.101  0.5204 -1.3725 -0.5427
 3549TIP3   OH232205   5.098   1.279   8.051  0.0029 -0.0541  0.8327
 3549TIP3    H132206   5.044   1.340   8.100  2.5947  2.4519  0.8549
 3549TIP3    H232207   5.100   1.315   7.962 -0.8076 -1.8512  0.0373
 3550TIP3   OH232208   2.046   4.008   6.753 -0.2740  0.2711 -0.0527
 3550TIP3    H132209   1.985   3.975   6.687 -0.9009 -0.2261  0.7499
 3550TIP3    H232210   2.022   4.100   6.764  1.1059  0.8916 -1.8874
 3551TIP3   OH232211   0.386   5.767   1.671  0.5182  0.1978 -0.0314
 3551TIP3    H132212   0.410   5.732   1.756  0.5714 -2.7156 -1.1204
 3551TIP3    H232213   0.300   5.807   1.684  2.3920  4.0131  2.2778
 3552TIP3   OH232214   4.202   6.666   1.320 -0.6331  0.0236  0.1331
 3552TIP3    H132215   4.201   6.759   1.341  0.7143 -0.0207  0.4812
 3552TIP3    H232216   4.281   6.653   1.268 -1.7123 -0.6384 -1.4235
 3553TIP3   OH232217   1.472   4.743   1.601 -0.5767  0.1847 -0.3774
 3553TIP3    H132218   1.508   4.719   1.687 -1.5428 -0.7111 -0.2093
 3553TIP3    H232219   1.429   4.663   1.570 -0.3816  0.5476 -1.6295
 3554TIP3   OH232220   2.203   4.760   1.460 -0.0025 -0.3700 -0.5342
 3554TIP3    H132221   2.159   4.721   1.536  2.6232 -2.1012  0.2592
 3554TIP3    H232222   2.204   4.853   1.479 -0.6002 -0.6239  0.9240
 3555TIP3   OH232223   2.505   4.306   1.501 -0.6222 -0.2590 -0.2248
 3555TIP3    H132224   2.409   4.304   1.512 -0.6955  0.9265 -0.6006
 3555TIP3    H232225   2.538   4.320   1.590 -0.7948 -0.5918 -0.1039
 3556TIP3   OH232226   1.065   1.753   6.912 -0.0983  0.5980 -0.2462
 3556TIP3    H132227   1.055   1.658   6.915  2.6774  0.2460  1.5371
 3556TIP3    H232228   1.003   1.782   6.846 -1.5083 -2.3713 -0.3668
 3557TIP3   OH232229   3.660   2.694   7.596  0.3772 -0.1027 -0.2193
 3557TIP3    H132230   3.587   2.695   7.658  0.4001 -0.1108 -0.1927
 3557TIP3    H232231   3.640   2.622   7.536  1.0878 -1.0668  0.6516
 3558TIP3   OH232232   4.291   1.702   1.015  0.4474 -0.3056  0.0863
 3558TIP3    H132233   4.282   1.793   0.986  0.0235 -0.3354  0.1240
 3558TIP3    H232234   4.221   1.690   1.078 -0.1358 -0.9523 -0.6640
 3559TIP3   OH232235   1.524   5.975   0.319  0.0433 -0.1483 -0.0245
 3559TIP3    H132236   1.520   6.015   0.232 -1.1751 -1.1046 -0.4298
 3559TIP3    H232237   1.469   6.030   0.373 -0.0414 -0.1499 -0.1091
 3560TIP3   OH232238   6.291   6.309   7.479  0.5079  0.1178  0.0231
 3560TIP3    H132239   6.244   6.293   7.397  0.8148  1.0147 -0.3342
 3560TIP3    H232240   6.377   6.270   7.465  0.6771  0.5709 -0.2128
 3561TIP3   OH232241   1.198   1.344   7.631 -0.0820  0.0555  0.0610
 3561TIP3    H132242   1.276   1.386   7.595  0.1726 -1.0295 -0.6993
 3561TIP3    H232243   1.231   1.266   7.676 -0.6379  0.1278  0.6136
 3562TIP3   OH232244   4.939   1.842   8.216 -0.1722 -0.0435  0.5157
 3562TIP3    H132245   4.921   1.936   8.222  0.7832  0.0757  2.0205
 3562TIP3    H232246   5.027   1.832   8.254  0.1306 -1.4369 -0.4718
 3563TIP3   OH232247   2.045   3.280   0.572  0.0296  0.3218 -0.0676
 3563TIP3    H132248   2.117   3.227   0.607  1.1080  1.8107  0.0644
 3563TIP3    H232249   2.048   3.264   0.478  0.4014  0.2134 -0.0403
 3564TIP3   OH232250   3.089   3.765   8.311 -0.0935  0.3448 -0.2633
 3564TIP3    H132251   3.029   3.712   8.363  1.6434 -1.4432  0.0513
 3564TIP3    H232252   3.101   3.845   8.361 -1.5556  0.3911  0.0504
 3565TIP3   OH232253   4.763   6.263   7.674  0.1079 -0.1445 -0.2218
 3565TIP3    H132254   4.753   6.233   7.765  1.2665 -0.7995 -0.2872
 3565TIP3    H232255   4.777   6.183   7.624  0.4321  0.2882 -0.8366
 3566TIP3   OH232256   3.350   3.074   0.378 -0.2621  0.6676  0.3468
 3566TIP3    H132257   3.270   3.078   0.325 -0.8129  3.1761  1.2526
 3566TIP3    H232258   3.386   2.986   0.360 -1.6635  0.5302 -2.3035
 3567TIP3   OH232259   6.562   4.702   7.621 -0.4244 -0.3892 -0.2371
 3567TIP3    H132260   6.502   4.666   7.556  0.8356  1.8866 -2.8628
 3567TIP3    H232261   6.638   4.729   7.571  0.9315  0.8835  2.3203
 3568TIP3   OH232262   1.114   3.742   0.815  0.8544  0.2798  0.3088
 3568TIP3    H132263   1.098   3.824   0.863 -0.3580  0.0534  0.3338
 3568TIP3    H232264   1.044   3.683   0.845 -0.0778  0.1975 -1.8662
 3569TIP3   OH232265   0.013   6.776   7.213 -0.0077 -0.3302 -0.2806
 3569TIP3    H132266   0.074   6.743   7.147 -1.4493 -0.5519 -1.5651
 3569TIP3    H232267  -0.068   6.726   7.198 -0.8270  0.6534  0.6786
 3570TIP3   OH232268   0.555   3.653   7.601 -0.4544  0.1680 -0.1223
 3570TIP3    H132269   0.472   3.699   7.588 -1.2025 -0.8906  0.7406
 3570TIP3    H232270   0.578   3.621   7.514 -1.2039  0.0488 -0.2834
 3571TIP3   OH232271   3.912   1.234   7.441  0.2332 -0.1726 -0.3297
 3571TIP3    H132272   3.876   1.227   7.353 -1.9690  1.3936  0.3561
 3571TIP3    H232273   3.980   1.301   7.435 -0.8393  0.9136 -0.6077
 3572TIP3   OH232274   2.109   1.061   7.399  0.0152  0.2059  0.9532
 3572TIP3    H132275   2.028   1.110   7.409 -0.0913  0.4549 -0.8003
 3572TIP3    H232276   2.123   1.057   7.304  1.2718 -1.1060  1.1556
 3573TIP3   OH232277   0.264   0.303   1.139 -0.0873 -0.4555  0.0751
 3573TIP3    H132278   0.312   0.290   1.221 -0.0435 -0.1984  0.0894
 3573TIP3    H232279   0.208   0.378   1.155  3.8380  3.3462 -1.8033
 3574TIP3   OH232280   2.418   2.739   6.994  0.0425  0.1643 -0.1492
 3574TIP3    H132281   2.454   2.697   6.916  3.1660 -0.3271  1.4328
 3574TIP3    H232282   2.411   2.669   7.058  2.2971  1.3406  1.5186
 3575TIP3   OH232283   5.898   0.316   1.362  0.0081  0.0772  0.0799
 3575TIP3    H132284   5.949   0.235   1.360  0.5723  0.2367  3.2415
 3575TIP3    H232285   5.959   0.384   1.334  0.0613 -0.3287 -0.8274
 3576TIP3   OH232286   3.397   1.304   6.864  0.3227  0.1803 -0.6529
 3576TIP3    H132287   3.486   1.334   6.877 -0.7085  3.8687 -1.0007
 3576TIP3    H232288   3.380   1.318   6.771 -1.3637  2.3053 -0.1312
 3577TIP3   OH232289   4.486   6.321   7.517  0.5800  0.3060  0.2576
 3577TIP3    H132290   4.569   6.317   7.565  1.1008  0.6443 -0.5965
 3577TIP3    H232291   4.462   6.230   7.503  0.4779  0.2027  1.0617
 3578TIP3   OH232292   2.745   4.975   1.988 -0.1350  0.0897  0.3063
 3578TIP3    H132293   2.665   4.923   1.979  0.2276 -0.1276 -2.8864
 3578TIP3    H232294   2.790   4.936   2.062 -1.8070 -1.4616  0.5828
 3579TIP3   OH232295   4.601   6.205   8.470  0.2224 -0.1756 -0.3317
 3579TIP3    H132296   4.618   6.296   8.496  1.2441 -0.7547  1.1391
 3579TIP3    H232297   4.602   6.208   8.374 -2.3293  1.8046 -0.4174
 3580TIP3   OH232298   4.428   5.446   8.698 -0.5261  0.8521 -0.4387
 3580TIP3    H132299   4.393   5.363   8.666 -1.5788 -0.2863  3.2029
 3580TIP3    H232300   4.515   5.424   8.731 -1.6541  0.5112  2.6184
 3581TIP3   OH232301   6.296   4.647   7.109 -0.4465 -0.8405 -0.5077
 3581TIP3    H132302   6.224   4.600   7.151  0.7014 -1.4912  0.7966
 3581TIP3    H232303   6.253   4.720   7.063 -1.8010 -0.2213  1.6064
 3582TIP3   OH232304   1.754   2.853   0.889  0.6866  0.0196  0.0632
 3582TIP3    H132305   1.707   2.900   0.959 -1.6508 -1.5073 -0.3532
 3582TIP3    H232306   1.832   2.818   0.931  0.6238  1.2432  1.2541
 3583TIP3   OH232307   2.130   1.004   8.389 -0.0932  0.0491  0.0034
 3583TIP3    H132308   2.192   0.936   8.417 -0.2964 -0.4078 -0.6356
 3583TIP3    H232309   2.065   0.957   8.337  0.0656  0.8089 -0.9155
 3584TIP3   OH232310   3.974   5.220   0.042  0.0536 -0.1228 -0.0054
 3584TIP3    H132311   3.992   5.287  -0.024  0.5250  0.1834  0.4283
 3584TIP3    H232312   4.058   5.207   0.087 -0.1943 -0.5303  0.3470
 3585TIP3   OH232313   0.734   5.303   1.436  0.9335  1.0150  0.7611
 3585TIP3    H132314   0.807   5.248   1.406  0.3279 -0.7768  2.3610
 3585TIP3    H232315   0.690   5.331   1.356  0.7066 -1.6626 -0.1585
 3586TIP3   OH232316   2.893   5.545   1.251  0.1753  0.2833  0.1395
 3586TIP3    H132317   2.828   5.488   1.292  0.0963  0.3315  0.0818
 3586TIP3    H232318   2.873   5.633   1.284  2.2306 -0.0922  2.7475
 3587TIP3   OH232319   2.175   0.089   6.937 -1.0637 -0.2341 -0.1388
 3587TIP3    H132320   2.223   0.045   6.865  0.1214  3.3837 -1.7904
 3587TIP3    H232321   2.221   0.061   7.016  1.1480 -0.2300 -1.3181
 3588TIP3   OH232322   5.540   1.813   7.860  0.3830  0.3438 -0.0607
 3588TIP3    H132323   5.525   1.743   7.923  0.6729  1.3866  1.1975
 3588TIP3    H232324   5.493   1.784   7.781  2.0769 -2.1765 -0.2783
 3589TIP3   OH232325   3.549   2.900   1.827 -0.0599 -0.1585 -0.6961
 3589TIP3    H132326   3.525   2.984   1.787 -0.4996  0.5858  1.0525
 3589TIP3    H232327   3.644   2.898   1.823  0.0152  0.9694  0.2838
 3590TIP3   OH232328   6.782   5.099   0.742 -0.6624  0.3748 -0.0796
 3590TIP3    H132329   6.776   5.008   0.772  1.1090 -0.7154 -2.7143
 3590TIP3    H232330   6.712   5.108   0.678 -0.5679  0.7450 -0.1323
 3591TIP3   OH232331   0.083   2.909   0.533  0.0975  0.1915  0.6267
 3591TIP3    H132332   0.167   2.866   0.548  0.5289  0.1500 -1.5572
 3591TIP3    H232333   0.082   2.928   0.439 -1.9454  1.0406  0.7605
 3592TIP3   OH232334   3.153   5.296   8.598  0.4145 -0.7428  0.0145
 3592TIP3    H132335   3.214   5.361   8.632  1.3388 -0.8794 -1.2963
 3592TIP3    H232336   3.173   5.290   8.505 -2.0567 -0.3502 -0.6022
 3593TIP3   OH232337   2.031   3.688   7.716 -0.4751 -0.3339 -0.0125
 3593TIP3    H132338   1.956   3.745   7.699 -0.7467 -0.5101  0.5822
 3593TIP3    H232339   2.087   3.698   7.638 -1.4734 -0.7724 -0.8074
 3594TIP3   OH232340   0.727   5.813   8.290  0.1591  0.3852 -0.1420
 3594TIP3    H132341   0.754   5.724   8.313  0.0681  0.3235 -0.2739
 3594TIP3    H232342   0.684   5.847   8.369 -2.5112 -0.7435 -0.9891
 3595TIP3   OH232343   3.074   2.696   1.558 -0.6655  0.6317  0.5727
 3595TIP3    H132344   3.066   2.736   1.471 -0.6463 -0.0863  0.2322
 3595TIP3    H232345   2.984   2.686   1.589 -0.6384  1.7352  1.0387
 3596TIP3   OH232346   5.678   1.735   8.723  0.0326 -0.2274  0.3639
 3596TIP3    H132347   5.659   1.699   8.810  0.1037  0.6812  0.7720
 3596TIP3    H232348   5.594   1.737   8.678 -0.1390 -0.0054  0.6905
 3597TIP3   OH232349   1.652   3.917   8.314  0.0490 -0.0259  0.3586
 3597TIP3    H132350   1.648   3.962   8.230 -1.2237 -0.3974  0.2082
 3597TIP3    H232351   1.585   3.959   8.368 -0.7482 -1.3048  0.4133
 3598TIP3   OH232352   3.770   3.200   2.011 -0.0316 -0.4042  0.4720
 3598TIP3    H132353   3.754   3.188   1.918 -0.2436  0.1633  0.4337
 3598TIP3    H232354   3.865   3.202   2.019 -0.0136 -0.3941  0.2605
 3599TIP3   OH232355   4.715   3.336   1.901 -0.3035  0.4421  0.4121
 3599TIP3    H132356   4.740   3.428   1.895  0.3230  0.2109 -2.9043
 3599TIP3    H232357   4.798   3.289   1.909 -0.4857  0.1115  0.3775
 3600TIP3   OH232358   2.232   3.771   7.897 -0.6009  0.0316 -0.2561
 3600TIP3    H132359   2.179   3.696   7.870  1.2088 -1.2368 -0.4850
 3600TIP3    H232360   2.170   3.832   7.936 -1.9937 -2.1493  1.1238
 3601TIP3   OH232361   1.608   4.054   0.977  0.0181 -0.0399 -0.1519
 3601TIP3    H132362   1.585   3.985   1.039 -0.0414 -0.4238 -0.6000
 3601TIP3    H232363   1.658   4.010   0.909 -1.3309  0.0675 -1.2387
 3602TIP3   OH232364   2.488   4.563   0.648 -0.0190 -0.3493  0.5050
 3602TIP3    H132365   2.572   4.607   0.661  0.8270 -1.7502  0.0493
 3602TIP3    H232366   2.458   4.541   0.736 -0.6032  1.3355  0.7619
 3603TIP3   OH232367   1.014   5.460   2.573 -0.0700  0.0530 -0.0852
 3603TIP3    H132368   1.008   5.370   2.540 -1.1308  0.2764 -0.5263
 3603TIP3    H232369   1.100   5.490   2.545  0.5307 -0.9945  0.5253
 3604TIP3   OH232370   4.086   0.136   7.315 -0.5619  0.2626  0.0435
 3604TIP3    H132371   4.150   0.103   7.378 -1.3738 -1.4857  0.0105
 3604TIP3    H232372   4.032   0.060   7.293 -3.2519  1.7835  0.7887
 3605TIP3   OH232373   0.717   2.150   0.367 -0.5125  0.1483 -0.8869
 3605TIP3    H132374   0.769   2.154   0.447  0.0187 -2.1057 -1.0466
 3605TIP3    H232375   0.626   2.146   0.397 -0.5314  2.2186 -0.5419
 3606TIP3   OH232376   5.368   0.224   2.040  0.1382 -0.0154  1.0372
 3606TIP3    H132377   5.462   0.203   2.043 -0.1163 -1.8278 -1.1771
 3606TIP3    H232378   5.364   0.305   1.989  0.4232 -1.4189 -1.3903
 3607TIP3   OH232379   0.387   1.460   2.442 -0.2696 -0.2803  0.1126
 3607TIP3    H132380   0.350   1.406   2.372 -0.7939 -0.5547  0.5945
 3607TIP3    H232381   0.456   1.406   2.480 -0.0605 -0.1761 -0.1181
 3608TIP3   OH232382   0.516   3.778   8.233  0.1977 -0.0925  0.6629
 3608TIP3    H132383   0.457   3.728   8.288  0.5599 -1.5882 -0.2441
 3608TIP3    H232384   0.462   3.807   8.160  0.1506  0.2432  0.8289
 3609TIP3   OH232385   4.269   2.052   1.148  0.3755  0.4819 -0.3440
 3609TIP3    H132386   4.276   2.130   1.202 -0.1035  1.6388 -1.8939
 3609TIP3    H232387   4.257   1.980   1.211 -0.8661  1.8497  1.0644
 3610TIP3   OH232388   5.633   2.385   2.093 -0.5343 -0.4632  0.1578
 3610TIP3    H132389   5.681   2.346   2.167 -0.0831 -1.1597 -0.4878
 3610TIP3    H232390   5.621   2.477   2.119 -2.6749 -1.2276  2.2533
 3611TIP3   OH232391   4.494   5.819   0.089  0.0758  0.2418  0.2192
 3611TIP3    H132392   4.421   5.848   0.145  0.9041 -0.1499  1.5501
 3611TIP3    H232393   4.572   5.851   0.134  0.7866 -0.2661 -0.6292
 3612TIP3   OH232394   4.543   1.450   7.736 -0.0739 -0.0915 -0.1415
 3612TIP3    H132395   4.511   1.433   7.825 -0.1203 -0.1929 -0.1775
 3612TIP3    H232396   4.491   1.391   7.681  1.0446 -1.1962 -0.0625
 3613TIP3   OH232397   6.679   5.028   8.766 -0.2487 -0.0556 -0.0294
 3613TIP3    H132398   6.645   5.006   8.852 -2.3774  0.9593 -0.5554
 3613TIP3    H232399   6.710   5.118   8.774  1.8852 -0.7485  0.2650
 3614TIP3   OH232400   4.510   5.286   6.169  0.2260 -0.3457  0.2987
 3614TIP3    H132401   4.469   5.339   6.238  1.4247  1.5710 -0.3632
 3614TIP3    H232402   4.591   5.254   6.208  1.4398  1.6259 -0.4565
 3615TIP3   OH232403   1.663   4.981   1.145 -1.0038 -0.1689  0.3744
 3615TIP3    H132404   1.600   4.938   1.202  1.0428 -1.5542  1.7304
 3615TIP3    H232405   1.686   5.062   1.192  2.3278 -2.3274  2.8967
 3616TIP3   OH232406   3.236   5.050   7.057  0.0018 -0.0017 -0.5093
 3616TIP3    H132407   3.233   4.957   7.032 -2.7404 -0.7007  1.7656
 3616TIP3    H232408   3.252   5.048   7.152  0.9265  1.9415 -0.5828
 3617TIP3   OH232409   5.391   1.032   6.249 -0.0328  0.3329 -0.5536
 3617TIP3    H132410   5.419   1.117   6.284  0.6122  0.3034 -0.9805
 3617TIP3    H232411   5.472   0.983   6.239 -0.3597 -0.1681 -0.7587
 3618TIP3   OH232412   0.171   6.689   8.354 -0.1285  0.3527 -0.2272
 3618TIP3    H132413   0.182   6.652   8.266 -3.3452  0.9227 -0.9759
 3618TIP3    H232414   0.178   6.784   8.341  3.3320  0.4206  0.9232
 3619TIP3   OH232415   2.097   6.169   0.440  0.5959  0.2133  0.7347
 3619TIP3    H132416   2.138   6.127   0.364 -2.0609  0.1632 -0.8005
 3619TIP3    H232417   2.116   6.262   0.429  1.5093  0.0489  0.8709
 3620TIP3   OH232418   0.526   2.798   8.326 -0.1244  0.2239  0.1722
 3620TIP3    H132419   0.581   2.855   8.272  0.7502 -0.6892  0.0697
 3620TIP3    H232420   0.465   2.858   8.369  1.9608  1.4945  1.5151
 3621TIP3   OH232421   0.934   1.038   7.286 -0.6248 -0.4092  0.0107
 3621TIP3    H132422   0.867   1.021   7.352 -1.6315 -1.7095 -1.2704
 3621TIP3    H232423   1.017   1.033   7.334 -1.3476 -0.6777  1.2790
 3622TIP3   OH232424   6.152   2.898   8.032  0.3448  0.5344  0.0941
 3622TIP3    H132425   6.096   2.895   8.109  0.0941 -0.5153 -0.1048
 3622TIP3    H232426   6.093   2.878   7.959  0.7849  0.4491 -0.2437
 3623TIP3   OH232427   4.052   2.849   1.256 -0.0586  0.6450  0.0525
 3623TIP3    H132428   4.146   2.847   1.237  0.3492 -0.5632  1.9921
 3623TIP3    H232429   4.046   2.865   1.350 -1.7830  0.2536  0.0489
 3624TIP3   OH232430   4.984   1.064   0.530  0.2028 -0.9889 -0.1474
 3624TIP3    H132431   4.920   1.063   0.602  0.5912  0.1124  0.2275
 3624TIP3    H232432   5.063   1.102   0.568  0.0974  0.5842 -1.4082
 3625TIP3   OH232433   1.824   4.981   1.737  0.1502 -0.2397  0.1032
 3625TIP3    H132434   1.882   4.913   1.702  0.9269  0.4710 -0.0308
 3625TIP3    H232435   1.821   5.047   1.668 -2.6827 -1.2564 -0.8854
 3626TIP3   OH232436   3.166   0.499   1.593  0.7516 -0.1185  0.2282
 3626TIP3    H132437   3.117   0.499   1.511  1.0840  0.2302  0.0241
 3626TIP3    H232438   3.101   0.483   1.660 -0.1644  3.1309  0.2698
 3627TIP3   OH232439   3.821   4.672   8.454  0.0476 -0.0054 -0.3310
 3627TIP3    H132440   3.867   4.756   8.457  1.3247 -0.6840  1.9872
 3627TIP3    H232441   3.883   4.611   8.414  2.0821 -1.2549  4.0995
 3628TIP3   OH232442   4.435   1.233   2.028  0.2268  0.2113 -0.3155
 3628TIP3    H132443   4.479   1.149   2.010  0.1581  0.3323 -1.0553
 3628TIP3    H232444   4.393   1.219   2.113  0.2350 -0.5025 -0.4157
 3629TIP3   OH232445   4.702   4.218   1.222  0.5421  0.1253 -0.4259
 3629TIP3    H132446   4.629   4.245   1.166  1.1287 -0.2522 -1.3901
 3629TIP3    H232447   4.698   4.277   1.297  0.1195  1.0596 -1.1714
 3630TIP3   OH232448   1.732   6.204   8.649 -0.1461  0.0799 -0.0806
 3630TIP3    H132449   1.775   6.211   8.563 -0.2769  1.0814 -0.0721
 3630TIP3    H232450   1.774   6.129   8.690  0.0794 -0.2767 -0.9356
 3631TIP3   OH232451   4.632   6.764   0.719 -0.3502  0.1896  0.0734
 3631TIP3    H132452   4.615   6.769   0.813 -1.7054  0.2177 -0.1602
 3631TIP3    H232453   4.723   6.733   0.713  0.5165  2.2602  1.3936
 3632TIP3   OH232454   1.224   0.198   1.319  0.0890  0.1429 -0.3010
 3632TIP3    H132455   1.186   0.139   1.384  1.8350 -0.7703 -0.0426
 3632TIP3    H232456   1.197   0.161   1.235 -0.4034  0.0715 -0.1120
 3633TIP3   OH232457   0.869   6.063   7.680 -0.5679 -0.1688  0.3914
 3633TIP3    H132458   0.912   6.019   7.606  1.3563  0.6060  0.9739
 3633TIP3    H232459   0.807   5.999   7.714 -0.2064 -1.1896 -0.8046
 3634TIP3   OH232460   2.197   3.237   0.023 -0.0667 -0.1973 -0.3102
 3634TIP3    H132461   2.111   3.272  -0.001 -0.1664 -0.8749 -0.9713
 3634TIP3    H232462   2.259   3.304  -0.007 -0.3033 -0.1920 -0.7881
 3635TIP3   OH232463   5.573   2.752   1.749  0.0224 -0.5102  0.3694
 3635TIP3    H132464   5.528   2.824   1.794  0.4959 -1.2029  2.0453
 3635TIP3    H232465   5.502   2.697   1.716 -0.3441  0.6392 -0.8466
 3636TIP3   OH232466   6.169   3.211   0.539 -0.0831  0.0641  0.0082
 3636TIP3    H132467   6.221   3.291   0.532  2.0205 -1.1677  0.7985
 3636TIP3    H232468   6.205   3.152   0.473 -1.3735 -0.3962 -0.3248
 3637TIP3   OH232469   3.577   0.039   8.054  0.5371  0.4074 -0.1879
 3637TIP3    H132470   3.557   0.001   8.139  0.9887  0.7170  0.0572
 3637TIP3    H232471   3.619  -0.032   8.005 -1.5673 -0.4305 -0.9043
 3638TIP3   OH232472   3.325   3.045   1.447 -0.8536 -0.5095  0.0766
 3638TIP3    H132473   3.403   2.990   1.451 -0.1385  0.5321  1.2691
 3638TIP3    H232474   3.349   3.117   1.387 -1.2460 -0.6920 -0.3044
 3639TIP3   OH232475   0.598   0.159   8.687 -0.4142  0.1425  0.2386
 3639TIP3    H132476   0.505   0.184   8.689 -0.1991  0.9126  1.0119
 3639TIP3    H232477   0.643   0.231   8.730  0.3428 -1.0955  1.6228
 3640TIP3   OH232478   3.288   1.663   1.247 -0.1850  0.2677  0.5777
 3640TIP3    H132479   3.285   1.652   1.152 -1.7642  0.1898  0.6102
 3640TIP3    H232480   3.281   1.573   1.281 -1.6815  0.4376  0.7640
 3641TIP3   OH232481   2.957   1.980   1.660 -0.1477  0.3341  0.0878
 3641TIP3    H132482   2.866   1.954   1.646 -0.3543  0.9993  0.1403
 3641TIP3    H232483   3.003   1.952   1.581 -0.0531 -1.4849  0.7460
 3642TIP3   OH232484   5.258   5.303   0.136  0.2764 -0.0342 -0.3042
 3642TIP3    H132485   5.204   5.226   0.119  2.0496 -1.7665  1.3685
 3642TIP3    H232486   5.324   5.303   0.068  0.8924 -0.6287  0.2799
 3643TIP3   OH232487   2.008   2.601   7.682 -0.0323  0.5603  0.1837
 3643TIP3    H132488   2.057   2.527   7.646 -1.8024 -0.2076 -0.7335
 3643TIP3    H232489   2.070   2.675   7.677  0.6806 -0.1190 -1.9692
 3644TIP3   OH232490   3.364   4.677   1.365 -0.7885  0.1886  0.3841
 3644TIP3    H132491   3.297   4.727   1.318 -1.5557 -0.1832  1.0690
 3644TIP3    H232492   3.327   4.590   1.376  1.0257 -0.9822 -1.9023
 3645TIP3   OH232493   0.526   3.162   0.730  0.1291 -0.0099 -0.0329
 3645TIP3    H132494   0.510   3.079   0.684  0.7837 -0.4411  0.4999
 3645TIP3    H232495   0.439   3.192   0.756 -0.2332  0.0744 -1.2422
 3646TIP3   OH232496   4.053   6.740   0.231  0.2384  0.2865 -0.1102
 3646TIP3    H132497   4.126   6.690   0.267 -0.6437 -0.5106  0.6330
 3646TIP3    H232498   4.021   6.685   0.159 -0.7133 -0.2395  0.6887
 3647TIP3   OH232499   2.861   5.250   1.031  0.4536  0.1054 -0.7897
 3647TIP3    H132500   2.946   5.206   1.036  0.2133 -0.2259  0.5975
 3647TIP3    H232501   2.799   5.179   1.018  0.2229  0.1869 -0.1401
 3648TIP3   OH232502   5.465   4.478   7.846 -0.0504 -0.8266 -0.2747
 3648TIP3    H132503   5.492   4.444   7.931 -0.2990  2.3469  1.2393
 3648TIP3    H232504   5.546   4.491   7.797  0.3165 -0.5867  0.3898
 3649TIP3   OH232505   2.024   4.705   0.741 -0.5115 -0.0276 -0.8968
 3649TIP3    H132506   2.036   4.789   0.786  0.9668 -1.0498  0.7917
 3649TIP3    H232507   1.931   4.684   0.753 -0.6212  0.7870 -0.2266
 3650TIP3   OH232508   1.790   6.798   7.139 -0.1660  0.5031 -0.5208
 3650TIP3    H132509   1.858   6.730   7.133 -0.8963 -0.2804 -0.1471
 3650TIP3    H232510   1.835   6.879   7.116  0.9605  0.0368 -0.0578
 3651TIP3   OH232511   4.819   3.297   1.175  0.1863 -0.1888  0.0970
 3651TIP3    H132512   4.841   3.380   1.131 -1.3697  1.3600  2.0654
 3651TIP3    H232513   4.748   3.320   1.235 -0.0743 -2.9214  0.9522
 3652TIP3   OH232514   1.365   3.797   0.693 -0.2850  0.4153 -0.0670
 3652TIP3    H132515   1.299   3.750   0.745  1.5465 -0.0837  2.0057
 3652TIP3    H232516   1.367   3.885   0.731  0.8483  0.1437  0.5629
 3653TIP3   OH232517   1.857   3.500   7.257  0.5879 -0.5898 -0.0782
 3653TIP3    H132518   1.851   3.588   7.294 -2.5571 -1.3478  1.5981
 3653TIP3    H232519   1.850   3.513   7.163 -2.9869  0.9538  0.2423
 3654TIP3   OH232520   5.525   2.472   1.551  0.3227 -0.1652  0.1144
 3654TIP3    H132521   5.505   2.521   1.472  0.4137  0.5214  0.5070
 3654TIP3    H232522   5.612   2.435   1.536  0.9678  1.1552  0.4452
 3655TIP3   OH232523   0.891   2.955   0.141  0.1498 -0.1670  0.2148
 3655TIP3    H132524   0.911   2.863   0.126  0.9063 -0.1793  1.1793
 3655TIP3    H232525   0.875   2.991   0.054 -0.2097 -1.2165 -0.1615
 3656TIP3   OH232526   5.799   6.338   7.502 -0.4138 -0.0426  0.0158
 3656TIP3    H132527   5.717   6.380   7.529 -0.7436  0.6411 -1.8940
 3656TIP3    H232528   5.862   6.365   7.568 -1.2383  1.2511  0.3157
 3657TIP3   OH232529   2.433   2.442   1.719  0.0495 -0.1730  0.1381
 3657TIP3    H132530   2.493   2.517   1.714  0.7871 -0.7517  0.0805
 3657TIP3    H232531   2.426   2.423   1.813 -0.6613  0.3761  0.1989
 3658TIP3   OH232532   5.574   6.056   0.393  0.0987  0.1609 -0.1876
 3658TIP3    H132533   5.571   6.037   0.487 -0.3747  0.4059 -0.1509
 3658TIP3    H232534   5.526   6.138   0.383  0.3765  0.2738 -0.6109
 3659TIP3   OH232535   6.780   4.706   1.165 -0.7295 -0.1962  0.0250
 3659TIP3    H132536   6.804   4.796   1.142 -0.8038 -0.0454  0.5087
 3659TIP3    H232537   6.808   4.697   1.257  0.4751 -1.0887 -0.3949
 3660TIP3   OH232538   0.926   5.368   2.328  0.0859 -0.9248  0.0148
 3660TIP3    H132539   0.835   5.367   2.297 -0.4567  1.7236  1.2133
 3660TIP3    H232540   0.968   5.296   2.282 -2.2313 -1.2396 -1.7901
 3661TIP3   OH232541   5.281   2.861   1.556 -0.7388 -0.0582  0.4927
 3661TIP3    H132542   5.196   2.825   1.531 -1.1826  0.5777  1.0458
 3661TIP3    H232543   5.303   2.815   1.637 -0.2996 -0.5953  0.0791
 3662TIP3   OH232544   0.976   3.558   0.967  0.5583 -0.2129 -0.7530
 3662TIP3    H132545   1.063   3.522   0.949  0.2657 -1.0909 -0.4544
 3662TIP3    H232546   0.979   3.584   1.059 -0.9220 -4.7034  0.8139
 3663TIP3   OH232547   5.431   2.971   1.916 -0.3773 -0.3941 -0.2715
 3663TIP3    H132548   5.410   2.932   2.001 -0.1124  0.4170  0.1707
 3663TIP3    H232549   5.501   3.033   1.935 -2.5694  2.3041 -0.4466
 3664TIP3   OH232550   5.391   3.631   7.438 -0.1071 -0.1496 -0.0855
 3664TIP3    H132551   5.405   3.591   7.524 -0.7458 -0.6748 -0.2187
 3664TIP3    H232552   5.348   3.714   7.456  0.1227 -0.0768  0.1264
 3665TIP3   OH232553   4.583   1.403   2.300  0.2156 -0.1290  0.4530
 3665TIP3    H132554   4.520   1.458   2.253  0.6506 -0.4607 -0.5422
 3665TIP3    H232555   4.611   1.338   2.235  0.8931 -0.5496  1.1535
 3666TIP3   OH232556   6.679   5.902   0.370 -0.5399 -0.8857  0.2477
 3666TIP3    H132557   6.617   5.949   0.313  0.7952 -0.9201 -1.3121
 3666TIP3    H232558   6.626   5.836   0.415 -1.8872  0.0592  0.1072
 3667TIP3   OH232559   5.412   1.708   7.270  0.0316  0.9246 -0.0872
 3667TIP3    H132560   5.440   1.659   7.192  1.4380 -0.3662  1.1532
 3667TIP3    H232561   5.491   1.755   7.297 -0.5110  1.5322  0.4373
 3668TIP3   OH232562   1.975   4.273   2.171 -1.3137  0.8072 -0.4704
 3668TIP3    H132563   1.895   4.325   2.160 -2.1170  0.5930  3.1064
 3668TIP3    H232564   2.035   4.332   2.217 -0.6253 -0.0505 -0.2509
 3669TIP3   OH232565   1.593   2.898   0.659 -0.6467  0.0916  0.2561
 3669TIP3    H132566   1.530   2.828   0.644 -0.0978 -0.2816 -0.3303
 3669TIP3    H232567   1.630   2.879   0.745 -1.4029  0.3735  0.6540
 3670TIP3   OH232568   6.167   1.774   6.702  0.6914  0.6164  0.0268
 3670TIP3    H132569   6.135   1.856   6.664 -2.6839  0.1739  1.5167
 3670TIP3    H232570   6.167   1.712   6.629  1.5496  1.4909 -0.7400
 3671TIP3   OH232571   1.095   0.863   7.993 -0.3715 -0.0521  0.1522
 3671TIP3    H132572   1.131   0.775   7.990 -1.0833 -0.3692  0.5162
 3671TIP3    H232573   1.051   0.868   8.078 -1.2525  0.2697 -0.3038
 3672TIP3   OH232574   6.636   1.686   2.338  0.4589  0.1961  0.1137
 3672TIP3    H132575   6.628   1.757   2.274 -0.2205 -0.1996 -0.2602
 3672TIP3    H232576   6.697   1.719   2.404 -0.0573  1.2351  0.0946
 3673TIP3   OH232577   2.352   2.452   7.852 -0.1608 -0.2111  0.2561
 3673TIP3    H132578   2.331   2.512   7.780 -1.1507  0.6955  1.2494
 3673TIP3    H232579   2.267   2.421   7.883  0.2158 -0.2584  1.2886
 3674TIP3   OH232580   1.260   2.876   7.495  0.5262  0.2842 -0.1658
 3674TIP3    H132581   1.234   2.914   7.412  2.7062  1.0855 -0.5416
 3674TIP3    H232582   1.324   2.809   7.472  0.7123  0.1001  0.8228
 3675TIP3   OH232583   3.217   5.479   7.441 -0.0922 -0.0801 -0.5045
 3675TIP3    H132584   3.122   5.485   7.443 -0.1233 -0.7600  1.2292
 3675TIP3    H232585   3.236   5.417   7.370 -0.8633  0.7874 -1.5000
 3676TIP3   OH232586   6.299   5.650   8.703 -0.5105  0.1688  0.9777
 3676TIP3    H132587   6.243   5.600   8.643  0.6581 -0.4540  0.3613
 3676TIP3    H232588   6.242   5.673   8.776 -1.4796 -0.7114  0.5219
 3677TIP3   OH232589   0.609   0.017   8.442 -0.1189  0.2363  0.1040
 3677TIP3    H132590   0.533   0.069   8.415 -0.2899 -0.1015 -0.0753
 3677TIP3    H232591   0.629   0.047   8.530 -1.1244 -0.4096  0.5846
 3678TIP3   OH232592   1.742   4.334   1.504 -0.2185 -0.0566 -0.1771
 3678TIP3    H132593   1.675   4.371   1.446  0.0385  2.0138  0.7692
 3678TIP3    H232594   1.731   4.239   1.496 -1.8480  0.2118 -1.6582
 3679TIP3   OH232595   3.945   2.285   0.835  0.0207 -0.1756  0.0189
 3679TIP3    H132596   3.975   2.327   0.916 -1.6424 -0.0011  0.5909
 3679TIP3    H232597   3.861   2.328   0.816 -0.1821 -1.0412 -1.1411
 3680TIP3   OH232598   5.246   6.013   0.042  0.5773  0.3265  0.3687
 3680TIP3    H132599   5.241   5.977  -0.047  0.5361 -0.6245  0.7451
 3680TIP3    H232600   5.256   6.107   0.029 -3.5352  0.7972 -0.6487
 3681TIP3   OH232601   6.310   4.267   8.588  0.0184 -0.0352  0.1046
 3681TIP3    H132602   6.324   4.321   8.510  1.1283 -0.3869  0.0417
 3681TIP3    H232603   6.376   4.198   8.581  0.7835  0.4669  1.8341
 3682TIP3   OH232604   5.063   1.415   0.479 -0.3169 -0.1552  0.2781
 3682TIP3    H132605   5.156   1.439   0.471 -0.6278  0.8396 -0.5524
 3682TIP3    H232606   5.035   1.398   0.389 -0.7279 -1.3547  0.6131
 3683TIP3   OH232607   1.179   2.398   7.630  0.1074  0.1343 -0.5980
 3683TIP3    H132608   1.144   2.456   7.697  3.0999  2.4196 -0.7624
 3683TIP3    H232609   1.190   2.314   7.674  0.2093  1.0587  1.2463
 3684TIP3   OH232610   2.505   5.890   8.752 -0.4263 -0.1586 -0.2029
 3684TIP3    H132611   2.532   5.876   8.661 -0.2165 -0.9103 -0.0348
 3684TIP3    H232612   2.418   5.851   8.757 -0.7697  0.5744 -0.2653
 3685TIP3   OH232613   5.580   5.857   8.307  1.2894 -0.0679 -0.5302
 3685TIP3    H132614   5.625   5.909   8.374  0.8906  0.6759 -0.8400
 3685TIP3    H232615   5.501   5.824   8.351  1.5241 -0.3946 -0.3458
 3686TIP3   OH232616   5.295   3.274   8.776  0.6925  0.1518  0.2705
 3686TIP3    H132617   5.312   3.186   8.741 -0.2406 -0.0284  0.2458
 3686TIP3    H232618   5.205   3.270   8.806  0.3787  1.3489 -0.4655
 3687TIP3   OH232619   0.177   5.429   0.625  1.0234 -0.5117 -0.3976
 3687TIP3    H132620   0.092   5.391   0.606  0.3654  1.8930 -2.7910
 3687TIP3    H232621   0.240   5.366   0.590  0.1992 -1.4616 -0.2109
 3688TIP3   OH232622   1.599   2.321   0.602 -0.0813  0.0889 -0.2463
 3688TIP3    H132623   1.550   2.275   0.534  0.1128  1.3877 -1.3048
 3688TIP3    H232624   1.673   2.361   0.556  0.7861 -0.0533  0.9545
 3689TIP3   OH232625   0.827   5.686   1.878 -0.0689  0.2027 -0.3630
 3689TIP3    H132626   0.791   5.641   1.801 -1.8188 -1.3901  1.2773
 3689TIP3    H232627   0.915   5.711   1.852 -0.9073  0.5749 -3.1949
 3690TIP3   OH232628   2.865   6.204   7.943  0.0243  0.5630  0.0572
 3690TIP3    H132629   2.871   6.294   7.910  0.4862  0.9094  1.0611
 3690TIP3    H232630   2.835   6.213   8.033 -0.2355 -0.3123  0.0631
 3691TIP3   OH232631   4.640   4.958   1.069 -0.6269  0.4233 -0.1816
 3691TIP3    H132632   4.567   4.947   1.129  0.0839  1.8825  1.0236
 3691TIP3    H232633   4.604   5.007   0.995 -1.4997 -1.3556 -0.9762
 3692TIP3   OH232634   2.956   1.275   1.901  0.3679 -0.2565  0.1396
 3692TIP3    H132635   2.927   1.188   1.873 -1.5133  0.2877  0.2656
 3692TIP3    H232636   2.893   1.301   1.969 -0.4993  2.0737 -1.3975
 3693TIP3   OH232637   6.427   3.777   6.634 -0.4207 -0.0942  0.3555
 3693TIP3    H132638   6.473   3.713   6.580 -0.0736 -0.9200  1.6087
 3693TIP3    H232639   6.371   3.725   6.691 -0.8014  0.7650  0.7914
 3694TIP3   OH232640   4.321   2.536   0.055  0.7063  0.0351  0.7208
 3694TIP3    H132641   4.399   2.489   0.025 -0.1692 -0.9576 -0.0513
 3694TIP3    H232642   4.355   2.621   0.084  1.9592  0.0110 -0.5504
 3695TIP3   OH232643   3.086   2.510   1.163 -0.2451  0.2368  0.1272
 3695TIP3    H132644   3.043   2.481   1.244 -0.2160  0.8185  0.3557
 3695TIP3    H232645   3.157   2.566   1.193  0.0725  0.0528 -0.2881
 3696TIP3   OH232646   4.699   4.294   0.910  0.1460  0.1561  0.0581
 3696TIP3    H132647   4.605   4.281   0.919  0.5642 -1.7096  2.6936
 3696TIP3    H232648   4.714   4.384   0.939 -0.7951  0.4734 -0.4073
 3697TIP3   OH232649   4.793   3.365   8.485  0.2819 -0.2451  0.4037
 3697TIP3    H132650   4.868   3.422   8.503  1.3178 -1.2133 -0.6734
 3697TIP3    H232651   4.733   3.420   8.435  1.5114 -0.2221 -1.1073
 3698TIP3   OH232652   6.473   0.761   6.868  0.4410  0.2461  0.1857
 3698TIP3    H132653   6.543   0.702   6.898  0.1292 -0.3693 -0.2604
 3698TIP3    H232654   6.451   0.728   6.781 -2.3869 -1.4506  1.4036
 3699TIP3   OH232655   4.505   1.188   7.413  0.4171 -0.5805  0.1270
 3699TIP3    H132656   4.546   1.184   7.499  0.2352 -0.7390  0.2056
 3699TIP3    H232657   4.437   1.121   7.415 -1.6788  1.4569  0.9313
 3700TIP3   OH232658   5.216   5.146   6.925  0.4488  0.1742 -0.0535
 3700TIP3    H132659   5.130   5.131   6.963  0.5548  1.2994  0.6693
 3700TIP3    H232660   5.226   5.076   6.860 -1.1887  0.2895 -0.4768
 3701TIP3   OH232661   1.255   6.039   8.381  0.0025  0.4287 -0.3128
 3701TIP3    H132662   1.331   5.999   8.339 -0.7705  0.1550 -1.4980
 3701TIP3    H232663   1.269   6.133   8.370  0.0009  0.3689 -0.8580
 3702TIP3   OH232664   0.486   5.735   6.891 -0.3719 -0.5070 -0.3417
 3702TIP3    H132665   0.482   5.647   6.854 -0.9880 -0.3404 -0.6887
 3702TIP3    H232666   0.485   5.793   6.814  0.5156 -0.2064 -0.1379
 3703TIP3   OH232667   0.261   3.874   7.874  0.3973 -0.2681 -0.1585
 3703TIP3    H132668   0.229   3.907   7.958 -0.9965  0.5836 -0.9818
 3703TIP3    H232669   0.343   3.921   7.859 -0.4334  1.2307 -0.2563
 3704TIP3   OH232670   1.766   0.032   7.783  0.6965 -0.5404 -0.0179
 3704TIP3    H132671   1.805  -0.004   7.863  1.4751  0.1843 -0.0641
 3704TIP3    H232672   1.752   0.125   7.803 -0.1342 -0.5898 -0.3364
 3705TIP3   OH232673   0.664   6.232   7.374 -0.4917  0.4085  0.6373
 3705TIP3    H132674   0.598   6.206   7.437 -0.1875 -0.6819  0.5219
 3705TIP3    H232675   0.717   6.298   7.420 -1.0496  0.5654  1.0624
 3706TIP3   OH232676   6.635   6.421   0.799  0.4251  0.0040 -0.2334
 3706TIP3    H132677   6.692   6.489   0.835  1.2415 -1.3523  1.1463
 3706TIP3    H232678   6.556   6.425   0.852  0.6683 -0.4414  0.1615
 3707TIP3   OH232679   3.324   6.631   0.755 -0.0300 -0.4858  0.2084
 3707TIP3    H132680   3.385   6.558   0.740  1.3271  0.6372  0.0669
 3707TIP3    H232681   3.359   6.676   0.832 -1.7368 -0.8461  1.2354
 3708TIP3   OH232682   4.775   0.356   0.193  0.5828  0.4532  0.1617
 3708TIP3    H132683   4.824   0.347   0.111 -1.0625  0.9628 -0.9102
 3708TIP3    H232684   4.756   0.449   0.199 -1.2208  0.1206 -0.0367
 3709TIP3   OH232685   4.851   6.466   1.537 -0.6736  0.6639  0.0307
 3709TIP3    H132686   4.943   6.474   1.511 -0.2865 -1.0081  0.7660
 3709TIP3    H232687   4.853   6.432   1.627 -1.9438 -1.9556 -0.8072
 3710TIP3   OH232688   0.280   5.114   1.505 -0.3913  0.0410  0.2233
 3710TIP3    H132689   0.329   5.033   1.518  0.0708  0.0206 -1.4558
 3710TIP3    H232690   0.342   5.183   1.525 -0.9792  0.0166  2.3151
 3711TIP3   OH232691   3.768   0.714   7.115  0.6922  0.0630 -0.1309
 3711TIP3    H132692   3.688   0.766   7.115  1.0037  0.5496  0.2407
 3711TIP3    H232693   3.780   0.689   7.207  0.1961 -1.2284 -0.3900
 3712TIP3   OH232694   4.403   2.398   0.757  0.5013  0.2864  0.1774
 3712TIP3    H132695   4.337   2.328   0.760 -1.7215  2.1764 -1.6330
 3712TIP3    H232696   4.399   2.438   0.844 -1.5167  0.9726 -0.1751
 3713TIP3   OH232697   4.557   3.996   7.143  0.3861  0.2401 -0.3438
 3713TIP3    H132698   4.469   4.032   7.144  0.0209 -0.6241 -0.1539
 3713TIP3    H232699   4.545   3.905   7.114  1.2396  0.1938 -0.5729
 3714TIP3   OH232700   4.314   4.527   7.560  0.0410  0.6999 -0.4650
 3714TIP3    H132701   4.343   4.609   7.601 -0.2807  1.5735 -1.9124
 3714TIP3    H232702   4.277   4.476   7.632  1.6975  1.1282  0.7613
 3715TIP3   OH232703   1.537   4.643   8.732  0.5609 -0.1521 -0.1275
 3715TIP3    H132704   1.462   4.583   8.725  0.9278 -0.7355  0.6835
 3715TIP3    H232705   1.524   4.688   8.815  0.1927  1.0561 -0.8197
 3716TIP3   OH232706   4.211   0.700   0.842  0.3856 -0.2095  0.4317
 3716TIP3    H132707   4.251   0.667   0.762  0.5390 -2.4008  1.3423
 3716TIP3    H232708   4.172   0.784   0.817 -0.5098 -1.3081 -2.2049
 3717TIP3   OH232709   2.321   5.958   0.553  0.0821  0.6433  0.3102
 3717TIP3    H132710   2.248   5.952   0.615 -1.2770 -0.6135 -1.3064
 3717TIP3    H232711   2.346   6.050   0.555 -2.2386  1.3429  0.2288
 3718TIP3   OH232712   0.674   2.608   0.318  0.1618 -0.3918  0.2170
 3718TIP3    H132713   0.732   2.545   0.274  0.0269  1.2178 -2.4772
 3718TIP3    H232714   0.592   2.561   0.328  0.1135 -0.7842 -1.5886
 3719TIP3   OH232715   6.724   1.814   1.224 -0.4827  0.1417 -0.0004
 3719TIP3    H132716   6.651   1.762   1.259 -0.6394 -0.4987 -1.2275
 3719TIP3    H232717   6.802   1.763   1.244 -0.4420  0.4046  0.5370
 3720TIP3   OH232718   4.959   4.308   1.501 -0.4764  0.2514 -0.0997
 3720TIP3    H132719   4.935   4.233   1.556  0.3038 -0.2705 -0.4518
 3720TIP3    H232720   4.883   4.366   1.505 -1.6886 -1.1885 -0.9364
 3721TIP3   OH232721   3.474   3.475   0.501  0.3764  0.3378  0.3799
 3721TIP3    H132722   3.401   3.466   0.440  1.3234  0.5112 -0.8377
 3721TIP3    H232723   3.436   3.464   0.588 -1.4272  2.3766 -0.0737
 3722TIP3   OH232724   2.643   3.114   8.290 -0.8493  0.0277  0.1157
 3722TIP3    H132725   2.648   3.119   8.386  0.8157  3.8355  0.0033
 3722TIP3    H232726   2.560   3.156   8.268 -1.1629 -0.7160 -0.1623
 3723TIP3   OH232727   1.984   4.080   1.949 -0.6347  0.1927 -0.1654
 3723TIP3    H132728   1.925   4.059   2.021 -2.4300  1.4042 -1.2152
 3723TIP3    H232729   2.030   4.159   1.978  0.5939 -0.7874  0.6786
 3724TIP3   OH232730   3.693   2.882   0.993 -0.1150  0.0102  0.3172
 3724TIP3    H132731   3.682   2.977   0.998  0.9299  0.1270  0.8329
 3724TIP3    H232732   3.657   2.858   0.908  2.6498  1.3728 -1.4170
 3725TIP3   OH232733   3.257   1.650   1.927 -0.8138  0.4905  0.2954
 3725TIP3    H132734   3.298   1.718   1.980 -0.3025  0.1373  0.3579
 3725TIP3    H232735   3.166   1.650   1.955 -0.4660  0.0211  1.4823
 3726TIP3   OH232736   4.775   1.314   0.072 -0.3022 -0.5990  0.5366
 3726TIP3    H132737   4.710   1.272   0.129 -1.8997 -0.3328 -0.9992
 3726TIP3    H232738   4.734   1.396   0.045  0.2931 -0.7937 -1.1076
 3727TIP3   OH232739   5.532   0.028   7.462  0.3115  0.1021 -0.2248
 3727TIP3    H132740   5.552   0.020   7.556  0.7823  0.7334 -0.2605
 3727TIP3    H232741   5.507   0.120   7.452  3.1060  0.8562 -1.2093
 3728TIP3   OH232742   0.442   0.034   6.652  0.2078 -0.2439  0.2792
 3728TIP3    H132743   0.472   0.017   6.563 -0.1630  1.1681 -0.1551
 3728TIP3    H232744   0.484  -0.032   6.706 -2.1002 -3.2758 -1.3513
 3729TIP3   OH232745   4.874   3.170   7.544 -0.7928 -0.4805 -0.2042
 3729TIP3    H132746   4.796   3.165   7.489 -1.1264  3.4905 -0.4263
 3729TIP3    H232747   4.854   3.239   7.607  2.7179  1.2842 -0.7331
 3730TIP3   OH232748   0.196   3.398   8.625  0.5861  0.2416  0.6163
 3730TIP3    H132749   0.157   3.439   8.702 -1.1544 -0.7971  0.3518
 3730TIP3    H232750   0.175   3.457   8.553  1.9631  1.0684  0.8659
 3731TIP3   OH232751   1.780   4.689   8.581  0.2764  0.1750  0.0921
 3731TIP3    H132752   1.858   4.707   8.634 -0.8987  1.4794  1.4283
 3731TIP3    H232753   1.717   4.652   8.642 -0.9768  1.3549 -0.4437
 3732TIP3   OH232754   5.488   1.264   6.417 -0.1484  0.2084 -0.4558
 3732TIP3    H132755   5.556   1.329   6.402 -0.3227 -0.0509 -2.7881
 3732TIP3    H232756   5.508   1.228   6.504 -0.5562  3.8723  1.3496
 3733TIP3   OH232757   5.347   6.047   8.105 -0.2590 -0.1606  0.3161
 3733TIP3    H132758   5.409   6.091   8.164  2.4917 -1.0919 -1.6819
 3733TIP3    H232759   5.320   6.115   8.044 -4.7107  1.3704  3.4484
 3734TIP3   OH232760   4.969   4.109   1.704 -0.6976  0.5587  0.1376
 3734TIP3    H132761   5.023   4.149   1.772  0.6049 -0.6575 -0.1309
 3734TIP3    H232762   4.908   4.053   1.752 -0.8938  0.9819  0.3844
 3735TIP3   OH232763   1.948   1.807   6.813  0.2390 -0.2943 -0.2803
 3735TIP3    H132764   2.042   1.789   6.810  1.1145  2.8521  2.6425
 3735TIP3    H232765   1.931   1.857   6.733  0.5189 -2.4884 -1.8037
 3736TIP3   OH232766   2.034   2.410   7.369 -0.2454 -0.1494 -0.2510
 3736TIP3    H132767   2.120   2.435   7.337  0.7020  0.0623  2.2520
 3736TIP3    H232768   2.051   2.361   7.450 -2.4743  3.1622  2.5154
 3737TIP3   OH232769   0.325   2.794   0.599 -0.2506  0.3004 -0.0926
 3737TIP3    H132770   0.339   2.776   0.692  0.2262  1.9098  0.1854
 3737TIP3    H232771   0.397   2.853   0.575 -0.3105 -0.1553 -1.5223
 3738TIP3   OH232772   5.454   3.033   7.276  1.0503  0.3627  0.1005
 3738TIP3    H132773   5.449   2.943   7.309  1.3179  1.4761  3.5929
 3738TIP3    H232774   5.507   3.026   7.196 -1.0122 -2.8254 -1.2074
 3739TIP3   OH232775   1.941   2.091   0.124 -0.5735 -0.2038 -0.5723
 3739TIP3    H132776   1.955   2.073   0.031 -1.3004  1.2941 -0.9991
 3739TIP3    H232777   1.945   2.004   0.165 -0.6595 -0.9527 -2.0428
 3740TIP3   OH232778   5.635   0.111   1.404 -0.6312 -0.4630  0.2302
 3740TIP3    H132779   5.550   0.074   1.430 -1.1158  1.8728  2.3150
 3740TIP3    H232780   5.686   0.113   1.484  0.8112 -0.2579 -0.6579
 3741TIP3   OH232781   5.198   6.333   1.697 -0.2987 -0.2791  0.4797
 3741TIP3    H132782   5.284   6.319   1.736  0.1408  1.7449  0.3725
 3741TIP3    H232783   5.163   6.409   1.744 -1.1341  0.1939 -0.8514
 3742TIP3   OH232784   1.490   3.327   2.013 -0.1971  0.2623 -0.0726
 3742TIP3    H132785   1.510   3.241   1.976  0.2000  0.2094  0.2622
 3742TIP3    H232786   1.503   3.317   2.107  0.4805  0.8614 -0.0967
 3743TIP3   OH232787   1.968   4.283   0.993 -0.1507 -0.4094 -0.2408
 3743TIP3    H132788   1.937   4.232   0.918 -1.5651  0.5283 -0.3289
 3743TIP3    H232789   1.999   4.366   0.956 -0.6345 -0.0340  0.1713
 3744TIP3   OH232790   2.177   4.884   7.535 -0.3511 -0.5445 -0.5297
 3744TIP3    H132791   2.161   4.820   7.465  1.8664  2.6103 -4.3064
 3744TIP3    H232792   2.105   4.947   7.526  0.3590  0.2859 -0.5122
 3745TIP3   OH232793   2.909   5.419   8.660 -0.2738 -0.3635 -0.7252
 3745TIP3    H132794   2.868   5.351   8.713 -1.4884  0.3483 -0.7247
 3745TIP3    H232795   2.993   5.381   8.634  0.6008 -0.5934  2.0483
 3746TIP3   OH232796   1.351   6.294   6.703  0.7144 -0.0435  0.5305
 3746TIP3    H132797   1.413   6.312   6.633 -0.0611 -0.3747 -0.2624
 3746TIP3    H232798   1.334   6.380   6.742  1.1348  0.1487  0.2985
 3747TIP3   OH232799   6.801   5.047   7.888 -0.2431 -0.0372  0.2349
 3747TIP3    H132800   6.808   4.975   7.950  1.6216 -0.4819 -0.4348
 3747TIP3    H232801   6.779   5.005   7.804 -0.0002  0.2601  0.0194
 3748TIP3   OH232802   0.664   1.508   0.947 -0.4128  0.0507 -0.1097
 3748TIP3    H132803   0.728   1.467   1.005  2.1071  1.4846 -1.6701
 3748TIP3    H232804   0.687   1.475   0.859 -1.7446  0.7088 -0.7300
 3749TIP3   OH232805   2.340   0.249   1.013 -0.3415  0.0547  0.1712
 3749TIP3    H132806   2.271   0.302   0.974  0.1317 -0.7451 -1.8517
 3749TIP3    H232807   2.367   0.190   0.944  4.2294  2.0436 -0.0895
 3750TIP3   OH232808   1.186   5.942   0.456 -0.3103  0.1795  0.3077
 3750TIP3    H132809   1.164   5.987   0.375 -0.2840 -1.1023 -0.4414
 3750TIP3    H232810   1.207   6.012   0.518 -1.6566  1.2333 -0.3826
 3751TIP3   OH232811   6.281   1.031   1.760  0.2427  0.8003 -0.7603
 3751TIP3    H132812   6.301   0.940   1.738  1.1376  0.7931  0.0479
 3751TIP3    H232813   6.223   1.025   1.836  0.8162  0.9032 -0.3052
 3752TIP3   OH232814   4.847   5.798   0.952 -0.0044 -0.1260 -0.0175
 3752TIP3    H132815   4.841   5.893   0.964 -0.0026 -0.3205  1.7767
 3752TIP3    H232816   4.941   5.779   0.953 -0.0341 -0.2769  0.9920
 3753TIP3   OH232817   4.015   2.862   7.864 -0.0953 -0.9781 -0.3522
 3753TIP3    H132818   4.065   2.836   7.941  1.1410  0.5982 -0.5654
 3753TIP3    H232819   4.081   2.894   7.802 -1.2611  0.0675 -1.1059
 3754TIP3   OH232820   3.135   3.488   7.875  0.2046 -0.2358  0.0397
 3754TIP3    H132821   3.146   3.438   7.794 -0.0571 -0.8620  0.3820
 3754TIP3    H232822   3.191   3.565   7.863 -1.5884  0.8922 -1.6816
 3755TIP3   OH232823   4.893   5.367   1.605 -0.3124  0.1152  0.2925
 3755TIP3    H132824   4.975   5.393   1.648  1.2377 -1.8220 -1.3313
 3755TIP3    H232825   4.846   5.318   1.673 -0.9171  2.5020  1.7221
 3756TIP3   OH232826   6.038   2.414   0.166  0.1330  0.5102 -0.2997
 3756TIP3    H132827   6.030   2.321   0.148  1.9157  0.4173 -0.7057
 3756TIP3    H232828   5.971   2.455   0.111 -0.5383 -0.4857 -0.2589
 3757TIP3   OH232829   5.302   2.312   1.016 -0.4890  0.0413  0.4601
 3757TIP3    H132830   5.296   2.244   1.083 -1.8224 -1.3318 -0.9506
 3757TIP3    H232831   5.217   2.312   0.973  0.4201  0.5339 -1.5165
 3758TIP3   OH232832   5.027   4.303   7.734 -0.1709  0.1525 -0.1188
 3758TIP3    H132833   5.116   4.276   7.715 -0.6399 -0.9490 -0.8744
 3758TIP3    H232834   5.019   4.390   7.695  0.6103  0.3306  0.1062
 3759TIP3   OH232835   3.173   4.538   8.320 -0.7481  0.1467 -0.4369
 3759TIP3    H132836   3.113   4.572   8.254 -0.3653  0.7537 -0.4859
 3759TIP3    H232837   3.259   4.573   8.294 -0.4449 -0.3438 -0.1210
 3760TIP3   OH232838   5.064   6.077   7.818  0.8708 -0.4795 -0.1355
 3760TIP3    H132839   5.041   6.017   7.889 -0.3023  1.1061  0.8851
 3760TIP3    H232840   5.121   6.142   7.858 -1.7159  1.8369  0.0863
 3761TIP3   OH232841   6.427   2.048   7.330 -0.2247  0.1937 -0.1195
 3761TIP3    H132842   6.514   2.028   7.366 -0.0643 -1.8009 -1.4756
 3761TIP3    H232843   6.388   2.107   7.395  0.2276 -2.7432  3.1333
 3762TIP3   OH232844   3.183   5.595   7.121 -0.0919 -0.1760  0.5757
 3762TIP3    H132845   3.208   5.576   7.030 -1.9565 -0.4543  0.0981
 3762TIP3    H232846   3.175   5.510   7.162 -3.4362 -0.3572 -0.2011
 3763TIP3   OH232847   1.666   0.300   7.772 -0.7807 -0.5138 -0.9594
 3763TIP3    H132848   1.576   0.329   7.755 -0.1011  1.8490 -0.8603
 3763TIP3    H232849   1.677   0.311   7.866 -0.1055  0.1925 -1.1116
 3764TIP3   OH232850   4.787   1.038   0.734  0.1538 -0.3280 -0.6903
 3764TIP3    H132851   4.804   1.109   0.797  0.8480  1.3975 -2.6940
 3764TIP3    H232852   4.764   0.963   0.788 -1.9622  1.7348  1.5647
 3765TIP3   OH232853   3.919   0.524   6.935 -0.1162 -0.5430  0.1945
 3765TIP3    H132854   3.998   0.529   6.989  0.8039  0.3314 -1.1583
 3765TIP3    H232855   3.853   0.573   6.983  0.2260 -1.0839  1.2377
 3766TIP3   OH232856   3.802   4.073   7.365  0.4056  0.0214  0.4743
 3766TIP3    H132857   3.823   4.017   7.440  1.1924  0.0393  0.2735
 3766TIP3    H232858   3.858   4.041   7.295 -0.4769 -0.1369 -0.1790
 3767TIP3   OH232859   1.040   4.373   1.762 -0.2006 -0.4187 -0.1789
 3767TIP3    H132860   0.974   4.330   1.816 -0.0145  0.0066  0.3916
 3767TIP3    H232861   1.026   4.467   1.776  0.8930 -0.3249  0.4209
 3768TIP3   OH232862   1.386   6.040   1.359  0.8483  0.6840 -0.1701
 3768TIP3    H132863   1.293   6.025   1.373  0.5353  2.5402  0.0624
 3768TIP3    H232864   1.390   6.088   1.276  1.6986 -0.2630 -0.6930
 3769TIP3   OH232865   3.023   0.900   2.490  0.0509  0.7293  0.4887
 3769TIP3    H132866   3.095   0.962   2.498  0.7721 -0.0720  0.3905
 3769TIP3    H232867   2.975   0.929   2.413  1.9740 -0.3695 -1.2430
 3770TIP3   OH232868   0.668   4.875   8.839  0.1131 -0.5770 -0.4973
 3770TIP3    H132869   0.589   4.865   8.784 -1.3364  0.2881  1.3306
 3770TIP3    H232870   0.740   4.865   8.777 -1.4166 -0.0977 -2.5011
 3771TIP3   OH232871   1.438   4.125   0.786  0.5493 -0.5997 -0.2394
 3771TIP3    H132872   1.488   4.115   0.867  1.8918  3.3055 -0.3962
 3771TIP3    H232873   1.503   4.117   0.717 -0.1697 -1.3704 -0.8594
 3772TIP3   OH232874   1.329   2.043   7.315 -0.0384 -0.0904 -0.0874
 3772TIP3    H132875   1.276   1.986   7.260 -3.1668  0.4850  2.0787
 3772TIP3    H232876   1.334   2.126   7.267 -1.7466  0.0433 -0.1094
 3773TIP3   OH232877   2.704   0.422   0.674 -0.4569  0.2769  0.1533
 3773TIP3    H132878   2.756   0.360   0.724  0.2212  0.3725 -0.4195
 3773TIP3    H232879   2.707   0.390   0.584 -0.2472  1.0295 -0.1217
 3774TIP3   OH232880   0.057   6.045   7.905  0.2824  0.0722  0.0755
 3774TIP3    H132881   0.100   6.073   7.825  1.6821  2.3313  1.4841
 3774TIP3    H232882   0.105   5.967   7.933 -0.0656 -0.5857 -1.1230
 3775TIP3   OH232883   4.115   3.514   0.583  0.0204  0.3848  0.1038
 3775TIP3    H132884   4.149   3.557   0.661  0.3975 -0.4427  0.4055
 3775TIP3    H232885   4.100   3.585   0.521  1.9360  0.8465  0.0948
 3776TIP3   OH232886   3.258   1.022   2.409  0.3323 -0.6737  0.6996
 3776TIP3    H132887   3.351   1.026   2.427  1.2170  2.6021 -3.2131
 3776TIP3    H232888   3.229   1.113   2.410 -1.3294 -0.9038 -3.8550
 3777TIP3   OH232889   4.489   3.867   8.320 -0.8633  0.4643 -0.3434
 3777TIP3    H132890   4.542   3.787   8.315 -0.8626  0.3860  0.8036
 3777TIP3    H232891   4.404   3.841   8.284 -1.8229 -0.9048  2.5746
 3778TIP3   OH232892   0.996   6.345   8.689  0.3172 -0.8818 -0.1892
 3778TIP3    H132893   0.935   6.310   8.754 -0.6451  0.4255 -0.3299
 3778TIP3    H232894   1.081   6.343   8.731  0.1688 -2.6178  0.0761
 3779TIP3   OH232895   3.669   6.664   0.751 -0.2702 -0.6151 -0.1507
 3779TIP3    H132896   3.668   6.750   0.709  0.2342 -0.4328  0.2032
 3779TIP3    H232897   3.753   6.627   0.728 -0.2585 -0.7847  0.1558
 3780TIP3   OH232898   3.283   2.639   1.300  0.2652 -0.0324  0.0720
 3780TIP3    H132899   3.362   2.678   1.264  1.2819  1.3097  3.4171
 3780TIP3    H232900   3.225   2.713   1.318 -0.1458 -0.6041  1.2299
 3781TIP3   OH232901   4.939   6.706   0.730 -0.7854  0.1527 -0.3897
 3781TIP3    H132902   4.958   6.768   0.801 -0.2045  1.3754 -1.5778
 3781TIP3    H232903   4.999   6.633   0.746 -2.0571 -0.5479  1.5090
 3782TIP3   OH232904   4.355   5.059   8.413  0.2300  0.1617 -0.0352
 3782TIP3    H132905   4.411   5.016   8.478  0.8031  0.1801 -0.5064
 3782TIP3    H232906   4.284   5.098   8.465 -0.1728 -1.1304  0.4171
 3783TIP3   OH232907   0.709   3.465   5.935  0.7676 -0.0419  0.6071
 3783TIP3    H132908   0.735   3.555   5.957  0.7501 -0.0703  0.7391
 3783TIP3    H232909   0.618   3.459   5.961  0.3585  0.3361 -0.6757
 3784TIP3   OH232910   4.388   1.380   1.800 -0.2219 -0.5085 -0.2062
 3784TIP3    H132911   4.402   1.332   1.882 -0.5424 -0.7076 -0.2653
 3784TIP3    H232912   4.442   1.333   1.736 -0.9627 -1.1465 -0.3876
 3785TIP3   OH232913   1.757   5.147   8.234 -0.2038  0.0125 -0.1606
 3785TIP3    H132914   1.848   5.160   8.261 -0.6874  1.1682  0.9835
 3785TIP3    H232915   1.739   5.056   8.256  1.0146 -0.6153 -1.5277
 3786TIP3   OH232916   4.492   3.535   1.515 -0.0198  0.2504  0.6359
 3786TIP3    H132917   4.412   3.550   1.465  0.0094 -1.6133 -0.0733
 3786TIP3    H232918   4.490   3.600   1.585 -1.3846  1.2124 -0.2484
 3787TIP3   OH232919   4.008   3.837   1.360  0.2042 -0.8568  0.3802
 3787TIP3    H132920   4.045   3.924   1.370 -1.1986 -0.3166  1.1616
 3787TIP3    H232921   4.082   3.778   1.369  0.9865  0.2036  1.1458
 3788TIP3   OH232922   3.064   5.128   1.170  0.1499 -0.4589 -0.0342
 3788TIP3    H132923   3.006   5.158   1.240 -2.2600 -2.8770 -0.8167
 3788TIP3    H232924   3.144   5.178   1.183 -1.4327  1.7722  2.2494
 3789TIP3   OH232925   0.759   2.720   1.978  0.7504  0.2984  0.8054
 3789TIP3    H132926   0.665   2.708   1.985  0.8848 -1.4837 -0.0168
 3789TIP3    H232927   0.791   2.640   1.937  2.2762  2.0625 -1.7031
 3790TIP3   OH232928   4.126   3.939   0.244  0.4229 -0.5084  0.0116
 3790TIP3    H132929   4.082   4.022   0.265  3.0985  1.6369 -2.0300
 3790TIP3    H232930   4.078   3.905   0.168  0.8946  0.6905 -0.8673
 3791TIP3   OH232931   4.133   2.516   6.466  0.2811  1.0470  0.1765
 3791TIP3    H132932   4.227   2.535   6.470  0.2807  1.1952 -0.4206
 3791TIP3    H232933   4.125   2.452   6.395  0.3132 -1.4405  2.2711
 3792TIP3   OH232934   5.862   0.010   7.727  0.0997  0.4525 -0.1302
 3792TIP3    H132935   5.880  -0.047   7.802  0.1304  0.4224 -0.1605
 3792TIP3    H232936   5.768   0.023   7.729  0.1700  0.9298  0.2626
 3793TIP3   OH232937   4.620   4.068   8.750  0.1991  0.5723  0.2189
 3793TIP3    H132938   4.690   4.083   8.814 -0.4465  0.7355  0.8922
 3793TIP3    H232939   4.625   3.974   8.731  0.9733  0.6850 -0.1777
 3794TIP3   OH232940   4.690   2.217   6.253 -0.1304 -0.0313 -0.3483
 3794TIP3    H132941   4.740   2.136   6.254 -0.4188 -0.2723  2.5187
 3794TIP3    H232942   4.599   2.189   6.245 -0.0971  0.2400 -2.2675
 3795TIP3   OH232943   1.087   3.765   8.767  0.1346 -0.1917 -0.1733
 3795TIP3    H132944   1.031   3.727   8.834  0.0935 -0.3878 -0.3183
 3795TIP3    H232945   1.065   3.717   8.687  0.3599 -0.1288 -0.2745
 3796TIP3   OH232946   3.501   2.336   2.528 -0.0229  0.0590  0.3666
 3796TIP3    H132947   3.453   2.405   2.574  0.7788  0.3371  0.7985
 3796TIP3    H232948   3.544   2.382   2.455 -1.2583 -0.3695 -0.6834
 3797TIP3   OH232949   5.318   0.440   6.309  0.2607 -0.4404  0.5462
 3797TIP3    H132950   5.397   0.389   6.326  0.9314  0.4522  0.2318
 3797TIP3    H232951   5.248   0.376   6.302  0.9909 -1.2628  0.6579
 3798TIP3   OH232952   0.719   0.668   7.660  0.7702 -0.0068  0.2849
 3798TIP3    H132953   0.746   0.582   7.629  1.0461  0.3013 -0.3402
 3798TIP3    H232954   0.637   0.686   7.613 -0.9039 -1.1523  2.5261
 3799TIP3   OH232955   0.390   5.646   8.263 -0.0986 -0.1542  0.0702
 3799TIP3    H132956   0.427   5.735   8.268  0.2031 -0.3113  0.8310
 3799TIP3    H232957   0.303   5.655   8.304  0.8629 -0.6661  2.3809
 3800TIP3   OH232958   6.657   5.817   7.850 -0.6465  0.4591 -0.1111
 3800TIP3    H132959   6.688   5.891   7.798 -0.1004 -0.0048 -0.4585
 3800TIP3    H232960   6.704   5.823   7.933 -1.0271  0.8252  0.0785
 3801TIP3   OH232961   4.726   4.825   8.392 -0.1393  0.2185 -0.7333
 3801TIP3    H132962   4.641   4.841   8.350  0.0208 -0.3360 -1.2711
 3801TIP3    H232963   4.782   4.896   8.361  0.3314 -0.8460 -2.4621
 3802TIP3   OH232964   4.606   6.461   8.550 -0.0739 -0.1905  0.1117
 3802TIP3    H132965   4.641   6.539   8.506 -0.6116  0.2960  0.5287
 3802TIP3    H232966   4.644   6.464   8.638 -0.6295 -0.0123  0.3548
 3803TIP3   OH232967   4.066   0.272   0.162 -0.0968 -0.1333  0.4394
 3803TIP3    H132968   4.071   0.359   0.201  0.3201 -0.2782  0.7137
 3803TIP3    H232969   4.093   0.284   0.071  0.5146 -0.0721  0.6265
 3804TIP3   OH232970   4.328   5.720   7.350  0.4344  0.6295 -0.0503
 3804TIP3    H132971   4.253   5.665   7.328  1.1339 -0.7808  0.9202
 3804TIP3    H232972   4.296   5.776   7.421  0.7595 -1.2787  1.6960
 3805TIP3   OH232973   5.437   1.820   1.544 -0.0088  0.2841 -0.0873
 3805TIP3    H132974   5.477   1.839   1.629  0.4089  0.5616 -0.3405
 3805TIP3    H232975   5.456   1.727   1.529  0.4494  0.3840 -0.1508
 3806TIP3   OH232976   0.865   0.029   7.047 -0.0578  0.0817 -0.2259
 3806TIP3    H132977   0.835   0.020   7.138  0.2972  0.0037 -0.1156
 3806TIP3    H232978   0.887   0.122   7.038  0.2605  0.0159 -0.1221
 3807TIP3   OH232979   3.710   0.461   8.375  0.4832  0.1795  0.3671
 3807TIP3    H132980   3.692   0.540   8.425 -1.1527  0.7609 -1.0004
 3807TIP3    H232981   3.735   0.493   8.288  0.2929 -0.7863 -0.0565
 3808TIP3   OH232982   6.527   0.536   7.081  0.1880 -0.5032  0.3741
 3808TIP3    H132983   6.435   0.526   7.058  0.2667 -1.8531  0.6052
 3808TIP3    H232984   6.531   0.617   7.131 -0.5133  0.7502 -1.4950
 3809TIP3   OH232985   3.817   1.013   2.127 -0.0157  0.4118 -0.5011
 3809TIP3    H132986   3.872   1.015   2.049  1.1312 -1.5742  0.1550
 3809TIP3    H232987   3.850   1.084   2.182  0.2534  0.7850 -1.1324
 3810TIP3   OH232988   2.173   0.645   1.936 -0.0104  0.7733 -0.4374
 3810TIP3    H132989   2.131   0.636   1.850 -1.2006  1.0760  0.0929
 3810TIP3    H232990   2.259   0.682   1.916 -0.0848  0.4098 -1.5393
 3811TIP3   OH232991   3.401   0.127   7.246  0.4579  0.1791 -0.9738
 3811TIP3    H132992   3.440   0.084   7.322 -0.9843 -0.8004 -0.7367
 3811TIP3    H232993   3.388   0.057   7.182  0.6186  0.7861 -1.6845
 3812TIP3   OH232994   1.527   3.587   1.971 -0.1893 -0.1396  0.5349
 3812TIP3    H132995   1.541   3.493   1.975 -0.2449 -0.2147 -0.5992
 3812TIP3    H232996   1.445   3.597   1.923  1.2431  0.5147 -1.9742
 3813TIP3   OH232997   2.256   6.415   6.878  0.2792  0.3868 -0.5338
 3813TIP3    H132998   2.281   6.421   6.970 -3.1858  0.1241  0.5841
 3813TIP3    H232999   2.308   6.482   6.835  4.3540 -1.5200  0.8957
 3814TIP3   OH233000   5.017   0.785   8.753 -0.0684  0.0730  0.1899
 3814TIP3    H133001   5.018   0.880   8.755  0.0615  0.4252 -4.9748
 3814TIP3    H233002   5.107   0.760   8.735 -0.3076 -0.9779  0.3612
 3815TIP3   OH233003   6.628   4.920   1.841  0.0257 -0.1157  0.1505
 3815TIP3    H133004   6.682   4.905   1.919  1.6121  0.9885 -0.6677
 3815TIP3    H233005   6.685   4.896   1.768 -0.6664  0.8709 -0.7341
 3816TIP3   OH233006   5.541   0.803   8.293 -0.3489  0.4209  0.2014
 3816TIP3    H133007   5.534   0.843   8.380 -5.9557  1.1822 -0.2217
 3816TIP3    H233008   5.541   0.709   8.309  0.0563  0.5491  0.9909
 3817TIP3   OH233009   1.239   4.001   0.033 -0.1273  0.1523 -0.1771
 3817TIP3    H133010   1.200   3.913   0.033  0.9762 -0.3597 -0.0636
 3817TIP3    H233011   1.164   4.060   0.032 -1.0896 -0.7405  3.4438
 3818TIP3   OH233012   2.297   4.734   6.765  0.2884  0.1574 -0.4110
 3818TIP3    H133013   2.207   4.718   6.794  0.0094 -0.6469 -1.6590
 3818TIP3    H233014   2.350   4.722   6.844 -0.5118 -1.2291 -0.0564
 3819TIP3   OH233015   0.122   2.500   6.380 -0.2757  0.5803  0.3276
 3819TIP3    H133016   0.213   2.487   6.407 -0.6455  1.1730  1.9818
 3819TIP3    H233017   0.111   2.595   6.377 -0.8659  0.5111  0.2269
 3820TIP3   OH233018   0.348   0.842   1.844 -0.1579 -0.0773 -0.2700
 3820TIP3    H133019   0.334   0.800   1.760  0.4151  1.0180 -0.9330
 3820TIP3    H233020   0.358   0.770   1.906 -0.7140 -0.8931 -1.1117
 3821TIP3   OH233021   5.774   6.530   6.734 -0.1654  0.8749 -0.0807
 3821TIP3    H133022   5.754   6.492   6.648 -2.0952  0.8274  0.3532
 3821TIP3    H233023   5.779   6.624   6.718 -0.3420  0.8509 -0.2751
 3822TIP3   OH233024   3.806   3.590   7.381  0.3499 -0.0344 -0.5039
 3822TIP3    H133025   3.825   3.611   7.290 -2.5428  2.2001 -0.7547
 3822TIP3    H233026   3.761   3.505   7.377 -0.0667  0.2070 -1.2338
 3823TIP3   OH233027   4.603   3.713   7.031 -1.1026  0.1539  0.3896
 3823TIP3    H133028   4.577   3.629   7.070 -0.7489 -0.5826 -0.9181
 3823TIP3    H233029   4.613   3.695   6.938 -0.7138  1.5891  0.1248
 3824TIP3   OH233030   1.732   3.246   8.385 -0.1081  0.4016  0.5414
 3824TIP3    H133031   1.750   3.268   8.477 -1.6989 -1.4434  1.3921
 3824TIP3    H233032   1.715   3.152   8.387 -3.2811  0.8187 -1.0851
 3825TIP3   OH233033   5.255   4.475   2.118  0.1629 -0.0216 -0.0281
 3825TIP3    H133034   5.323   4.521   2.167  0.6415 -1.5097  0.7834
 3825TIP3    H233035   5.175   4.524   2.136  0.8338  1.1140 -0.0922
 3826TIP3   OH233036   1.371   0.195   7.739  0.1147  0.1747 -0.1096
 3826TIP3    H133037   1.344   0.161   7.654  0.8506 -2.4392  0.6228
 3826TIP3    H233038   1.349   0.126   7.802  2.5798  0.5679  1.3561
 3827TIP3   OH233039   5.087   2.124   8.364 -0.1927 -0.4493 -0.0773
 3827TIP3    H133040   5.169   2.150   8.322  0.5473 -1.3081  0.7838
 3827TIP3    H233041   5.023   2.122   8.293  0.6704 -0.3429 -0.8762
 3828TIP3   OH233042   5.933   5.327   0.656  0.2889  0.6968 -0.2590
 3828TIP3    H133043   5.898   5.410   0.623  0.8405  1.6400  1.3857
 3828TIP3    H233044   5.857   5.269   0.660 -0.4205  1.6049 -0.0540
 3829TIP3   OH233045   4.367   0.441   8.580  0.7217  0.1453  0.2480
 3829TIP3    H133046   4.313   0.470   8.506 -0.3786 -0.4608  0.7893
 3829TIP3    H233047   4.370   0.516   8.638 -0.6511 -0.2083  0.8184
 3830TIP3   OH233048   5.203   3.304   0.580  0.1156 -0.2154 -0.5160
 3830TIP3    H133049   5.177   3.271   0.493  0.6586 -0.3148 -0.6456
 3830TIP3    H233050   5.128   3.285   0.636  0.0830 -0.9120 -0.7811
 3831TIP3   OH233051   5.568   3.873   1.437  0.6960  0.1182  0.0363
 3831TIP3    H133052   5.594   3.792   1.394  1.3991  1.1222 -1.5035
 3831TIP3    H233053   5.489   3.849   1.486  0.5381 -1.3594 -0.8627
 3832TIP3   OH233054   0.013   1.374   1.355  0.4237  0.4730  0.0417
 3832TIP3    H133055   0.030   1.461   1.319  1.1202  0.2285 -0.2266
 3832TIP3    H233056  -0.077   1.355   1.328  0.0881  1.2983  0.5055
 3833TIP3   OH233057   3.640   2.166   6.634  0.1614 -0.2601  0.0633
 3833TIP3    H133058   3.683   2.235   6.684  0.3436  0.2362 -0.7485
 3833TIP3    H233059   3.573   2.212   6.583 -0.4152 -0.8322  0.2969
 3834TIP3   OH233060   4.908   5.691   7.724  0.4120 -0.1487 -0.6166
 3834TIP3    H133061   4.999   5.713   7.746 -0.3683  2.1023  0.6308
 3834TIP3    H233062   4.893   5.606   7.766  1.4863  0.1532  0.4312
 3835TIP3   OH233063   1.206   1.448   8.833 -0.8054  0.1049 -0.1615
 3835TIP3    H133064   1.239   1.397   8.908 -1.6252  0.5777  0.5476
 3835TIP3    H233065   1.283   1.465   8.780 -0.4923 -1.9032 -0.4583
 3836TIP3   OH233066   3.527   3.188   2.128 -0.0891 -0.8893 -0.3774
 3836TIP3    H133067   3.621   3.169   2.118  0.2604  0.3465  0.4020
 3836TIP3    H233068   3.485   3.104   2.113  1.3211 -2.1259  1.9309
 3837TIP3   OH233069   3.694   0.682   8.572 -0.0822  0.6640  0.2504
 3837TIP3    H133070   3.775   0.673   8.622  1.3321 -1.2458 -2.1267
 3837TIP3    H233071   3.710   0.754   8.512  0.3344 -0.4166 -0.9703
 3838TIP3   OH233072   6.647   0.406   0.191 -0.2974 -0.3890 -0.1084
 3838TIP3    H133073   6.582   0.351   0.147  0.0506  1.8174 -3.7030
 3838TIP3    H233074   6.710   0.429   0.123  2.4425  0.3182  2.4548
 3839TIP3   OH233075   6.577   3.587   1.362 -0.2288  0.5411  0.1964
 3839TIP3    H133076   6.587   3.496   1.333  2.5921  1.2683 -1.6064
 3839TIP3    H233077   6.619   3.590   1.448 -0.5612  0.1077  0.3774
 3840TIP3   OH233078   6.025   6.421   6.798 -0.1110  0.2525  0.0672
 3840TIP3    H133079   6.016   6.347   6.857 -1.8934  0.8701  0.6337
 3840TIP3    H233080   5.936   6.455   6.788  0.3078  0.8322 -2.1184
 3841TIP3   OH233081   3.464   5.625   0.009  0.4234 -0.1788  0.0923
 3841TIP3    H133082   3.452   5.688   0.080 -1.8338 -0.3324 -0.0910
 3841TIP3    H233083   3.520   5.670  -0.054  0.3800  0.9089  0.8115
 3842TIP3   OH233084   6.590   1.879   1.521 -0.5943 -0.4650  0.4593
 3842TIP3    H133085   6.644   1.957   1.510 -0.1758 -0.7058  0.7687
 3842TIP3    H233086   6.500   1.910   1.509 -0.3407 -0.2492 -1.0478
 3843TIP3   OH233087   0.601   1.850   0.191 -0.2926 -0.3247 -0.1285
 3843TIP3    H133088   0.642   1.850   0.105  1.5227  3.0212  0.5527
 3843TIP3    H233089   0.674   1.838   0.252 -1.2398 -0.4021  1.0262
 3844TIP3   OH233090   0.166   4.866   0.102  0.4188 -0.5893  0.3701
 3844TIP3    H133091   0.204   4.846   0.016 -1.3133 -1.5141 -0.2328
 3844TIP3    H233092   0.150   4.781   0.142  0.8453 -0.1726  1.4735
 3845TIP3   OH233093   5.680   2.767   1.044  0.7867  0.0851 -0.1045
 3845TIP3    H133094   5.609   2.809   0.996  1.1625  1.3519  0.4042
 3845TIP3    H233095   5.644   2.682   1.071 -0.5905  0.7530  0.2677
 3846TIP3   OH233096   1.190   4.500   8.167 -0.1923 -0.1389  0.8318
 3846TIP3    H133097   1.115   4.449   8.136  0.5288 -0.5331 -0.3359
 3846TIP3    H233098   1.238   4.523   8.087  0.3648  1.0123  1.4722
 3847TIP3   OH233099   6.622   5.000   0.519  0.3203  0.4071 -0.4950
 3847TIP3    H133100   6.583   4.914   0.532  0.3801  0.4058 -0.3214
 3847TIP3    H233101   6.549   5.057   0.495  0.2002  0.4138 -0.1289
 3848TIP3   OH233102   1.125   0.527   0.309 -0.0971  0.1610 -0.0512
 3848TIP3    H133103   1.102   0.435   0.320  0.1644  0.1648  0.5688
 3848TIP3    H233104   1.050   0.565   0.262 -0.2164 -0.3585 -0.2846
 3849TIP3   OH233105   1.080   0.674   1.992 -0.0417 -0.4265  0.2226
 3849TIP3    H133106   1.161   0.642   2.031  0.8228  1.7319  0.3142
 3849TIP3    H233107   1.105   0.753   1.944 -1.8348 -0.5566 -1.0501
 3850TIP3   OH233108   4.170   2.957   7.672  0.2499  0.9076  0.1530
 3850TIP3    H133109   4.209   2.875   7.640 -0.1287  0.2519  1.2891
 3850TIP3    H233110   4.132   2.997   7.595  0.5530  0.0636 -0.4519
 3851TIP3   OH233111   0.453   6.627   0.237 -0.6528 -0.1522  0.3602
 3851TIP3    H133112   0.378   6.573   0.214 -0.9815 -0.1118  1.2881
 3851TIP3    H233113   0.482   6.665   0.154 -0.7270 -1.3414 -0.2324
 3852TIP3   OH233114   6.148   1.558   2.398  0.0026 -0.6920  0.3301
 3852TIP3    H133115   6.122   1.480   2.448  0.2021 -1.7624 -1.1548
 3852TIP3    H233116   6.243   1.559   2.403  0.0079 -0.6271  0.2174
 3853TIP3   OH233117   6.496   4.028   6.191  0.4696  0.0432  0.0345
 3853TIP3    H133118   6.561   3.970   6.151 -0.7666 -1.0290 -0.5066
 3853TIP3    H233119   6.498   4.006   6.284 -0.8573 -1.8437 -0.3238
 3854TIP3   OH233120   5.831   5.277   2.541 -0.1823  0.8840  0.4078
 3854TIP3    H133121   5.744   5.272   2.581  0.4453 -1.8911  1.6515
 3854TIP3    H233122   5.836   5.201   2.483  0.8341  1.9696 -0.9968
 3855TIP3   OH233123   4.089   2.987   1.505 -0.3915 -0.3543  0.8455
 3855TIP3    H133124   4.072   3.050   1.576  0.2350  2.7277 -1.5290
 3855TIP3    H233125   4.179   3.004   1.479 -0.8386 -0.8390 -1.1773
 3856TIP3   OH233126   2.059   4.303   8.709 -0.2384  0.0988 -0.3746
 3856TIP3    H133127   2.084   4.395   8.721  1.2440 -0.4110  0.7833
 3856TIP3    H233128   2.087   4.260   8.791 -1.7796 -1.2088 -0.4915
 3857TIP3   OH233129   3.281   0.581   7.857 -0.5039 -0.0519 -0.6239
 3857TIP3    H133130   3.196   0.596   7.899 -0.8586  0.0372 -1.3483
 3857TIP3    H233131   3.301   0.490   7.877 -0.3620  0.1616  0.2561
 3858TIP3   OH233132   4.354   1.458   6.891  0.2157  0.0085 -0.1984
 3858TIP3    H133133   4.295   1.435   6.819 -0.4042 -1.8735  0.8549
 3858TIP3    H233134   4.297   1.464   6.967  1.0376  0.7721  0.3765
 3859TIP3   OH233135   6.314   6.008   2.642 -0.1017  0.6016 -0.2576
 3859TIP3    H133136   6.362   6.044   2.567 -0.1096 -1.1742 -1.1667
 3859TIP3    H233137   6.222   6.025   2.623 -0.0549  0.8299 -0.2786
 3860TIP3   OH233138   6.145   5.703   0.363  0.2148 -0.3092 -0.0783
 3860TIP3    H133139   6.204   5.674   0.432 -0.2179  0.3202  0.5748
 3860TIP3    H233140   6.185   5.782   0.328 -0.5606  0.5196  0.8432
 3861TIP3   OH233141   4.434   5.566   8.323  0.1317 -0.3087  0.2926
 3861TIP3    H133142   4.428   5.555   8.418 -0.7104  2.3020  0.6248
 3861TIP3    H233143   4.353   5.528   8.289 -0.6902  0.8038  0.9149
 3862TIP3   OH233144   4.627   6.135   7.321  0.3576 -0.4887 -0.0735
 3862TIP3    H133145   4.670   6.061   7.280 -2.3901 -2.1526 -0.2336
 3862TIP3    H233146   4.611   6.197   7.250 -1.2355 -1.7871 -0.9144
 3863TIP3   OH233147   5.876   1.407   7.902 -0.3181 -0.0048  0.0182
 3863TIP3    H133148   5.953   1.376   7.854  0.6009 -1.1775  2.1307
 3863TIP3    H233149   5.872   1.501   7.882  0.8460 -0.1751 -1.1857
 3864TIP3   OH233150   2.948   4.379   1.327 -0.1058 -0.4261 -0.1794
 3864TIP3    H133151   2.923   4.309   1.266 -2.0252 -0.5204  0.6576
 3864TIP3    H233152   2.896   4.362   1.405  1.2026  0.5603  0.9585
 3865TIP3   OH233153   4.516   1.841   8.203 -0.3587 -0.4390  0.3675
 3865TIP3    H133154   4.429   1.845   8.165  0.1295 -0.6307 -0.7919
 3865TIP3    H233155   4.550   1.755   8.178  0.2675 -0.2599  0.5809
 3866TIP3   OH233156   3.631   2.494   1.334  0.0434  0.0464  0.2134
 3866TIP3    H133157   3.569   2.559   1.298  0.9309  0.1020 -1.2983
 3866TIP3    H233158   3.579   2.414   1.343 -0.1255 -0.1077 -1.7090
 3867TIP3   OH233159   5.709   1.574   7.378 -0.2125  0.1939 -0.3522
 3867TIP3    H133160   5.778   1.624   7.336 -0.2809 -0.4081 -1.2031
 3867TIP3    H233161   5.755   1.507   7.428 -0.1283  0.9527  0.6328
 3868TIP3   OH233162   1.752   1.902   0.470  0.3831 -0.3221  0.7185
 3868TIP3    H133163   1.683   1.862   0.524  0.9605 -1.6039  0.5433
 3868TIP3    H233164   1.733   1.872   0.381  0.3718  0.4542  0.4588
 3869TIP3   OH233165   6.120   5.171   1.409  0.5202 -0.3702 -0.3346
 3869TIP3    H133166   6.167   5.253   1.393  1.6508 -0.6342  1.3919
 3869TIP3    H233167   6.146   5.145   1.497 -3.3578 -0.2151  1.0747
 3870TIP3   OH233168   0.137   0.356   0.621  0.0854 -0.2650  0.3777
 3870TIP3    H133169   0.156   0.363   0.527  2.0545  0.5987  0.7772
 3870TIP3    H233170   0.182   0.431   0.660 -1.7515  0.1136  1.9100
 3871TIP3   OH233171   2.948   3.136   7.027 -1.1267  0.0618 -0.0179
 3871TIP3    H133172   2.974   3.168   7.113  0.0043 -0.7137 -0.0419
 3871TIP3    H233173   2.994   3.193   6.965 -0.0379 -0.8109 -0.0638
 3872TIP3   OH233174   0.287   0.697   1.634  0.5073 -0.0407  0.2181
 3872TIP3    H133175   0.296   0.615   1.681 -0.5777 -0.7531 -0.7430
 3872TIP3    H233176   0.221   0.679   1.566  1.1813  1.2447 -0.8405
 3873TIP3   OH233177   2.681   6.575   1.381 -0.0807  0.4757  0.5278
 3873TIP3    H133178   2.601   6.526   1.362  1.3550 -2.4511  1.4879
 3873TIP3    H233179   2.667   6.661   1.340 -4.5153  0.9013  2.4818
 3874TIP3   OH233180   3.809   1.201   7.194  0.3904 -0.1426 -0.1240
 3874TIP3    H133181   3.864   1.162   7.126 -1.2148 -1.4253 -0.7399
 3874TIP3    H233182   3.722   1.163   7.181 -0.7931  2.0887  0.5626
 3875TIP3   OH233183   1.351   5.520   8.474  0.1993  0.0544  0.2202
 3875TIP3    H133184   1.308   5.470   8.404  0.4250 -2.4271  1.7202
 3875TIP3    H233185   1.285   5.583   8.503 -0.7351 -0.5086 -0.6127
 3876TIP3   OH233186   3.194   2.950   7.615 -0.0583  0.3780 -0.2730
 3876TIP3    H133187   3.169   2.933   7.524  2.4785  0.2324 -1.0175
 3876TIP3    H233188   3.173   2.868   7.660  0.2496 -0.1906 -1.1174
 3877TIP3   OH233189   4.723   2.421   0.937  0.5814  0.1806  0.8914
 3877TIP3    H133190   4.738   2.486   1.006 -1.5153 -0.2978  1.8627
 3877TIP3    H233191   4.634   2.389   0.953  0.0653 -0.0480 -1.9705
 3878TIP3   OH233192   1.571   6.150   7.868  0.0401 -0.4470 -0.3845
 3878TIP3    H133193   1.638   6.197   7.818 -0.4246  0.7975  0.1013
 3878TIP3    H233194   1.519   6.220   7.909 -0.7592 -1.4027  0.2809
 3879TIP3   OH233195   5.765   4.072   7.542  0.7380 -0.8182 -0.2324
 3879TIP3    H133196   5.768   3.981   7.512  0.8249 -0.6729 -0.6773
 3879TIP3    H233197   5.672   4.094   7.541  0.8191 -0.4388 -1.5892
 3880TIP3   OH233198   0.124   2.627   1.484  0.3030  0.1215 -0.3018
 3880TIP3    H133199   0.098   2.546   1.440  0.4148  0.5573 -1.1865
 3880TIP3    H233200   0.046   2.652   1.535  0.2735 -0.5357 -0.0057
 3881TIP3   OH233201   6.077   3.569   8.185  0.1744  0.1090 -0.8049
 3881TIP3    H133202   6.028   3.487   8.193  1.7380 -0.7589  0.6021
 3881TIP3    H233203   6.089   3.581   8.090 -3.1519  0.6941 -1.2583
 3882TIP3   OH233204   3.289   0.620   8.331 -0.6552 -0.0988  0.0173
 3882TIP3    H133205   3.330   0.646   8.249 -0.1811 -0.2895  0.1915
 3882TIP3    H233206   3.214   0.566   8.304 -0.5147 -0.1442 -0.2904
 3883TIP3   OH233207   5.126   2.717   8.079 -0.4294 -0.0094 -0.0540
 3883TIP3    H133208   5.045   2.744   8.121 -0.1259  1.0664 -0.1102
 3883TIP3    H233209   5.105   2.635   8.035 -1.7034  0.6503 -0.7254
 3884TIP3   OH233210   0.037   0.463   1.001  0.3503  0.3021  0.0208
 3884TIP3    H133211  -0.010   0.480   0.920  2.6177  2.7793 -0.9281
 3884TIP3    H233212   0.128   0.450   0.974  0.8947 -0.4448  2.0423
 3885TIP3   OH233213   5.249   0.089   1.800 -1.0219 -0.1591  0.2441
 3885TIP3    H133214   5.253   0.109   1.893 -0.2043  1.5063 -0.1191
 3885TIP3    H233215   5.340   0.075   1.774 -1.1423  0.3470 -0.4847
 3886TIP3   OH233216   2.713   4.356   6.576 -0.4327  0.2830  0.0825
 3886TIP3    H133217   2.795   4.400   6.597 -1.8431  3.2552 -0.1144
 3886TIP3    H233218   2.733   4.263   6.585  2.8288  0.8873  0.3577
 3887TIP3   OH233219   3.610   1.787   1.747  0.2162 -0.1718 -0.2855
 3887TIP3    H133220   3.530   1.777   1.696  0.4732  0.2371 -0.7829
 3887TIP3    H233221   3.585   1.841   1.822  0.1207  0.3268 -0.6734
 3888TIP3   OH233222   0.594   1.370   8.596 -0.1005  0.2805  0.3587
 3888TIP3    H133223   0.547   1.429   8.537  0.9972  0.0278 -0.8058
 3888TIP3    H233224   0.661   1.426   8.637 -0.4073  0.3003  0.8349
 3889TIP3   OH233225   5.024   2.440   6.109  0.3524  0.2199 -0.3090
 3889TIP3    H133226   5.015   2.384   6.031 -1.2665 -0.2716  0.1865
 3889TIP3    H233227   5.100   2.405   6.154  1.1728  0.3546 -1.5317
 3890TIP3   OH233228   3.473   5.491   1.961 -0.1457 -0.1584  0.2365
 3890TIP3    H133229   3.531   5.535   2.024  0.5167 -1.1219  0.3250
 3890TIP3    H233230   3.533   5.448   1.900 -0.7827  1.0584 -1.2894
 3891TIP3   OH233231   1.754   3.511   2.375  0.0494 -0.1492 -0.5403
 3891TIP3    H133232   1.696   3.576   2.335 -1.2886 -1.0024 -0.0641
 3891TIP3    H233233   1.830   3.561   2.405 -1.9206  1.6553  1.8889
 3892TIP3   OH233234   5.952   0.178   1.042  0.1942 -0.3137  0.5218
 3892TIP3    H133235   5.952   0.272   1.026 -2.5831 -0.4256 -0.5808
 3892TIP3    H233236   5.864   0.158   1.073  0.5961 -2.6199  0.4142
 3893TIP3   OH233237   0.919   5.123   1.300 -0.2768  0.2272  0.2501
 3893TIP3    H133238   0.993   5.086   1.348  0.2168  0.2474 -0.4718
 3893TIP3    H233239   0.959   5.168   1.226 -1.0400 -0.4322 -0.5894
 3894TIP3   OH233240   6.082   4.061   7.855 -0.6567 -0.4584 -0.5602
 3894TIP3    H133241   6.033   4.141   7.834  0.0144  0.0364 -0.2885
 3894TIP3    H233242   6.023   4.012   7.912  0.3988  1.7037  2.6406
 3895TIP3   OH233243   1.497   4.673   0.714 -0.2918  0.3016  0.1338
 3895TIP3    H133244   1.480   4.705   0.803  0.2530  2.5171 -0.4996
 3895TIP3    H233245   1.418   4.695   0.665 -0.2393 -0.1176 -0.1407
 3896TIP3   OH233246   0.100   5.485   7.317 -0.3112 -0.3420  0.3507
 3896TIP3    H133247   0.163   5.424   7.279  0.5117  0.8084 -0.1784
 3896TIP3    H233248   0.152   5.562   7.340 -1.5703  0.7783 -0.4300
 3897TIP3   OH233249   4.895   2.269   7.776  0.2372  0.4831  0.4996
 3897TIP3    H133250   4.861   2.342   7.724  0.6316  0.1998 -0.1632
 3897TIP3    H233251   4.843   2.271   7.856 -0.0113  1.2593  0.3297
 3898TIP3   OH233252   4.897   2.123   8.149  0.0208  0.2311 -0.4496
 3898TIP3    H133253   4.967   2.152   8.091 -1.4093 -0.9051 -2.9176
 3898TIP3    H233254   4.821   2.113   8.091 -1.9627  0.5363  1.9349
 3899TIP3   OH233255   3.401   5.219   6.846 -0.2577 -0.3877 -0.5064
 3899TIP3    H133256   3.438   5.163   6.778 -0.8980 -1.2356 -0.1708
 3899TIP3    H233257   3.412   5.169   6.927  1.6879  1.1465  0.2619
 3900TIP3   OH233258   3.934   0.852   7.974 -0.1036  0.2792  0.0936
 3900TIP3    H133259   3.858   0.865   7.917 -0.5607  0.2019  0.6837
 3900TIP3    H233260   3.999   0.914   7.941  0.1846 -0.7770 -1.4752
 3901TIP3   OH233261   0.500   2.618   8.109  0.9087  0.3126  0.0787
 3901TIP3    H133262   0.594   2.600   8.112  1.4386  2.7831  0.4042
 3901TIP3    H233263   0.482   2.670   8.188 -0.1164  2.2704 -1.3327
 3902TIP3   OH233264   5.609   3.824   0.607 -0.3526 -0.2662  0.2892
 3902TIP3    H133265   5.647   3.904   0.570 -0.1059 -1.7193 -2.8638
 3902TIP3    H233266   5.515   3.832   0.590 -0.1339 -1.3449 -1.6122
 3903TIP3   OH233267   6.252   0.542   7.065 -0.1516  0.3433 -0.2234
 3903TIP3    H133268   6.186   0.539   7.134  0.6737  1.9606  0.6650
 3903TIP3    H233269   6.223   0.612   7.007  0.7754  1.0739  0.1808
 3904TIP3   OH233270   3.138   3.392   8.136 -0.1783 -0.4425 -0.2125
 3904TIP3    H133271   3.148   3.439   8.053  0.4209  0.0342  0.1209
 3904TIP3    H233272   3.046   3.363   8.136  0.2436 -1.9503 -1.8067
 3905TIP3   OH233273   0.199   1.007   7.552 -0.4261 -0.2514  0.5892
 3905TIP3    H133274   0.259   1.079   7.572  0.7960 -0.9054 -0.6122
 3905TIP3    H233275   0.229   0.934   7.606  1.3844 -1.2823 -1.6286
 3906TIP3   OH233276   5.209   2.123   0.295  1.0598  0.2274 -0.2592
 3906TIP3    H133277   5.168   2.087   0.374 -0.8206 -1.2783 -1.8201
 3906TIP3    H233278   5.231   2.213   0.319 -1.8344  0.6731  1.2374
 3907TIP3   OH233279   3.432   2.934   6.936  1.0316 -0.2304 -0.0443
 3907TIP3    H133280   3.401   3.003   6.877  1.1361 -0.7014 -0.6694
 3907TIP3    H233281   3.398   2.957   7.022  1.2203  0.6931 -0.2147
 3908TIP3   OH233282   0.005   6.381   8.698  0.4899  0.3914 -0.5555
 3908TIP3    H133283  -0.004   6.296   8.655  0.7672 -0.1863  0.5041
 3908TIP3    H233284   0.096   6.384   8.728  0.7590  1.4694 -1.3994
 3909TIP3   OH233285   3.805   3.106   0.797 -0.5122  0.4410 -0.3160
 3909TIP3    H133286   3.830   3.086   0.707  0.9526  1.4164 -0.1474
 3909TIP3    H233287   3.717   3.142   0.790 -0.8151 -0.4145 -1.2284
 3910TIP3   OH233288   6.083   3.148   6.603  0.2674 -0.6640  0.5067
 3910TIP3    H133289   6.056   3.235   6.630 -1.0049 -0.7907 -0.2538
 3910TIP3    H233290   6.102   3.102   6.685  0.6964  0.2296  0.9245
 3911TIP3   OH233291   0.237   0.104   1.608  0.5701 -0.2369  0.3964
 3911TIP3    H133292   0.160   0.079   1.555  1.0272 -1.1487  0.1377
 3911TIP3    H233293   0.222   0.061   1.692  1.2996 -1.3117 -0.0065
 3912TIP3   OH233294   3.094   6.678   1.051  0.1951  0.5594  0.0382
 3912TIP3    H133295   3.117   6.770   1.048 -0.4358  0.6975 -1.8161
 3912TIP3    H233296   3.021   6.673   1.113  1.3699  0.9919  1.5014
 3913TIP3   OH233297   4.496   4.329   6.948  0.3433  0.2468 -0.1596
 3913TIP3    H133298   4.434   4.300   7.015  0.0180 -1.1727 -1.0329
 3913TIP3    H233299   4.582   4.307   6.984  0.5599  3.5850  1.7259
 3914TIP3   OH233300   4.387   6.301   8.303 -0.3198 -0.1452  0.0199
 3914TIP3    H133301   4.354   6.247   8.374  1.0250  2.3542  2.7957
 3914TIP3    H233302   4.466   6.255   8.272  0.0396 -0.4840  1.3633
 3915TIP3   OH233303   3.050   0.659   7.995 -0.4703 -0.0706 -0.3291
 3915TIP3    H133304   3.068   0.690   8.084  1.9023 -3.4168  0.5610
 3915TIP3    H233305   2.978   0.596   8.006  1.1667 -2.0454 -0.2765
 3916TIP3   OH233306   1.810   1.606   0.580  0.4909  0.0432  0.6753
 3916TIP3    H133307   1.891   1.644   0.614 -0.4609  1.4821  1.3925
 3916TIP3    H233308   1.838   1.522   0.543  2.0950 -0.0985  2.0777
 3917TIP3   OH233309   3.696   2.114   7.709 -0.3021 -0.2321 -0.0987
 3917TIP3    H133310   3.643   2.183   7.671  0.2752  1.0918  1.3774
 3917TIP3    H233311   3.681   2.122   7.804  1.5950 -0.5509  0.2704
 3918TIP3   OH233312   3.026   2.888   7.936 -0.2246  0.2346 -0.4121
 3918TIP3    H133313   2.982   2.953   7.990 -1.0221  1.4772 -2.4858
 3918TIP3    H233314   2.956   2.830   7.906  0.1250 -0.0720 -0.6417
 3919TIP3   OH233315   3.601   6.414   7.738  1.0442 -0.0290  0.1030
 3919TIP3    H133316   3.603   6.487   7.677  0.5278  1.1344  1.4056
 3919TIP3    H233317   3.568   6.340   7.687  0.5580  0.9126 -0.9843
 3920TIP3   OH233318   5.961   1.537   6.768  0.4139  0.3979  0.2345
 3920TIP3    H133319   5.898   1.560   6.837 -0.6895  0.7550 -0.8501
 3920TIP3    H233320   6.019   1.613   6.762  1.9919 -0.5487  2.3028
 3921TIP3   OH233321   4.008   5.018   8.632 -0.2778 -0.1003 -0.4331
 3921TIP3    H133322   3.942   5.042   8.567 -1.7410  0.8724  1.3185
 3921TIP3    H233323   4.078   5.083   8.619 -0.0529 -0.5683 -1.6967
 3922TIP3   OH233324   6.483   2.034   6.902  0.6734 -0.3682  0.3909
 3922TIP3    H133325   6.569   2.073   6.919  1.4143 -1.8430  0.1962
 3922TIP3    H233326   6.434   2.048   6.983  0.2397  2.5038 -0.2567
 3923TIP3   OH233327   4.179   0.682   1.379  0.4522  0.0427  0.2791
 3923TIP3    H133328   4.233   0.746   1.332 -0.1200 -0.1734 -0.6843
 3923TIP3    H233329   4.223   0.672   1.463  0.0382  2.4454  0.8629
 3924TIP3   OH233330   3.921   6.384   7.482  0.6066  0.1718 -0.2904
 3924TIP3    H133331   3.920   6.365   7.388 -1.3507  0.9147 -0.4603
 3924TIP3    H233332   4.002   6.344   7.514  0.5289 -1.4585 -2.0076
 3925TIP3   OH233333   2.915   0.991   6.509  0.0614 -0.5278  0.5224
 3925TIP3    H133334   2.936   0.907   6.548  2.4071 -1.1981 -1.8518
 3925TIP3    H233335   2.942   1.056   6.574  1.7579 -1.5940  0.9257
 3926TIP3   OH233336   0.088   3.520   7.019  0.0917  0.0736 -0.0910
 3926TIP3    H133337   0.060   3.552   7.104  1.8591 -0.6790  0.8343
 3926TIP3    H233338   0.161   3.577   6.994 -0.9775  0.8689 -1.5791
 3927TIP3   OH233339   3.101   1.190   8.525  0.4264 -0.1200  0.1356
 3927TIP3    H133340   3.125   1.260   8.585 -0.1896  0.8385 -0.7049
 3927TIP3    H233341   3.078   1.116   8.581  0.2142  0.6327  1.0540
 3928TIP3   OH233342   2.235   4.132   1.749  0.4470 -0.3377  0.5115
 3928TIP3    H133343   2.245   4.076   1.826  0.6063 -0.9487  0.0535
 3928TIP3    H233344   2.193   4.076   1.684 -2.9919  1.1491  1.2483
 3929TIP3   OH233345   3.480   2.943   7.374  0.0541 -0.1390  0.7246
 3929TIP3    H133346   3.421   2.877   7.412  0.2794 -0.7775 -0.0218
 3929TIP3    H233347   3.437   2.970   7.293  0.0391  0.5389  0.9511
 3930TIP3   OH233348   1.170   2.939   1.281 -0.1998 -0.0230 -0.7069
 3930TIP3    H133349   1.152   2.855   1.239 -0.1315  0.0604 -0.9005
 3930TIP3    H233350   1.088   2.988   1.271 -0.0051  0.2027 -1.2271
 3931TIP3   OH233351   2.781   2.438   8.781  0.0305 -0.0931  0.2011
 3931TIP3    H133352   2.731   2.414   8.703 -0.3497  0.8420  0.1419
 3931TIP3    H233353   2.857   2.484   8.746  0.4574 -0.6838  0.3373
 3932TIP3   OH233354   0.149   1.929   0.345  0.7693  0.0820 -0.4834
 3932TIP3    H133355   0.195   1.892   0.421  0.5725 -0.4959 -0.6414
 3932TIP3    H233356   0.174   1.874   0.272 -0.6910 -0.6737 -0.4527
 3933TIP3   OH233357   0.155   6.678   8.632  0.3401  0.4119 -0.4059
 3933TIP3    H133358   0.156   6.697   8.538 -0.5954  0.2763 -0.4432
 3933TIP3    H233359   0.065   6.694   8.659 -0.3371 -3.0125 -0.2389
 3934TIP3   OH233360   4.587   0.267   8.264  0.7353  0.0869 -0.2648
 3934TIP3    H133361   4.495   0.249   8.248  0.9978 -1.6437  0.0228
 3934TIP3    H233362   4.587   0.349   8.315 -0.6987 -0.4964  0.7453
 3935TIP3   OH233363   1.325   4.464   6.489  0.0751  0.1254  0.3861
 3935TIP3    H133364   1.416   4.444   6.508  0.5733 -1.2742 -2.9388
 3935TIP3    H233365   1.329   4.541   6.432 -0.6538 -0.7974 -0.9657
 3936TIP3   OH233366   5.229   3.608   0.240  0.3888 -0.1753  0.1885
 3936TIP3    H133367   5.297   3.548   0.270  0.5581  0.4271  1.0401
 3936TIP3    H233368   5.147   3.565   0.265  0.3748 -1.3058 -1.5833
 3937TIP3   OH233369   6.689   0.454   0.741  0.5734 -0.0944  0.2961
 3937TIP3    H133370   6.779   0.426   0.723  0.3670  0.8291 -2.6071
 3937TIP3    H233371   6.691   0.549   0.731 -0.3164  0.2183  2.4989
 3938TIP3   OH233372   2.919   6.519   8.181  0.2378 -0.2625  0.6816
 3938TIP3    H133373   2.850   6.453   8.184 -0.4900  0.4635  0.3214
 3938TIP3    H233374   2.875   6.599   8.151  0.7049  0.8657  2.7692
 3939TIP3   OH233375   2.208   3.328   0.852  0.2792  0.3178  0.4139
 3939TIP3    H133376   2.294   3.310   0.812  0.0755  1.3218 -0.5392
 3939TIP3    H233377   2.166   3.388   0.791 -1.0614 -0.0515  0.9489
 3940TIP3   OH233378   0.148   4.912   6.312  0.0518  0.1446 -0.4771
 3940TIP3    H133379   0.096   4.944   6.239  1.5096  1.9907 -0.7859
 3940TIP3    H233380   0.086   4.905   6.384 -0.9249  0.7844 -1.2344
 3941TIP3   OH233381   0.600   4.403   0.720  0.0861  0.0724 -0.1643
 3941TIP3    H133382   0.537   4.331   0.722 -0.0952  0.2328 -0.0059
 3941TIP3    H233383   0.561   4.467   0.659  0.3543 -0.0619 -0.4768
 3942TIP3   OH233384   3.573   2.752   0.727  0.2314  0.1539 -0.1188
 3942TIP3    H133385   3.495   2.756   0.782  0.7106 -2.7039  0.9564
 3942TIP3    H233386   3.555   2.680   0.666  2.2714 -1.1140  0.6773
 3943TIP3   OH233387   6.737   0.682   8.611  0.3162  0.2204 -0.3703
 3943TIP3    H133388   6.794   0.635   8.551  2.3104  1.0718  0.7473
 3943TIP3    H233389   6.661   0.708   8.558  0.9461 -0.9735 -1.9010
 3944TIP3   OH233390   0.918   3.050   1.328  0.0531  0.0670 -0.5004
 3944TIP3    H133391   0.873   3.113   1.384  2.3004  1.4494 -0.1205
 3944TIP3    H233392   0.851   3.022   1.266 -1.7690  0.6515  1.0929
 3945TIP3   OH233393   1.333   4.604   0.307 -0.0686 -0.3750  0.0380
 3945TIP3    H133394   1.417   4.639   0.275  0.4383 -0.4822  1.2161
 3945TIP3    H233395   1.344   4.509   0.304  0.0768 -0.3859  0.7396
 3946TIP3   OH233396   1.688   2.853   8.293  0.3420  0.7413  0.3475
 3946TIP3    H133397   1.604   2.840   8.250  1.2767 -2.3071 -0.8328
 3946TIP3    H233398   1.747   2.882   8.224  0.7902  0.5022  0.6210
 3947TIP3   OH233399   0.247   0.652   0.094  0.3558 -0.1368  0.3444
 3947TIP3    H133400   0.248   0.625   0.186  2.0106  0.2768  0.4806
 3947TIP3    H233401   0.186   0.591   0.052 -0.3693 -0.3849  1.6906
 3948TIP3   OH233402   2.613   0.289   0.103 -0.6083  0.4191  0.4827
 3948TIP3    H133403   2.675   0.275   0.031 -0.6696  0.6586  0.3860
 3948TIP3    H233404   2.578   0.202   0.120 -1.0704  0.4669 -0.2009
 3949TIP3   OH233405   5.810   3.715   0.980  0.7225  0.0827  0.4248
 3949TIP3    H133406   5.882   3.694   0.921  1.1494 -0.8624  1.2588
 3949TIP3    H233407   5.732   3.711   0.925  1.4431  3.9769 -1.2100
 3950TIP3   OH233408   1.962   2.161   7.250  0.1972 -0.1848 -0.3448
 3950TIP3    H133409   1.972   2.253   7.272 -0.2241  0.0605 -1.1415
 3950TIP3    H233410   1.932   2.119   7.331 -0.4382  0.5290 -0.2023
 3951TIP3   OH233411   4.361   1.388   0.803 -0.2353 -0.3195  0.0907
 3951TIP3    H133412   4.396   1.344   0.726 -2.1839 -2.2109  0.1916
 3951TIP3    H233413   4.295   1.448   0.768 -0.6019 -0.6435  0.2148
 3952TIP3   OH233414   2.082   5.224   7.280 -0.6157 -0.0664 -0.1418
 3952TIP3    H133415   2.037   5.162   7.338 -0.3986 -0.8676 -0.8186
 3952TIP3    H233416   2.045   5.207   7.193  0.4065 -0.1696 -0.5661
 3953TIP3   OH233417   3.841   4.546   6.728  0.0989  0.2164  0.0512
 3953TIP3    H133418   3.844   4.642   6.726  0.2340  0.2161  0.3027
 3953TIP3    H233419   3.848   4.521   6.636  2.4931  0.3780  0.1297
 3954TIP3   OH233420   5.549   3.162   8.832  0.1371 -0.1230  0.4750
 3954TIP3    H133421   5.487   3.207   8.888  0.9920  1.1958  0.3950
 3954TIP3    H233422   5.625   3.220   8.827  0.6424 -0.8367 -0.9233
 3955TIP3   OH233423   5.828   1.867   1.156 -0.0337  0.3328  0.0164
 3955TIP3    H133424   5.871   1.913   1.084  0.8674 -0.1784  0.2140
 3955TIP3    H233425   5.872   1.899   1.235  1.0216 -1.2389  0.1272
 3956TIP3   OH233426   6.403   1.111   7.283 -0.7376 -0.0609  0.3711
 3956TIP3    H133427   6.317   1.099   7.244 -0.7714  2.4945 -0.5283
 3956TIP3    H233428   6.454   1.158   7.216  0.2710  1.4389  2.0881
 3957TIP3   OH233429   5.304   3.590   6.549  0.1275  0.0466 -0.2261
 3957TIP3    H133430   5.218   3.628   6.527  0.0165  0.7454  1.3152
 3957TIP3    H233431   5.367   3.644   6.502 -0.1883  0.5527 -0.0749
 3958TIP3   OH233432   5.519   1.655   2.523 -0.4498 -0.5299  0.3406
 3958TIP3    H133433   5.563   1.577   2.556  0.2285  0.0261  0.7776
 3958TIP3    H233434   5.485   1.698   2.602  0.5207  0.4118  0.2663
 3959TIP3   OH233435   6.322   3.737   1.837 -0.2451 -0.5105  0.2759
 3959TIP3    H133436   6.288   3.743   1.926 -0.3127  1.1062  0.1670
 3959TIP3    H233437   6.292   3.817   1.794  0.2357 -1.0054 -1.0484
 3960TIP3   OH233438   6.342   1.969   1.469 -0.0109  0.1545 -0.1423
 3960TIP3    H133439   6.303   2.035   1.526 -0.3748 -1.6891  1.9091
 3960TIP3    H233440   6.267   1.927   1.427  0.0462 -0.3469  0.2403
 3961TIP3   OH233441   3.783   2.703   1.500  0.4240  0.1522 -0.1044
 3961TIP3    H133442   3.828   2.752   1.569 -1.3020 -0.0181  1.2087
 3961TIP3    H233443   3.722   2.766   1.462  2.1639  0.6067 -2.3969
 3962TIP3   OH233444   1.388   0.459   8.791  0.2103 -0.1470 -0.2562
 3962TIP3    H133445   1.481   0.448   8.812  0.0512 -1.5475 -0.2172
 3962TIP3    H233446   1.386   0.530   8.727  1.2149  0.5408  0.4435
 3963TIP3   OH233447   5.881   2.033   0.942 -0.2040 -0.1833  0.3731
 3963TIP3    H133448   5.974   2.054   0.936 -0.1305 -0.7739 -1.2857
 3963TIP3    H233449   5.836   2.110   0.908 -0.2736 -0.2309  0.3557
 3964TIP3   OH233450   2.441   6.580   0.083  0.3655 -0.1647 -0.2391
 3964TIP3    H133451   2.400   6.619   0.006  0.1208  2.7432  1.2241
 3964TIP3    H233452   2.526   6.548   0.051 -0.0703  0.2004 -1.8756
 3965TIP3   OH233453   5.179   2.010   2.111 -0.3927  0.0578  0.0381
 3965TIP3    H133454   5.221   1.934   2.150 -1.7446 -1.2968 -1.0016
 3965TIP3    H233455   5.127   1.974   2.038  0.6573  2.2118 -1.9264
 3966TIP3   OH233456   2.046   1.844   8.381  0.3386  0.0308 -0.8726
 3966TIP3    H133457   2.103   1.865   8.455 -0.3261  0.6047 -0.5119
 3966TIP3    H233458   2.029   1.750   8.388 -1.1677  0.3846  0.7557
 3967TIP3   OH233459   5.743   3.262   6.655  0.6292  0.6449  0.0820
 3967TIP3    H133460   5.831   3.299   6.663  0.7001  0.2524  1.3639
 3967TIP3    H233461   5.689   3.334   6.622  1.2589  1.1419  0.1325
 3968TIP3   OH233462   0.823   5.902   1.324 -0.4311  0.3955  0.7180
 3968TIP3    H133463   0.728   5.906   1.313 -0.6662 -1.1947  1.8040
 3968TIP3    H233464   0.836   5.916   1.418  0.3622  0.1064  0.6521
 3969TIP3   OH233465   0.320   0.087   8.676 -0.0408 -0.1334 -0.6792
 3969TIP3    H133466   0.284  -0.002   8.676 -0.4913  0.0444 -1.3302
 3969TIP3    H233467   0.251   0.141   8.638 -0.0794  0.6366  0.4613
 3970TIP3   OH233468   0.919   1.827   6.709  0.2391 -0.3070  0.0798
 3970TIP3    H133469   1.005   1.830   6.668  0.5274  0.6614  0.7179
 3970TIP3    H233470   0.857   1.828   6.636  0.7499 -1.3731 -0.3958
 3971TIP3   OH233471   3.327   5.474   6.928  0.5880 -0.4880 -0.0867
 3971TIP3    H133472   3.365   5.506   6.846  4.1822  1.4046  2.0225
 3971TIP3    H233473   3.339   5.379   6.925  4.7146 -0.1283 -0.1646
 3972TIP3   OH233474   3.342   2.585   0.951  0.5262  0.2462 -0.6226
 3972TIP3    H133475   3.305   2.673   0.963  2.6586  1.0857  0.3134
 3972TIP3    H233476   3.296   2.550   0.874 -0.0818  2.3609 -1.3000
 3973TIP3   OH233477   4.418   4.902   0.358  0.0922 -0.3375 -0.1095
 3973TIP3    H133478   4.358   4.871   0.289  1.9457 -1.2358 -1.3972
 3973TIP3    H233479   4.489   4.945   0.310  1.7794 -1.5961  1.1729
 3974TIP3   OH233480   3.252   5.598   2.129 -0.2214  0.8560  0.4721
 3974TIP3    H133481   3.295   5.549   2.059 -1.4112  1.3014 -0.5935
 3974TIP3    H233482   3.296   5.683   2.129  0.5266  0.4835  1.0293
 3975TIP3   OH233483   3.821   2.464   8.503 -0.1696 -0.2014 -0.1140
 3975TIP3    H133484   3.832   2.554   8.531  0.9489 -0.1893 -0.5398
 3975TIP3    H233485   3.833   2.466   8.408 -0.2861 -0.7764 -0.1487
 3976TIP3   OH233486   3.302   3.843   7.118 -0.1200  0.0552  0.2374
 3976TIP3    H133487   3.217   3.799   7.126 -1.1740  1.9451  0.0591
 3976TIP3    H233488   3.354   3.808   7.191 -1.8507  0.5013  1.7611
 3977TIP3   OH233489   0.616   1.164   6.603 -0.1323  0.1687  0.5372
 3977TIP3    H133490   0.685   1.203   6.656 -0.4684  0.3916  0.8171
 3977TIP3    H233491   0.637   1.188   6.513  0.1542  0.2335  0.6232
 3978TIP3   OH233492   4.176   0.648   8.774  0.6179  0.0009 -0.1162
 3978TIP3    H133493   4.268   0.671   8.757  1.2441  0.0140  2.7661
 3978TIP3    H233494   4.168   0.559   8.741  1.0743  0.6548 -2.1466
 3979TIP3   OH233495   6.033   1.744   0.684 -0.4446 -0.0312  0.3164
 3979TIP3    H133496   6.020   1.659   0.726 -0.3020 -0.4818 -0.5155
 3979TIP3    H233497   5.947   1.766   0.647  0.1576 -1.2350 -1.9802
 3980TIP3   OH233498   5.426   0.616   7.859  0.0107 -0.3871 -0.6668
 3980TIP3    H133499   5.394   0.577   7.940 -0.1441 -1.2900 -1.1557
 3980TIP3    H233500   5.459   0.702   7.886 -0.5972 -0.4264  0.2446
 3981TIP3   OH233501   4.890   5.100   0.612 -0.6561 -0.0547 -0.3617
 3981TIP3    H133502   4.824   5.031   0.600 -0.4704 -0.3123  0.0658
 3981TIP3    H233503   4.903   5.105   0.707 -0.5525  0.4628 -0.4020
 3982TIP3   OH233504   5.122   5.670   0.622  0.5490  0.1670  0.2468
 3982TIP3    H133505   5.083   5.651   0.537 -0.9096 -1.4209  1.1937
 3982TIP3    H233506   5.177   5.593   0.641  2.2650  1.2724  0.0325
 3983TIP3   OH233507   5.604   0.146   8.699  0.0930  0.5985 -0.2009
 3983TIP3    H133508   5.560   0.200   8.765 -0.1704  0.0769  0.0632
 3983TIP3    H233509   5.545   0.147   8.624 -0.4956 -0.2677  0.2254
 3984TIP3   OH233510   4.160   0.549   0.211 -0.1088  0.3140 -0.4082
 3984TIP3    H133511   4.182   0.583   0.124 -0.7840 -0.0188 -0.7179
 3984TIP3    H233512   4.245   0.534   0.253  0.2820 -0.8014 -1.5138
 3985TIP3   OH233513   3.374   1.628   7.606 -0.0118  0.6256  0.1443
 3985TIP3    H133514   3.296   1.576   7.586 -0.7105  1.1823  1.3380
 3985TIP3    H233515   3.393   1.609   7.697  1.9188 -0.3184 -0.3990
 3986TIP3   OH233516   6.584   4.673   0.203 -0.3774  0.2631 -0.0821
 3986TIP3    H133517   6.554   4.745   0.147 -0.2680  0.7065  0.4213
 3986TIP3    H233518   6.647   4.625   0.149 -0.6135  0.4140 -0.4974
 3987TIP3   OH233519   5.138   5.351   7.164 -0.0691  0.2167  0.4414
 3987TIP3    H133520   5.160   5.403   7.087 -0.7486 -0.4861 -0.2399
 3987TIP3    H233521   5.050   5.317   7.146  1.0902 -2.8008 -0.0719
 3988TIP3   OH233522   0.800   0.610   0.950  0.3053  0.1906  0.2348
 3988TIP3    H133523   0.842   0.627   0.866  0.5339  1.2458  0.5496
 3988TIP3    H233524   0.867   0.564   1.001  0.3501  0.0275  0.0340
 3989TIP3   OH233525   1.522   3.495   1.120  0.4385  0.1476 -0.2280
 3989TIP3    H133526   1.472   3.418   1.148 -1.5125  1.2752 -0.4177
 3989TIP3    H233527   1.545   3.476   1.029  1.8196 -1.0707  0.3289
 3990TIP3   OH233528   2.492   1.556   0.930 -0.2156 -0.1755 -0.5695
 3990TIP3    H133529   2.458   1.561   1.019 -1.2329 -0.3196 -0.9363
 3990TIP3    H233530   2.511   1.463   0.917 -1.6749 -0.4415 -1.0532
 3991TIP3   OH233531   3.482   4.139   2.045  0.3282 -0.0651 -0.2609
 3991TIP3    H133532   3.458   4.230   2.064 -0.2222 -0.4610  1.0523
 3991TIP3    H233533   3.527   4.143   1.961  1.5550  1.6282  0.4256
 3992TIP3   OH233534   4.863   4.944   2.345 -0.2385  0.1135  0.0390
 3992TIP3    H133535   4.859   4.988   2.430 -1.8739  0.8608 -0.3817
 3992TIP3    H233536   4.949   4.902   2.344  0.3038  1.0872  1.5580
 3993TIP3   OH233537   3.822   2.883   0.358  0.2862 -0.0594 -0.1640
 3993TIP3    H133538   3.788   2.884   0.447 -1.1271  0.2176 -0.6757
 3993TIP3    H233539   3.744   2.879   0.303  1.1551 -1.0392 -1.3790
 3994TIP3   OH233540   2.359   2.156   7.861  0.5281 -0.4329  0.7558
 3994TIP3    H133541   2.360   2.117   7.948  2.6727 -1.2405  0.4337
 3994TIP3    H233542   2.348   2.249   7.876  2.0232 -0.4252  1.9851
 3995TIP3   OH233543   4.302   6.625   8.814  0.3781  0.2786 -0.4963
 3995TIP3    H133544   4.249   6.641   8.735  0.9921 -0.3444 -1.0448
 3995TIP3    H233545   4.312   6.530   8.817 -0.2206  0.2417  0.7320
 3996TIP3   OH233546   2.378   1.249   6.830  0.3446  0.5114 -0.1551
 3996TIP3    H133547   2.371   1.181   6.762  0.9764 -1.0542  1.2762
 3996TIP3    H233548   2.444   1.215   6.891 -1.0046  1.3249  1.8503
 3997TIP3   OH233549   3.028   6.469   0.283 -0.0710  0.0422  0.1751
 3997TIP3    H133550   3.063   6.551   0.250  0.5083 -0.3758 -0.2581
 3997TIP3    H233551   2.989   6.491   0.368 -1.2885  1.0654 -0.6105
 3998TIP3   OH233552   3.882   0.776   1.919  0.2440 -0.3281 -1.0015
 3998TIP3    H133553   3.830   0.700   1.944 -0.2550  0.4767  0.5080
 3998TIP3    H233554   3.817   0.840   1.888  0.4151  0.3243 -0.0372
 3999TIP3   OH233555   2.910   6.396   1.457  0.0256 -0.3411 -0.1045
 3999TIP3    H133556   2.898   6.406   1.551 -0.4707  1.2741 -0.3119
 3999TIP3    H233557   2.824   6.415   1.419  0.4336 -0.0988 -0.9354
 4000TIP3   OH233558   3.078   4.253   8.182 -0.1397 -0.2438  0.0367
 4000TIP3    H133559   3.039   4.282   8.264  1.3113  0.7935  0.3989
 4000TIP3    H233560   3.172   4.262   8.196  0.1198  1.4316 -2.2529
 4001TIP3   OH233561   4.002   6.106   2.290  0.2783 -0.6738  0.3757
 4001TIP3    H133562   3.950   6.156   2.227  0.4452  0.1105  0.8491
 4001TIP3    H233563   4.092   6.136   2.275  0.4132 -1.0334  0.4763
 4002TIP3   OH233564   6.277   2.005   1.088  0.2319  0.1741 -0.0245
 4002TIP3    H133565   6.366   1.973   1.083  0.2064  0.0891  0.0701
 4002TIP3    H233566   6.226   1.943   1.035 -0.3114 -1.6771  2.4987
 4003TIP3   OH233567   4.389   2.528   8.057 -0.0873 -0.3659 -0.1760
 4003TIP3    H133568   4.395   2.492   7.969 -0.8399 -1.8603  0.3293
 4003TIP3    H233569   4.338   2.462   8.106 -1.9322  1.5984  0.7478
 4004TIP3   OH233570   0.683   1.645   6.879 -0.4340  0.3529 -0.2989
 4004TIP3    H133571   0.711   1.624   6.790  0.9175  0.4265  0.0931
 4004TIP3    H233572   0.664   1.739   6.877  2.3627  1.0067  0.1392
 4005TIP3   OH233573   2.492   6.027   7.817 -0.6245 -0.3640 -0.0825
 4005TIP3    H133574   2.562   6.093   7.813 -0.5960 -0.2894  1.1133
 4005TIP3    H233575   2.454   6.027   7.730 -0.7545  1.3863 -0.0628
 4006TIP3   OH233576   1.405   2.753   1.054  0.1478 -0.1329  0.0814
 4006TIP3    H133577   1.325   2.704   1.036 -0.2691  0.6114 -0.1551
 4006TIP3    H233578   1.472   2.710   1.001 -0.0794 -0.8121  0.3419
 4007TIP3   OH233579   5.849   3.994   0.726  0.5085  0.2100 -0.5664
 4007TIP3    H133580   5.929   4.032   0.690 -0.5653  1.1221 -2.0839
 4007TIP3    H233581   5.781   4.017   0.664 -0.8791 -0.9511  0.4493
 4008TIP3   OH233582   5.065   4.325   8.774  0.0886  0.2115 -0.0844
 4008TIP3    H133583   5.069   4.411   8.730  0.8971  1.0677  1.5701
 4008TIP3    H233584   5.020   4.343   8.856  0.0441 -1.0261  0.1774
 4009TIP3   OH233585   5.762   5.399   8.723  0.0353 -0.4674 -0.2378
 4009TIP3    H133586   5.820   5.415   8.798  1.3094 -1.3987 -0.9826
 4009TIP3    H233587   5.758   5.483   8.678  0.1829 -0.1873  0.2674
 4010TIP3   OH233588   1.421   3.155   6.902  0.3604  0.4704  0.5092
 4010TIP3    H133589   1.325   3.161   6.907  0.3222  0.9763 -0.6069
 4010TIP3    H233590   1.442   3.076   6.951 -0.6907  0.0088  0.2519
 4011TIP3   OH233591   5.600   2.739   8.087  0.0306  0.1876 -0.0880
 4011TIP3    H133592   5.519   2.708   8.129 -1.0994  2.7411 -0.1636
 4011TIP3    H233593   5.577   2.827   8.055  2.6285  0.6627 -0.8187
 4012TIP3   OH233594   0.546   2.901   6.303  0.1862 -0.2392  0.1892
 4012TIP3    H133595   0.627   2.850   6.302  0.1474 -0.3026  0.2748
 4012TIP3    H233596   0.516   2.900   6.212  0.2935 -0.1965  0.1538
 4013TIP3   OH233597   2.315   2.345   1.230  0.1377 -0.2262 -0.1346
 4013TIP3    H133598   2.249   2.403   1.192  1.2893  0.8169 -0.6042
 4013TIP3    H233599   2.362   2.400   1.293  1.9107 -0.3038 -1.3038
 4014TIP3   OH233600   0.531   3.553   0.768  0.5576 -0.3805  0.0995
 4014TIP3    H133601   0.490   3.498   0.834  1.8548 -2.0324 -0.4093
 4014TIP3    H233602   0.610   3.505   0.742  1.8580  1.8101 -0.2542
 4015TIP3   OH233603   0.165   2.012   1.404 -0.0172 -0.3770 -0.6700
 4015TIP3    H133604   0.118   1.983   1.482  2.2783  1.4703  1.6012
 4015TIP3    H233605   0.111   2.082   1.368  0.4283  1.1653  1.4146
 4016TIP3   OH233606   2.148   5.906   6.926  0.5075 -0.1804 -0.0171
 4016TIP3    H133607   2.180   5.900   7.016  2.1217  0.0840 -0.5412
 4016TIP3    H233608   2.190   5.985   6.891  0.4325 -0.6445 -1.1987
 4017TIP3   OH233609   3.627   5.360   1.162  0.2420 -0.4521 -0.0842
 4017TIP3    H133610   3.641   5.416   1.238 -2.9893 -0.4972  0.6521
 4017TIP3    H233611   3.549   5.395   1.119  1.0070 -1.4315 -2.4697
 4018TIP3   OH233612   0.334   2.929   8.023 -0.3006  0.5109 -0.2516
 4018TIP3    H133613   0.295   2.967   7.944  0.9983 -0.0719 -1.2046
 4018TIP3    H233614   0.292   2.843   8.031  1.2286 -0.4146 -1.6844
 4019TIP3   OH233615   0.568   4.294   8.634 -0.0802  0.3994  0.0085
 4019TIP3    H133616   0.586   4.367   8.693  1.1206 -0.8798  1.3118
 4019TIP3    H233617   0.488   4.255   8.669  0.4648 -0.1769  0.6393
 4020TIP3   OH233618   0.867   6.524   8.027  0.0353  0.2968  0.1774
 4020TIP3    H133619   0.792   6.574   8.058 -0.3035 -0.6773  0.9941
 4020TIP3    H233620   0.861   6.527   7.932 -0.9131  0.4129  0.2393
 4021TIP3   OH233621   6.723   5.605   7.485 -0.9400  0.0147 -0.4244
 4021TIP3    H133622   6.755   5.530   7.435 -1.7322 -0.6708  0.0608
 4021TIP3    H233623   6.736   5.680   7.427 -0.0554 -0.4756 -0.8851
 4022TIP3   OH233624   1.008   1.161   8.033  0.3097  0.4930 -0.6623
 4022TIP3    H133625   1.095   1.193   8.010  0.4748 -0.3501 -1.2716
 4022TIP3    H233626   1.021   1.115   8.116  0.4698  0.3099 -0.7854
 4023TIP3   OH233627   6.554   2.194   7.908  0.7752  0.0749 -0.5645
 4023TIP3    H133628   6.554   2.114   7.960 -1.1006  1.0074  0.9799
 4023TIP3    H233629   6.463   2.224   7.909  1.3720  2.1030 -1.2945
 4024TIP3   OH233630   4.725   3.101   8.681  0.1607  0.5754 -0.2280
 4024TIP3    H133631   4.675   3.172   8.641 -1.0554  0.2640  0.6737
 4024TIP3    H233632   4.730   3.033   8.614 -2.3202 -0.1684  0.2611
 4025TIP3   OH233633   1.168   4.612   6.139 -0.2580 -0.0329 -0.4502
 4025TIP3    H133634   1.137   4.701   6.122  0.2545  0.2140 -0.1317
 4025TIP3    H233635   1.231   4.622   6.211 -0.4988 -0.7057 -0.1348
 4026TIP3   OH233636   2.777   0.922   1.278 -0.4974 -0.6368  0.3968
 4026TIP3    H133637   2.870   0.898   1.287 -0.2474 -0.2241 -0.9042
 4026TIP3    H233638   2.735   0.882   1.354  0.4587 -2.3484  0.0742
 4027TIP3   OH233639   5.163   4.137   8.472 -0.0948  0.2570  0.1554
 4027TIP3    H133640   5.068   4.142   8.462 -0.2668 -0.8913  1.0624
 4027TIP3    H233641   5.188   4.059   8.422  0.3124  0.2614  0.3505
 4028TIP3   OH233642   2.433   6.211   0.596 -0.0289  0.0063  0.3764
 4028TIP3    H133643   2.385   6.290   0.617 -0.3858 -0.2784  0.6349
 4028TIP3    H233644   2.525   6.238   0.598 -0.1720  0.5509 -0.1353
 4029TIP3   OH233645   3.671   0.558   0.226  0.2300 -0.1995  0.3144
 4029TIP3    H133646   3.583   0.592   0.212  0.4301  0.2824  0.2063
 4029TIP3    H233647   3.660   0.488   0.291 -0.7355 -2.5960 -2.2122
 4030TIP3   OH233648   4.447   3.174   7.188  0.1433 -0.6070 -0.0893
 4030TIP3    H133649   4.466   3.248   7.131  1.1085 -1.4091 -0.8441
 4030TIP3    H233650   4.359   3.190   7.220  0.3347  0.8577 -0.2402
 4031TIP3   OH233651   1.528   6.196   7.184  0.2189  0.1288  0.4169
 4031TIP3    H133652   1.491   6.160   7.265  0.4974 -0.3349  0.3375
 4031TIP3    H233653   1.618   6.164   7.182 -0.9695 -3.8475 -2.3891
 4032TIP3   OH233654   6.500   4.331   7.440 -0.3293 -0.4383  0.1927
 4032TIP3    H133655   6.547   4.317   7.358  0.1038 -1.0648  0.5415
 4032TIP3    H233656   6.499   4.426   7.452 -0.3819 -0.3450 -0.5238
 4033TIP3   OH233657   3.402   3.119   0.640  0.5107  0.1092 -0.0366
 4033TIP3    H133658   3.321   3.134   0.688  0.9867 -1.4978  1.3639
 4033TIP3    H233659   3.380   3.138   0.549 -1.3326  0.0609  0.3691
 4034TIP3   OH233660   5.607   3.763   7.789 -0.4516  0.6841  0.0008
 4034TIP3    H133661   5.695   3.734   7.767  0.1184  2.6435 -0.4692
 4034TIP3    H233662   5.597   3.741   7.881  1.0027  1.5541  0.3897
 4035TIP3   OH233663   4.565   6.691   1.519 -0.2721  0.3116  0.5202
 4035TIP3    H133664   4.634   6.642   1.565 -0.7842  0.8580  1.8897
 4035TIP3    H233665   4.611   6.735   1.447  0.4763 -0.8341  0.2674
 4036TIP3   OH233666   2.557   3.695   0.583 -0.2280  0.7143  0.0776
 4036TIP3    H133667   2.594   3.611   0.607 -1.5968  0.1912  0.4540
 4036TIP3    H233668   2.569   3.750   0.660 -0.1172  0.5917  0.1481
 4037TIP3   OH233669   1.613   2.998   6.411 -0.0314 -0.1474  0.2364
 4037TIP3    H133670   1.593   3.017   6.502  0.0450  0.6899  0.0864
 4037TIP3    H233671   1.659   2.914   6.413 -0.8448 -0.5896  0.8706
 4038TIP3   OH233672   1.208   6.100   6.599 -0.3373  0.4158 -0.0984
 4038TIP3    H133673   1.158   6.063   6.671  1.5747 -2.3917 -0.0650
 4038TIP3    H233674   1.275   6.154   6.641 -0.7293  0.7895  0.0586
 4039TIP3   OH233675   4.432   1.475   1.037 -0.3523 -0.3758 -0.6772
 4039TIP3    H133676   4.402   1.565   1.026 -0.4257 -0.3432 -0.2070
 4039TIP3    H233677   4.392   1.427   0.965  0.0991  0.0710 -1.2334
 4040TIP3   OH233678   1.560   4.668   8.091 -0.3451  0.2874 -0.4074
 4040TIP3    H133679   1.501   4.689   8.163 -1.1018 -0.8226 -0.6794
 4040TIP3    H233680   1.632   4.620   8.133 -0.1625  0.7085 -0.2292
 4041TIP3   OH233681   2.016   2.509   8.352 -0.2300 -0.0247 -0.3539
 4041TIP3    H133682   2.039   2.580   8.411 -1.3245  0.2440 -0.2345
 4041TIP3    H233683   2.090   2.504   8.290 -0.1830  1.2578 -0.4213
 4042TIP3   OH233684   3.932   6.627   0.657  0.2282 -0.3815 -0.5826
 4042TIP3    H133685   3.999   6.696   0.661 -1.0494  0.8407  1.4001
 4042TIP3    H233686   3.913   6.618   0.563 -0.2121  2.6553 -0.8737
 4043TIP3   OH233687   6.245   0.180   0.664 -0.1772  0.6878  0.0246
 4043TIP3    H133688   6.233   0.240   0.590 -0.6534  0.3664 -0.1672
 4043TIP3    H233689   6.200   0.100   0.636 -0.5274  0.6318  0.7505
 4044TIP3   OH233690   2.903   0.921   2.239 -0.1240 -0.4514  0.0101
 4044TIP3    H133691   2.977   0.965   2.196  0.0071  0.4675  1.1376
 4044TIP3    H233692   2.895   0.837   2.193 -0.4763  0.7689 -2.3223
 4045TIP3   OH233693   6.418   5.453   8.008 -0.1984 -0.2599 -0.0401
 4045TIP3    H133694   6.353   5.390   7.979 -0.7884  0.7389 -0.9598
 4045TIP3    H233695   6.500   5.423   7.968 -0.4643 -0.4664 -0.4332
 4046TIP3   OH233696   1.153   1.895   1.518 -0.1909 -0.6581  0.1819
 4046TIP3    H133697   1.112   1.956   1.580 -1.4468 -0.0749 -1.1607
 4046TIP3    H233698   1.080   1.846   1.481  0.5392 -1.0544 -0.7705
 4047TIP3   OH233699   2.355   1.724   8.439  0.5440 -0.1885  0.2471
 4047TIP3    H133700   2.318   1.720   8.351  1.7690  1.0411 -0.3810
 4047TIP3    H233701   2.435   1.671   8.433  1.6467  1.4342  0.0285
 4048TIP3   OH233702   4.314   5.511   6.932 -0.1184  0.0145 -0.4320
 4048TIP3    H133703   4.381   5.459   6.978  0.2185  1.8594  1.3415
 4048TIP3    H233704   4.280   5.453   6.865  0.2680 -2.4745  1.3756
 4049TIP3   OH233705   5.095   2.313   0.831  0.5864 -0.4974  0.1190
 4049TIP3    H133706   5.048   2.380   0.781  1.2571  2.1863  2.8301
 4049TIP3    H233707   5.034   2.289   0.901  1.2246 -1.0883  0.4812
 4050TIP3   OH233708   6.273   4.554   1.440  0.2603  0.2957  0.2244
 4050TIP3    H133709   6.339   4.589   1.380 -0.7865  2.1487  0.0764
 4050TIP3    H233710   6.216   4.501   1.385  1.2302 -0.8015  0.2415
 4051TIP3   OH233711   1.486   3.889   2.448 -0.1107 -0.2308  0.2752
 4051TIP3    H133712   1.418   3.953   2.467 -1.9663 -1.4917 -1.6821
 4051TIP3    H233713   1.550   3.937   2.395  0.5656  0.9471  2.0682
 4052TIP3   OH233714   3.633   4.123   0.285 -0.0050  0.1464  0.4662
 4052TIP3    H133715   3.596   4.212   0.287  2.3369  1.2984 -1.9776
 4052TIP3    H233716   3.565   4.071   0.242 -1.1752  0.8248  1.3961
 4053TIP3   OH233717   1.951   5.897   7.881  0.4256 -0.4892  0.1657
 4053TIP3    H133718   1.896   5.869   7.955  0.7345 -1.5372  0.0131
 4053TIP3    H233719   1.991   5.979   7.911  0.0729 -0.5841  0.9256
 4054TIP3   OH233720   0.698   4.929   8.157  0.3045 -0.0523  0.2779
 4054TIP3    H133721   0.674   4.838   8.174 -3.5318  0.6239 -0.5030
 4054TIP3    H233722   0.680   4.941   8.063 -0.2073  1.6795  0.5549
 4055TIP3   OH233723   4.439   3.521   0.289 -0.1756  0.8622 -0.5233
 4055TIP3    H133724   4.404   3.545   0.203 -1.6460 -1.4015 -0.6526
 4055TIP3    H233725   4.427   3.599   0.343  0.8355  2.3570 -2.3372
 4056TIP3   OH233726   2.906   2.348   7.898 -0.3716 -0.0111  0.0509
 4056TIP3    H133727   2.854   2.365   7.977  1.3157 -0.5334  1.3556
 4056TIP3    H233728   2.844   2.316   7.834 -1.6650 -0.6077  1.5353
 4057TIP3   OH233729   3.338   6.230   8.013 -0.5170 -0.3547 -0.3167
 4057TIP3    H133730   3.253   6.274   8.001 -0.4667 -0.2254 -0.2039
 4057TIP3    H233731   3.319   6.158   8.074 -0.2345  0.6549  1.0188
 4058TIP3   OH233732   0.040   2.095   7.333 -0.2906 -0.2343 -0.1313
 4058TIP3    H133733   0.023   2.118   7.424 -1.1282 -0.9820 -0.0897
 4058TIP3    H233734   0.098   2.164   7.301 -2.4760  1.8372  0.0816
 4059TIP3   OH233735   3.110   3.714   0.784  0.6117 -0.1112  0.4122
 4059TIP3    H133736   3.088   3.746   0.871  1.3155  0.8203  0.2658
 4059TIP3    H233737   3.184   3.768   0.756  1.4225 -1.4446 -0.1317
 4060TIP3   OH233738   1.722   3.059   8.708 -0.4024 -0.5737 -0.1135
 4060TIP3    H133739   1.807   3.025   8.680 -1.7423 -4.2896 -0.2051
 4060TIP3    H233740   1.729   3.154   8.697  2.7068 -0.9594 -2.9563
 4061TIP3   OH233741   5.525   0.901   1.234  0.0788 -0.3717  0.1195
 4061TIP3    H133742   5.494   0.900   1.325  0.9734 -0.0678  0.4372
 4061TIP3    H233743   5.595   0.837   1.233 -0.1978 -0.6692 -0.4663
 4062TIP3   OH233744   2.203   1.418   8.470 -0.3715 -0.0021 -0.3785
 4062TIP3    H133745   2.143   1.365   8.522  0.2735  1.5606  2.1133
 4062TIP3    H233746   2.147   1.471   8.413 -1.4353  1.3270  1.8012
 4063TIP3   OH233747   4.714   6.737   7.181  0.1403  0.0644 -0.3029
 4063TIP3    H133748   4.648   6.698   7.124 -0.6025 -0.7414  1.0412
 4063TIP3    H233749   4.689   6.829   7.188  0.1794  0.1468 -1.1713
 4064TIP3   OH233750   6.186   0.476   0.428 -0.2128 -0.1146  0.9486
 4064TIP3    H133751   6.108   0.473   0.483  0.3891  0.6891  1.8737
 4064TIP3    H233752   6.236   0.551   0.460  0.1958  0.3464 -0.6513
 4065TIP3   OH233753   2.021   3.983   0.843  0.3057  0.1960 -0.0879
 4065TIP3    H133754   2.115   3.989   0.860  0.8465 -1.7938 -1.8948
 4065TIP3    H233755   1.998   3.893   0.867 -1.3042  0.8365  0.9225
 4066TIP3   OH233756   6.147   2.143   0.894  0.4790  0.0173 -0.3485
 4066TIP3    H133757   6.176   2.104   0.812  1.7076 -0.6598  0.3770
 4066TIP3    H233758   6.196   2.096   0.962 -0.6613  0.4187  0.7912
 4067TIP3   OH233759   3.747   5.663   6.381  0.2736 -0.5617  0.1249
 4067TIP3    H133760   3.752   5.627   6.292  0.3765 -0.0471 -0.0761
 4067TIP3    H233761   3.825   5.716   6.390 -0.0200 -0.1622  0.3252
 4068TIP3   OH233762   2.293   0.104   0.592  0.1087  0.4878 -0.3581
 4068TIP3    H133763   2.353   0.031   0.602 -0.4510  0.1269  0.5229
 4068TIP3    H233764   2.269   0.128   0.682 -1.2815  0.4141 -0.6761
 4069TIP3   OH233765   2.652   0.315   0.399 -0.2765  0.0529  0.1370
 4069TIP3    H133766   2.655   0.284   0.309  0.3740 -0.1217  0.2190
 4069TIP3    H233767   2.579   0.377   0.400  1.2532  1.9606 -1.1150
 4070TIP3   OH233768   6.697   2.899   7.939 -0.2558 -0.5162  0.3978
 4070TIP3    H133769   6.754   2.938   8.006  0.0672 -0.4211  0.0678
 4070TIP3    H233770   6.610   2.933   7.959 -0.1521 -0.4413  0.7374
 4071TIP3   OH233771   4.162   4.301   0.490 -0.2531 -0.4041 -0.3103
 4071TIP3    H133772   4.165   4.385   0.535 -0.6752 -1.0814  1.0156
 4071TIP3    H233773   4.094   4.311   0.424 -0.5678  0.1669  0.0975
 4072TIP3   OH233774   2.708   4.999   8.429 -0.1954  0.4669 -0.8059
 4072TIP3    H133775   2.698   5.093   8.417  0.1276  0.4989 -0.8291
 4072TIP3    H233776   2.746   4.990   8.517  0.1038  0.3770 -0.9427
 4073TIP3   OH233777   4.998   2.412   2.026 -0.2790  0.0174  0.1254
 4073TIP3    H133778   4.953   2.429   1.943  1.2857  0.5381 -0.6609
 4073TIP3    H233779   4.967   2.481   2.085 -0.2318  0.5878 -0.5110
 4074TIP3   OH233780   5.703   2.691   8.771 -0.0756 -0.2421 -0.5053
 4074TIP3    H133781   5.644   2.655   8.705 -1.8047 -0.5358  1.1129
 4074TIP3    H233782   5.790   2.677   8.735 -0.7302 -3.9355 -1.0806
 4075TIP3   OH233783   6.590   5.314   1.098 -0.3414  0.3039 -0.1086
 4075TIP3    H133784   6.631   5.313   1.011  1.1970  0.4981  0.5694
 4075TIP3    H233785   6.619   5.396   1.137 -0.1697 -0.2419  0.9577
 4076TIP3   OH233786   6.469   1.013   7.775  0.2598  0.0949  0.4828
 4076TIP3    H133787   6.488   0.981   7.686 -3.4003 -2.4192  0.3851
 4076TIP3    H233788   6.535   0.969   7.830 -0.1579 -1.9658 -0.5497
 4077TIP3   OH233789   4.829   3.942   8.365 -0.3823 -0.5971 -0.0236
 4077TIP3    H133790   4.853   3.861   8.412  1.2796 -0.6740 -0.9077
 4077TIP3    H233791   4.734   3.939   8.358 -0.3377 -2.7236 -0.4121
 4078TIP3   OH233792   4.621   5.740   0.591 -0.0472 -0.1110  0.4563
 4078TIP3    H133793   4.711   5.717   0.614 -0.0713 -0.4116  0.2652
 4078TIP3    H233794   4.568   5.670   0.630 -0.1192 -0.4105 -0.1637
 4079TIP3   OH233795   5.430   3.215   2.108  0.4328 -0.8923 -0.0885
 4079TIP3    H133796   5.506   3.231   2.051  0.3597 -1.8727 -0.4881
 4079TIP3    H233797   5.372   3.290   2.092  1.0716 -0.4105 -0.1903
 4080TIP3   OH233798   5.495   2.973   8.426  0.0202  0.4156  0.0058
 4080TIP3    H133799   5.443   2.965   8.505  0.0393  1.4626  0.1420
 4080TIP3    H233800   5.441   2.935   8.356 -0.6808  0.9713  0.2419
 4081TIP3   OH233801   3.400   6.007   8.561 -0.0467 -1.1076 -0.7981
 4081TIP3    H133802   3.469   6.065   8.530 -0.7560 -0.2714 -0.8405
 4081TIP3    H233803   3.389   5.944   8.490  1.9691 -2.4547 -0.0156
 4082TIP3   OH233804   4.220   4.727   1.512 -0.1017 -0.1885 -0.7621
 4082TIP3    H133805   4.176   4.648   1.541 -1.1332  0.5799 -0.1798
 4082TIP3    H233806   4.241   4.711   1.420 -1.0831 -0.7891 -0.8855
 4083TIP3   OH233807   4.435   1.898   6.717  0.7714  0.3674  0.2796
 4083TIP3    H133808   4.494   1.824   6.706  0.8823  0.6672 -1.5044
 4083TIP3    H233809   4.417   1.928   6.627 -1.5280  0.7175  0.7803
 4084TIP3   OH233810   4.215   5.619   1.045  0.4669 -0.5474 -0.0657
 4084TIP3    H133811   4.159   5.587   1.116  0.5073 -1.8961 -0.6024
 4084TIP3    H233812   4.304   5.596   1.072  0.6789  0.6264  0.2903
 4085TIP3   OH233813   3.698   1.283   6.902 -0.8978 -0.1631 -0.7061
 4085TIP3    H133814   3.697   1.377   6.920 -1.0174 -0.5885  1.8928
 4085TIP3    H233815   3.663   1.243   6.981 -1.8355 -2.3817 -2.1427
 4086TIP3   OH233816   0.288   2.729   1.296 -0.0950  0.3656  0.1463
 4086TIP3    H133817   0.213   2.740   1.237 -0.1405  0.9300  0.3037
 4086TIP3    H233818   0.251   2.688   1.375  0.1655 -1.4858 -0.6449
 4087TIP3   OH233819   0.395   0.533   0.340 -0.0200 -0.5534 -0.1682
 4087TIP3    H133820   0.368   0.442   0.354  0.2089 -0.1732  4.0597
 4087TIP3    H233821   0.482   0.527   0.301 -0.5833 -2.0756 -1.2524
 4088TIP3   OH233822   6.024   2.850   6.370 -1.3876 -0.2114  0.0381
 4088TIP3    H133823   6.117   2.832   6.352 -1.6909 -0.9702 -0.8141
 4088TIP3    H233824   6.019   2.850   6.466 -0.9108 -2.4275  0.1228
 4089TIP3   OH233825   6.222   0.900   7.915  0.3773 -0.4895 -0.1658
 4089TIP3    H133826   6.236   0.936   8.002  0.1857  2.1999 -1.1457
 4089TIP3    H233827   6.299   0.929   7.865  0.1619 -1.4154 -1.0656
 4090TIP3   OH233828   2.799   4.117   1.747 -0.4086  0.0323 -0.0145
 4090TIP3    H133829   2.734   4.185   1.765 -3.6586 -2.7980 -0.0173
 4090TIP3    H233830   2.750   4.035   1.756  2.9987 -2.2959 -1.0525
 4091TIP3   OH233831   3.666   3.345   7.370  0.4431  0.2056 -0.0772
 4091TIP3    H133832   3.613   3.275   7.331 -1.2974  0.4314  1.7294
 4091TIP3    H233833   3.699   3.308   7.452 -2.1766  1.9693  1.9579
 4092TIP3   OH233834   6.525   4.664   1.311 -0.0760 -0.3764  0.4014
 4092TIP3    H133835   6.607   4.674   1.263  0.1792 -2.4384  0.3089
 4092TIP3    H233836   6.543   4.701   1.398  0.5069  0.3628 -0.0193
 4093TIP3   OH233837   6.405   2.352   1.414  0.2769  0.0524 -0.2242
 4093TIP3    H133838   6.400   2.300   1.334 -2.3543 -0.9558  0.4831
 4093TIP3    H233839   6.375   2.439   1.388  1.2993  0.2711 -0.7039
 4094TIP3   OH233840   6.709   6.588   8.411 -0.0612 -0.1613  0.0227
 4094TIP3    H133841   6.725   6.564   8.502  0.4237 -0.0608 -0.0332
 4094TIP3    H233842   6.654   6.517   8.377 -0.2984 -0.1644  0.4094
 4095TIP3   OH233843   4.472   0.494   6.976 -0.0207  0.0091 -0.6240
 4095TIP3    H133844   4.421   0.431   6.925  1.6811 -0.3428 -1.9568
 4095TIP3    H233845   4.543   0.443   7.015  0.1747  0.7442  0.0181
 4096TIP3   OH233846   3.773   1.154   1.405 -0.5258 -0.5512  0.3086
 4096TIP3    H133847   3.700   1.181   1.348 -0.8929  0.7723  1.3722
 4096TIP3    H233848   3.770   1.214   1.479  0.6243 -1.5485  1.2116
 4097TIP3   OH233849   2.546   4.473   8.776 -0.3563 -0.8685 -0.3284
 4097TIP3    H133850   2.524   4.564   8.753  1.5352 -0.5229 -0.9444
 4097TIP3    H233851   2.465   4.425   8.763 -1.2760  0.6421 -0.4706
 4098TIP3   OH233852   5.177   4.396   8.401 -0.1265 -0.3996 -0.0708
 4098TIP3    H133853   5.203   4.317   8.449 -0.2795 -0.1671  0.4031
 4098TIP3    H233854   5.081   4.395   8.404 -0.1211 -0.0190  0.2251
 4099TIP3   OH233855   3.885   2.709   0.687 -0.3297  0.1652 -0.3188
 4099TIP3    H133856   3.898   2.626   0.642 -0.0170  0.2797 -0.4443
 4099TIP3    H233857   3.793   2.708   0.715 -0.4523 -0.0202 -0.7278
 4100TIP3   OH233858   4.939   1.992   7.001  0.0337 -0.3810  0.0497
 4100TIP3    H133859   4.877   2.019   6.933 -0.0791  1.8469  0.9491
 4100TIP3    H233860   4.890   1.930   7.054 -1.4168  1.1260  0.5783
 4101TIP3   OH233861   6.372   3.872   0.598 -0.0545 -0.1603  0.1118
 4101TIP3    H133862   6.301   3.924   0.561 -1.6409 -1.7219  0.8765
 4101TIP3    H233863   6.450   3.901   0.549 -1.2258  1.3550 -0.9609
 4102TIP3   OH233864   1.058   6.592   0.765 -0.2888 -0.1595  0.2882
 4102TIP3    H133865   0.992   6.548   0.711  0.7257 -0.2902 -0.8929
 4102TIP3    H233866   1.066   6.537   0.843  0.3236 -1.6205 -0.7663
 4103TIP3   OH233867   5.202   0.238   1.163 -0.7635  0.2566 -0.1989
 4103TIP3    H133868   5.154   0.275   1.089 -1.7478 -0.7424 -0.0900
 4103TIP3    H233869   5.215   0.312   1.222  0.8406  1.2827 -1.7310
 4104TIP3   OH233870   4.108   1.803   0.702 -0.2808 -0.2362 -0.3534
 4104TIP3    H133871   4.111   1.868   0.772  0.2241 -0.5814 -0.0505
 4104TIP3    H233872   4.034   1.747   0.724 -0.1334 -0.3336 -0.1032
 4105TIP3   OH233873   3.404   0.741   2.522  0.4864  0.5564  0.4607
 4105TIP3    H133874   3.487   0.715   2.481 -0.4595 -0.6599 -0.7529
 4105TIP3    H233875   3.421   0.830   2.556  2.7158 -0.1986  1.5513
 4106TIP3   OH233876   0.426   1.158   8.599  0.7346  0.1719  0.0719
 4106TIP3    H133877   0.464   1.091   8.543 -1.4255 -0.3551 -0.8461
 4106TIP3    H233878   0.488   1.231   8.595  1.3892 -0.4422 -1.7456
 4107TIP3   OH233879   4.811   5.760   6.404  0.1571 -0.4360 -0.1442
 4107TIP3    H133880   4.750   5.818   6.450  1.7945  1.3757 -0.1264
 4107TIP3    H233881   4.890   5.760   6.458  0.9331 -1.0161 -1.2389
 4108TIP3   OH233882   3.162   0.168   8.227  0.2976 -0.0098 -0.0237
 4108TIP3    H133883   3.246   0.211   8.240 -0.4912  1.7960 -0.6325
 4108TIP3    H233884   3.140   0.131   8.313  1.7473 -0.6209  0.1086
 4109TIP3   OH233885   0.556   5.856   7.123  0.5761  0.0641 -0.2926
 4109TIP3    H133886   0.546   5.797   7.049  1.0242  0.0147 -0.3121
 4109TIP3    H233887   0.544   5.944   7.086 -1.4680 -0.0604 -0.0326
 4110TIP3   OH233888   2.840   0.471   6.614  0.4252  0.1860  0.2335
 4110TIP3    H133889   2.865   0.446   6.525  0.2517 -1.5242  0.6166
 4110TIP3    H233890   2.901   0.422   6.670 -0.5828 -0.1419  1.0685
 4111TIP3   OH233891   6.065   2.308   8.149 -0.3057  0.2068 -0.1265
 4111TIP3    H133892   6.145   2.326   8.200 -0.7448 -0.0537  0.6825
 4111TIP3    H233893   6.088   2.231   8.096 -0.2596 -0.3883  0.7162
 4112TIP3   OH233894   2.989   5.573   2.171  0.5051  0.5742  0.4686
 4112TIP3    H133895   3.084   5.571   2.157  0.5804  1.0455  0.8567
 4112TIP3    H233896   2.974   5.655   2.219  0.0360 -0.0185  1.3563
 4113TIP3   OH233897   2.312   2.966   0.952 -0.5529  0.3096  0.3315
 4113TIP3    H133898   2.311   2.892   0.891  1.9053  0.8629 -0.4732
 4113TIP3    H233899   2.286   2.927   1.036 -0.6056 -1.1879 -0.3460
 4114TIP3   OH233900   0.831   5.947   2.019  0.7119 -0.0803  0.1989
 4114TIP3    H133901   0.901   5.887   1.993  1.1817 -0.4672  2.2226
 4114TIP3    H233902   0.806   5.920   2.107  0.3295  2.1460  0.8588
 4115TIP3   OH233903   1.388   1.904   1.392  0.0289  0.4101  0.0180
 4115TIP3    H133904   1.296   1.917   1.415 -0.2828 -1.0252 -0.3373
 4115TIP3    H233905   1.392   1.921   1.298  0.6452  2.8908  0.4151
 4116TIP3   OH233906   0.727   3.336   0.940  0.4317  0.0822  0.0483
 4116TIP3    H133907   0.718   3.306   1.030  1.0243 -0.9661 -0.2262
 4116TIP3    H233908   0.816   3.371   0.935 -0.0101  1.2927  0.1736
 4117TIP3   OH233909   4.488   2.898   8.292 -0.1282  0.0018 -0.3179
 4117TIP3    H133910   4.499   2.835   8.221 -2.9134  0.3096 -1.1583
 4117TIP3    H233911   4.443   2.972   8.251 -2.9923 -0.3086  1.8903
 4118TIP3   OH233912   6.298   2.479   1.802  0.3272  0.2876 -0.0546
 4118TIP3    H133913   6.393   2.469   1.795  0.1411 -1.1369 -1.1021
 4118TIP3    H233914   6.269   2.399   1.845 -0.6913 -1.1196 -3.0665
 4119TIP3   OH233915   5.476   4.622   0.300  0.5062  0.2641  0.3084
 4119TIP3    H133916   5.554   4.675   0.283 -0.7186  1.6709 -1.3339
 4119TIP3    H233917   5.467   4.568   0.222 -0.2601  0.2400  0.4113
 4120TIP3   OH233918   1.518   2.361   7.271  0.2682  0.4028 -0.6709
 4120TIP3    H133919   1.462   2.439   7.278 -0.3034 -0.0768  0.2344
 4120TIP3    H233920   1.473   2.305   7.209  0.1876  0.3795 -0.5909
 4121TIP3   OH233921   4.059   1.686   1.941  0.4868  0.1185  0.0667
 4121TIP3    H133922   4.127   1.752   1.929  0.4727 -0.1004 -1.4036
 4121TIP3    H233923   3.997   1.727   2.001  0.9102  1.1056 -0.1353
 4122TIP3   OH233924   3.347   3.674   6.227 -0.7524 -0.2299  0.4437
 4122TIP3    H133925   3.416   3.702   6.287 -1.3060  0.3119  0.8452
 4122TIP3    H233926   3.276   3.646   6.285 -2.0251  2.0380  0.1234
 4123TIP3   OH233927   3.509   6.146   7.173 -0.0393  0.3462  0.2721
 4123TIP3    H133928   3.569   6.117   7.241  1.3913  0.5881 -0.8373
 4123TIP3    H233929   3.493   6.238   7.193 -2.2846 -0.3690  2.1364
 4124TIP3   OH233930   3.250   4.998   7.313  0.7113 -0.5211 -0.0147
 4124TIP3    H133931   3.261   5.030   7.403 -0.3680 -1.9234  0.6402
 4124TIP3    H233932   3.213   4.911   7.322  0.4015 -0.6256 -1.8474
 4125TIP3   OH233933   6.570   2.549   7.189 -0.6284 -0.8036 -0.2913
 4125TIP3    H133934   6.641   2.613   7.202 -1.2460 -0.2925  0.6416
 4125TIP3    H233935   6.598   2.499   7.112  0.0624  0.3213 -0.8113
 4126TIP3   OH233936   3.630   3.014   6.734  0.4372  0.0302 -0.1337
 4126TIP3    H133937   3.615   3.035   6.826  0.9914  1.3752 -0.3281
 4126TIP3    H233938   3.674   3.091   6.698 -1.4778  0.3539 -1.9988
 4127TIP3   OH233939   5.289   0.686   8.669  0.1719  0.0306  0.8194
 4127TIP3    H133940   5.355   0.751   8.647 -0.9552  1.0659  0.3361
 4127TIP3    H233941   5.337   0.604   8.679  1.5938  0.8768  1.1505
 4128TIP3   OH233942   4.538   5.482   0.335 -0.4049 -0.0695 -0.1054
 4128TIP3    H133943   4.461   5.523   0.375 -0.4452 -0.9127  0.7342
 4128TIP3    H233944   4.571   5.424   0.404 -1.4480 -2.8841 -1.8056
 4129TIP3   OH233945   3.553   0.177   0.231 -0.2817  0.6187 -0.1529
 4129TIP3    H133946   3.607   0.190   0.153 -0.0055 -0.2910 -0.1177
 4129TIP3    H233947   3.594   0.233   0.298  1.7158 -1.3231  0.3810
 4130TIP3   OH233948   3.696   6.603   8.675  0.2305 -0.8534  0.0949
 4130TIP3    H133949   3.666   6.676   8.728 -1.0189 -1.2253 -0.0744
 4130TIP3    H233950   3.784   6.584   8.708  1.1297  1.5348 -0.7177
 4131TIP3   OH233951   4.934   1.904   0.714 -0.3252 -0.2966 -0.0112
 4131TIP3    H133952   4.980   1.903   0.799  0.0113 -2.0688 -0.1771
 4131TIP3    H233953   4.895   1.991   0.710  2.3608  1.0630  0.5089
 4132TIP3   OH233954   2.105   0.940   2.252  0.1460 -0.7698  0.4061
 4132TIP3    H133955   2.086   0.847   2.235  0.9523 -1.1692  1.5720
 4132TIP3    H233956   2.027   0.986   2.221 -0.3786 -1.8592  0.0393
 4133TIP3   OH233957   0.451   0.838   0.711  1.0102 -0.0404  0.3450
 4133TIP3    H133958   0.478   0.789   0.789  1.1397 -1.2503 -0.4332
 4133TIP3    H233959   0.397   0.776   0.662  1.7711  0.3365 -1.0194
 4134TIP3   OH233960   0.815   3.893   8.694  0.0958 -0.2780 -0.1092
 4134TIP3    H133961   0.866   3.969   8.723  2.0458 -1.4726 -0.2609
 4134TIP3    H233962   0.855   3.868   8.611 -1.3043 -0.7869 -0.6640
 4135TIP3   OH233963   4.912   1.313   7.038  0.3329 -0.7644  0.0957
 4135TIP3    H133964   4.972   1.324   7.112 -0.0526 -1.4171  0.5147
 4135TIP3    H233965   4.859   1.237   7.061 -0.7626 -0.1047 -0.2125
 4136TIP3   OH233966   0.169   4.957   8.394  0.3365  0.2295 -0.1342
 4136TIP3    H133967   0.114   4.912   8.458  1.4672  1.3358  1.7040
 4136TIP3    H233968   0.169   5.048   8.421  1.8295  0.5179 -0.9864
 4137TIP3   OH233969   4.616   3.830   1.790  0.1021 -0.2318 -0.2992
 4137TIP3    H133970   4.530   3.872   1.793  0.9955  1.7487 -0.4825
 4137TIP3    H233971   4.623   3.797   1.700 -1.4993 -2.9183  0.4462
 4138TIP3   OH233972   3.758   0.261   7.398 -0.3068  0.1368 -0.0374
 4138TIP3    H133973   3.853   0.271   7.384  0.2457 -0.4896  2.7006
 4138TIP3    H233974   3.739   0.172   7.368 -0.2985  0.6308 -1.6090
 4139TIP3   OH233975   2.008   3.186   0.943  0.4996  0.2908 -0.0902
 4139TIP3    H133976   1.969   3.118   0.887 -0.1465  1.2011 -0.7928
 4139TIP3    H233977   2.096   3.199   0.908  0.6194 -0.1669  0.0377
 4140TIP3   OH233978   3.924   3.002   6.549 -0.3732 -0.2864 -0.3433
 4140TIP3    H133979   3.965   2.981   6.633 -2.8191 -5.3361 -0.0651
 4140TIP3    H233980   3.992   2.985   6.484  0.5202  0.2653  0.4157
 4141TIP3   OH233981   0.644   0.600   7.935 -0.0668  0.9414 -0.4975
 4141TIP3    H133982   0.664   0.631   7.847  0.9135  3.0815  0.3905
 4141TIP3    H233983   0.644   0.505   7.928  0.9613  1.0435 -2.6148
 4142TIP3   OH233984   1.071   1.265   1.881  0.4715  0.5172 -0.3122
 4142TIP3    H133985   1.036   1.353   1.891 -0.5617  0.1639 -0.7452
 4142TIP3    H233986   1.166   1.278   1.877  0.2882  1.7264 -1.4975
 4143TIP3   OH233987   0.176   5.558   0.373 -0.1010 -0.1336 -0.4416
 4143TIP3    H133988   0.259   5.551   0.326  0.7038  1.4457  0.6681
 4143TIP3    H233989   0.192   5.514   0.457 -1.1750 -1.9402 -1.1307
 4144TIP3   OH233990   5.414   5.252   8.648 -0.0799  0.3097 -0.1174
 4144TIP3    H133991   5.348   5.183   8.650 -0.3293  0.5757  1.2870
 4144TIP3    H233992   5.378   5.318   8.589 -1.4756  0.8431  1.3046
 4145TIP3   OH233993   2.859   0.290   0.845  0.5311 -0.0961 -0.3639
 4145TIP3    H133994   2.843   0.269   0.937  1.0255 -0.6416 -0.3958
 4145TIP3    H233995   2.951   0.269   0.831  0.7664  1.1032 -0.6900
 4146TIP3   OH233996   6.530   5.117   8.461  0.0733  0.2079  0.2234
 4146TIP3    H133997   6.502   5.174   8.532  0.6449 -0.2188  0.7913
 4146TIP3    H233998   6.511   5.029   8.492  1.7466 -0.0772  0.4993
 4147TIP3   OH233999   2.441   6.194   8.428  0.1105  0.5127 -0.5074
 4147TIP3    H134000   2.416   6.260   8.492 -0.4984  0.5656 -0.7899
 4147TIP3    H234001   2.534   6.179   8.443 -0.1810 -0.0441  0.9089
 4148TIP3   OH234002   3.637   0.023   7.366 -0.0421  0.4162  0.3597
 4148TIP3    H134003   3.585  -0.024   7.302  1.9349 -0.8124 -0.4400
 4148TIP3    H234004   3.653  -0.041   7.435  1.8684  0.1501 -0.2746
 4149TIP3   OH234005   3.078   5.289   7.703 -0.8011  0.2384 -0.8758
 4149TIP3    H134006   3.057   5.236   7.626 -0.4727  0.4306 -1.0999
 4149TIP3    H234007   2.993   5.323   7.732 -1.4578 -2.6556  0.9754
 4150TIP3   OH234008   0.230   1.874   0.615  0.7633 -0.3358 -0.0253
 4150TIP3    H134009   0.212   1.792   0.570  1.6732  0.1489 -1.3498
 4150TIP3    H234010   0.253   1.849   0.704  1.1880 -1.5222 -0.4582
 4151TIP3   OH234011   3.577   2.024   8.576 -0.3162 -0.2448 -0.1520
 4151TIP3    H134012   3.610   2.093   8.518 -1.5608  0.5245  0.0328
 4151TIP3    H234013   3.647   2.012   8.641 -0.0420  0.7720 -0.2461
 4152TIP3   OH234014   3.372   3.387   7.122 -0.3620  0.3326 -0.0207
 4152TIP3    H134015   3.289   3.375   7.076 -0.8954  1.6355  0.5391
 4152TIP3    H234016   3.351   3.373   7.214  0.2703 -0.3072  0.0354
 4153TIP3   OH234017   4.082   4.240   6.808  0.6556  0.3926 -0.0324
 4153TIP3    H134018   4.051   4.256   6.719  0.0276  0.3539  0.1703
 4153TIP3    H234019   4.175   4.219   6.798  0.1178 -1.8276 -0.9125
 4154TIP3   OH234020   6.066   1.103   8.633  0.2248 -0.1656 -0.2615
 4154TIP3    H134021   6.140   1.046   8.655  0.3180  0.1210  0.1835
 4154TIP3    H234022   6.035   1.070   8.549  1.2535  0.1043 -0.7664
 4155TIP3   OH234023   2.616   2.093   7.512  0.2410  0.2125 -0.1186
 4155TIP3    H134024   2.542   2.107   7.453  0.8982 -0.7252 -1.1852
 4155TIP3    H234025   2.622   1.998   7.522  1.4203  0.2635 -0.1950
 4156TIP3   OH234026   6.247   2.566   0.254 -0.2309 -0.4909 -0.2462
 4156TIP3    H134027   6.187   2.497   0.226 -0.7193  0.5419 -1.8162
 4156TIP3    H234028   6.205   2.606   0.330  0.5299 -2.5172  1.3418
 4157TIP3   OH234029   1.380   4.224   1.184 -0.4487  0.2554  0.1078
 4157TIP3    H134030   1.293   4.227   1.222 -0.1213 -2.1928  1.2452
 4157TIP3    H234031   1.378   4.287   1.112 -2.9234  0.7069  0.5116
 4158TIP3   OH234032   6.626   2.132   7.578  0.3653 -0.3515  0.2088
 4158TIP3    H134033   6.636   2.177   7.662  0.0414 -1.7372  1.0191
 4158TIP3    H234034   6.615   2.203   7.514 -0.0606  0.7212  1.4206
 4159TIP3   OH234035   6.241   3.297   1.912 -0.0010  0.0364 -0.5582
 4159TIP3    H134036   6.179   3.317   1.982 -1.8004  1.4241 -2.4283
 4159TIP3    H234037   6.281   3.214   1.937 -0.8432  0.2979  1.8846
 4160TIP3   OH234038   4.338   6.690   2.239 -0.2273 -0.2517 -0.0763
 4160TIP3    H134039   4.313   6.779   2.214 -1.2258 -0.2163  0.9766
 4160TIP3    H234040   4.422   6.701   2.284 -0.1696  0.1107 -0.2638
 4161TIP3   OH234041   4.970   1.473   6.363  0.4817  0.1839  0.0358
 4161TIP3    H134042   4.899   1.413   6.340 -0.1405  0.5565  0.9168
 4161TIP3    H234043   5.027   1.422   6.419  0.1177  0.3085  0.5298
 4162TIP3   OH234044   2.534   0.530   0.843 -0.1969 -0.1638 -0.0888
 4162TIP3    H134045   2.597   0.538   0.915 -1.5442 -1.0856  1.2692
 4162TIP3    H234046   2.580   0.480   0.776  1.4356  1.5626 -0.3459
 4163TIP3   OH234047   4.077   5.442   8.781  0.2485 -0.3097  0.5888
 4163TIP3    H134048   4.089   5.489   8.864 -0.2044  0.4755  0.2106
 4163TIP3    H234049   4.017   5.496   8.731  0.9689 -0.4956 -0.4957
 4164TIP3   OH234050   2.143   4.224   7.809 -0.2714  0.4434 -0.1090
 4164TIP3    H134051   2.181   4.177   7.735 -0.1023 -0.1553  0.3557
 4164TIP3    H234052   2.067   4.269   7.772  1.4736  2.6240 -1.3356
 4165TIP3   OH234053   2.130   5.729   6.663  0.0046  0.3176 -0.1758
 4165TIP3    H134054   2.114   5.815   6.703 -1.7160 -0.3427  0.6229
 4165TIP3    H234055   2.205   5.744   6.605  0.8281  1.9494  1.2176
 4166TIP3   OH234056   1.859   0.332   1.394  0.0111 -0.2428  0.1329
 4166TIP3    H134057   1.813   0.316   1.312  1.3124 -0.4529 -0.5856
 4166TIP3    H234058   1.878   0.245   1.429  0.5927 -0.1700 -0.0016
 4167TIP3   OH234059   1.581   0.932   1.113 -0.2041  0.3503  0.0741
 4167TIP3    H134060   1.491   0.899   1.106 -0.4625  0.9156  0.7044
 4167TIP3    H234061   1.573   1.026   1.097  0.4334  0.2460 -0.9705
 4168TIP3   OH234062   4.021   6.012   6.757  0.7282  1.0193  0.0029
 4168TIP3    H134063   3.991   6.066   6.684 -0.0638  1.0003  0.3067
 4168TIP3    H234064   4.116   6.016   6.752  0.6795  1.5346 -0.6492
 4169TIP3   OH234065   5.912   5.825   0.371  0.2987 -0.0369 -0.1722
 4169TIP3    H134066   5.894   5.861   0.284 -0.5341 -1.4382 -0.6117
 4169TIP3    H234067   6.003   5.796   0.367  1.0318  2.0276  0.2302
 4170TIP3   OH234068   3.136   1.051   2.143 -0.0757 -0.1527 -0.1817
 4170TIP3    H134069   3.176   1.061   2.229 -1.1742  0.0768  0.3196
 4170TIP3    H234070   3.149   1.136   2.101 -1.6829  0.5917  0.7225
 4171TIP3   OH234071   2.710   5.745   8.544  0.3780 -0.3837  0.1458
 4171TIP3    H134072   2.710   5.739   8.448 -0.7069  0.8185  0.0507
 4171TIP3    H234073   2.803   5.744   8.567  0.6306 -2.6937 -0.7427
 4172TIP3   OH234074   1.625   5.939   6.584  0.3854 -0.4191 -0.1461
 4172TIP3    H134075   1.667   6.026   6.591 -0.4302  0.1867 -2.2243
 4172TIP3    H234076   1.680   5.891   6.523  0.2544 -1.0221  0.2069
 4173TIP3   OH234077   3.457   1.177   8.692  0.3521 -0.5541  0.6744
 4173TIP3    H134078   3.424   1.088   8.700 -0.0238 -0.3780  1.1031
 4173TIP3    H234079   3.382   1.233   8.713  0.0520 -0.0922 -1.3857
 4174TIP3   OH234080   6.054   4.207   8.701 -0.7260 -0.6397 -0.1256
 4174TIP3    H134081   6.087   4.209   8.790 -0.1875 -3.0052 -0.2107
 4174TIP3    H234082   6.129   4.228   8.646 -0.5430 -1.2137 -0.1003
 4175TIP3   OH234083   5.756   2.347   8.673 -0.3917  0.0736  0.5817
 4175TIP3    H134084   5.728   2.257   8.655 -0.7466 -0.1246  1.9733
 4175TIP3    H234085   5.681   2.401   8.649 -1.0588 -0.2288  1.8921
 4176TIP3   OH234086   0.758   3.649   8.032 -0.0964  0.1243  0.3606
 4176TIP3    H134087   0.746   3.694   7.948  0.0386  0.0352  0.2938
 4176TIP3    H234088   0.671   3.615   8.054 -0.1279  0.1336  0.2496
 4177TIP3   OH234089   5.038   2.814   1.421  0.1912 -0.4268  0.1661
 4177TIP3    H134090   5.060   2.722   1.408 -1.0100 -0.6430 -0.5650
 4177TIP3    H234091   4.942   2.816   1.418  0.2162  1.0407 -1.3377
 4178TIP3   OH234092   1.460   1.123   0.433 -0.4731  0.1870  0.0683
 4178TIP3    H134093   1.418   1.208   0.416 -0.3248  0.9974  3.2795
 4178TIP3    H234094   1.388   1.068   0.465  0.0525  0.2307  1.3683
 4179TIP3   OH234095   3.526   1.246   8.023  0.0550  0.6781  0.2670
 4179TIP3    H134096   3.562   1.304   7.956  1.5854  0.0609  0.5136
 4179TIP3    H234097   3.457   1.198   7.979 -0.2026  1.5960 -0.3530
 4180TIP3   OH234098   1.085   6.219   7.465  0.3405 -0.4883  0.4192
 4180TIP3    H134099   1.090   6.161   7.389  0.7959  0.6391 -0.4496
 4180TIP3    H234100   0.992   6.223   7.486  0.3163 -1.5900  0.5477
 4181TIP3   OH234101   1.533   6.254   8.241 -0.2784  0.6070 -0.0493
 4181TIP3    H134102   1.527   6.294   8.154 -0.0032  0.9515  0.0874
 4181TIP3    H234103   1.614   6.203   8.238 -0.7019 -0.0659 -0.2698
 4182TIP3   OH234104   3.235   3.125   2.037  0.5702 -0.5323 -0.4712
 4182TIP3    H134105   3.165   3.094   2.095  1.4220 -1.6221  0.0015
 4182TIP3    H234106   3.311   3.071   2.060  1.2152 -0.2601 -1.8895
 4183TIP3   OH234107   3.497   2.990   8.206  0.8339 -0.1735  0.0159
 4183TIP3    H134108   3.421   3.047   8.197  0.3367 -0.8966 -0.4536
 4183TIP3    H234109   3.464   2.914   8.254  1.3192 -0.3879  0.0193
 4184TIP3   OH234110   1.691   3.435   0.271 -0.4274 -0.3169 -0.3092
 4184TIP3    H134111   1.688   3.515   0.219  0.4796  0.0009  0.0892
 4184TIP3    H234112   1.731   3.462   0.354 -1.1913 -0.9529  0.2872
 4185TIP3   OH234113   5.428   3.506   8.608 -0.3797  0.1081  0.2851
 4185TIP3    H134114   5.378   3.432   8.642 -2.2138  1.2384  0.1330
 4185TIP3    H234115   5.500   3.466   8.560 -1.6060 -1.5836 -0.2204
 4186TIP3   OH234116   5.337   6.610   7.673  0.2807  0.8876 -0.1945
 4186TIP3    H134117   5.376   6.640   7.755 -0.1805  1.0552 -0.0284
 4186TIP3    H234118   5.260   6.667   7.661 -0.4454 -0.0312 -0.0195
 4187TIP3   OH234119   6.374   3.711   0.828 -0.3354 -0.0848  0.8578
 4187TIP3    H134120   6.456   3.748   0.860 -1.4932  0.7770  3.0452
 4187TIP3    H234121   6.363   3.748   0.740  0.3828  1.8257  1.5294
 4188TIP3   OH234122   4.736   1.877   1.456 -0.3383 -0.5669  0.3008
 4188TIP3    H134123   4.806   1.823   1.419 -1.3739 -1.5189 -0.3520
 4188TIP3    H234124   4.655   1.836   1.424 -1.2008  0.3312  1.2582
 4189TIP3   OH234125   2.434   4.394   7.308  0.6252 -0.1718 -0.2191
 4189TIP3    H134126   2.492   4.431   7.241  2.0629 -2.1934 -0.1470
 4189TIP3    H234127   2.347   4.395   7.266  1.0397  0.9379 -1.1230
 4190TIP3   OH234128   2.008   2.211   6.364 -0.5264 -0.2584 -0.0777
 4190TIP3    H134129   2.000   2.178   6.453 -2.9902  1.7147  0.5669
 4190TIP3    H234130   1.926   2.259   6.349 -0.3201 -0.7188 -3.5118
 4191TIP3   OH234131   4.891   2.247   1.052 -0.4285 -0.2495  0.4261
 4191TIP3    H134132   4.900   2.278   1.142 -3.9573 -1.3464  1.3439
 4191TIP3    H234133   4.835   2.313   1.010  1.4943  0.4652 -1.1903
 4192TIP3   OH234134   2.402   1.297   7.911 -0.2202 -0.1766 -0.0250
 4192TIP3    H134135   2.377   1.204   7.906 -1.1241  0.0558  0.2201
 4192TIP3    H234136   2.324   1.342   7.940  0.8022  0.4212  1.9572
 4193TIP3   OH234137   5.111   5.276   7.423 -0.0817  0.8093 -0.5821
 4193TIP3    H134138   5.127   5.316   7.338 -1.3677  2.5683 -0.0480
 4193TIP3    H234139   5.193   5.285   7.471  0.0695  1.5399 -0.9789
 4194TIP3   OH234140   1.546   2.955   8.516  0.1393  0.1252  0.7602
 4194TIP3    H134141   1.597   2.976   8.595 -1.1730  0.5286  1.5203
 4194TIP3    H234142   1.606   2.903   8.462  1.2199  0.2485  1.8067
 4195TIP3   OH234143   3.961   5.440   1.699  0.2200  0.3168 -0.2229
 4195TIP3    H134144   4.049   5.477   1.688  1.2999 -1.1720  2.4558
 4195TIP3    H234145   3.952   5.377   1.628  1.2673  0.5473 -0.5728
 4196TIP3   OH234146   4.726   3.971   1.105 -0.9651  0.1272  0.4822
 4196TIP3    H134147   4.743   4.064   1.121 -0.0670  0.1810 -0.6437
 4196TIP3    H234148   4.805   3.926   1.136 -1.2086 -0.2148  0.6070
 4197TIP3   OH234149   0.676   3.625   1.975  0.2112 -0.4373  0.2898
 4197TIP3    H134150   0.710   3.690   2.037  1.1948  2.0664 -2.6491
 4197TIP3    H234151   0.753   3.574   1.950  0.6181  0.9799 -1.5178
 4198TIP3   OH234152   0.064   0.873   1.487 -0.1467  0.3419 -1.0892
 4198TIP3    H134153  -0.025   0.846   1.509 -0.3452 -0.1006 -2.3331
 4198TIP3    H234154   0.091   0.929   1.560 -0.8339 -0.8254  0.0966
 4199TIP3   OH234155   4.037   1.254   6.804 -0.5361 -0.4442  0.0551
 4199TIP3    H134156   3.961   1.236   6.748  0.8886 -0.0076 -2.1459
 4199TIP3    H234157   4.085   1.323   6.757  0.8893 -0.2638  1.6970
 4200TIP3   OH234158   1.516   0.924   0.116 -0.4267 -0.7539  0.2022
 4200TIP3    H134159   1.515   0.844   0.168  0.2556 -0.6360  0.4195
 4200TIP3    H234160   1.457   0.984   0.161 -1.9342 -1.5428 -0.6631
 4201TIP3   OH234161   6.217   1.226   0.648  0.2740 -0.6192  0.4680
 4201TIP3    H134162   6.247   1.267   0.567 -1.2093 -0.9041 -0.2593
 4201TIP3    H234163   6.149   1.285   0.681 -0.0568 -1.1852  0.8049
 4202TIP3   OH234164   0.255   2.459   1.143 -0.2794  0.0632  0.3608
 4202TIP3    H134165   0.279   2.551   1.138  0.0601 -0.1077 -2.3975
 4202TIP3    H234166   0.339   2.413   1.153 -0.4979  0.0235  2.4968
 4203TIP3   OH234167   1.656   3.737   0.820 -0.1176  0.3252  0.4140
 4203TIP3    H134168   1.616   3.738   0.907  0.7740  3.1412  0.9034
 4203TIP3    H234169   1.589   3.700   0.763 -1.6268  0.5575  1.9534
 4204TIP3   OH234170   2.125   2.963   7.261 -0.4899  0.0137  0.6944
 4204TIP3    H134171   2.035   2.995   7.259 -1.0449 -1.4421  0.8736
 4204TIP3    H234172   2.135   2.917   7.177  0.3488  0.8238  0.3421
 4205TIP3   OH234173   6.695   1.210   8.002  0.0424 -0.5972 -1.0854
 4205TIP3    H134174   6.717   1.238   7.913  1.9403  0.2706 -0.3956
 4205TIP3    H234175   6.777   1.216   8.050 -1.3990  1.6872  1.4258
 4206TIP3   OH234176   3.123   6.147   7.849 -0.1943 -0.1148 -0.0904
 4206TIP3    H134177   3.115   6.076   7.786  1.1152 -0.6012  0.2665
 4206TIP3    H234178   3.044   6.142   7.902 -0.1491 -1.2449 -0.1249
 4207TIP3   OH234179   0.512   2.723   1.610 -0.0551 -0.1120  0.1693
 4207TIP3    H134180   0.520   2.813   1.642  0.9491 -0.5988  1.3547
 4207TIP3    H234181   0.591   2.679   1.640  0.4370 -0.9171 -2.1026
 4208TIP3   OH234182   2.779   2.022   8.238  0.2479  0.2205  0.0415
 4208TIP3    H134183   2.856   2.052   8.287 -1.2692  1.9862  1.5085
 4208TIP3    H234184   2.718   1.993   8.305 -1.1462  0.8252 -0.9094
 4209TIP3   OH234185   3.402   4.286   7.953  0.0820 -0.1057 -0.1826
 4209TIP3    H134186   3.489   4.261   7.924  0.4430  2.5211 -1.7107
 4209TIP3    H234187   3.413   4.307   8.046  0.6925 -1.3090  0.0291
 4210TIP3   OH234188   3.116   2.183   6.546 -0.2775  0.0991 -0.0711
 4210TIP3    H134189   3.147   2.274   6.548 -0.5480  0.1823  1.1747
 4210TIP3    H234190   3.029   2.189   6.507 -0.1834  0.3487 -0.2452
 4211TIP3   OH234191   5.917   4.123   7.299 -0.3445  0.3624 -0.3061
 4211TIP3    H134192   5.911   4.044   7.353  0.0731  0.9453  0.6221
 4211TIP3    H234193   5.973   4.098   7.226 -1.1373 -0.5225 -0.6331
 4212TIP3   OH234194   6.007   4.075   1.498 -0.5359  0.2561 -0.7159
 4212TIP3    H134195   6.037   3.984   1.497 -0.0360  0.3809  0.7581
 4212TIP3    H234196   5.984   4.093   1.407  0.9298 -0.8250 -1.3452
 4213TIP3   OH234197   3.052   2.113   0.664 -0.0400  0.1740  0.7139
 4213TIP3    H134198   2.971   2.070   0.636  0.7775 -1.5789  0.8681
 4213TIP3    H234199   3.031   2.146   0.752 -1.3217  1.9944 -0.2148
 4214TIP3   OH234200   1.930   2.070   6.118 -0.2394 -0.7459 -0.3149
 4214TIP3    H134201   1.897   2.009   6.184 -1.9490  1.6696  1.2145
 4214TIP3    H234202   1.857   2.081   6.057 -0.8689  1.5217  0.7768
 4215TIP3   OH234203   2.403   6.509   1.713 -0.4085  0.0250  0.2241
 4215TIP3    H134204   2.388   6.531   1.805  2.2026 -1.7006  1.1598
 4215TIP3    H234205   2.481   6.454   1.713 -1.2830 -1.4564 -2.8872
 4216TIP3   OH234206   2.728   0.471   7.628 -0.2941 -0.6592  0.4212
 4216TIP3    H134207   2.708   0.381   7.600 -2.9651 -0.2850  0.7899
 4216TIP3    H234208   2.707   0.525   7.552  1.0516 -0.3039  0.2835
 4217TIP3   OH234209   1.278   6.794   8.259 -0.5375  0.4262  0.5191
 4217TIP3    H134210   1.352   6.735   8.242  0.1665  1.5507 -0.5050
 4217TIP3    H234211   1.207   6.736   8.286  0.6784 -0.7011  1.4299
 4218TIP3   OH234212   1.928   4.067   0.230 -0.2792  0.7010  0.2443
 4218TIP3    H134213   1.874   4.030   0.160 -1.6920 -0.0592  1.6763
 4218TIP3    H234214   1.979   3.993   0.263  0.2658  1.0237  0.1470
 4219TIP3   OH234215   5.792   5.323   1.030  0.0183 -0.3406 -0.1246
 4219TIP3    H134216   5.751   5.254   1.082 -0.0947  0.4751  0.9103
 4219TIP3    H234217   5.754   5.404   1.064 -0.1305  0.2305 -1.5504
 4220TIP3   OH234218   6.424   3.987   6.852  0.5781 -0.1506  0.5281
 4220TIP3    H134219   6.447   4.079   6.855 -0.1739  0.0467  0.4133
 4220TIP3    H234220   6.331   3.986   6.827  0.0708 -0.8731  2.2742
 4221TIP3   OH234221   5.484   0.681   0.872 -0.1768 -0.0823 -0.4710
 4221TIP3    H134222   5.578   0.691   0.889 -0.4938  0.4441  1.1758
 4221TIP3    H234223   5.461   0.598   0.914 -0.2017 -0.9701 -2.1530
 4222TIP3   OH234224   1.822   0.757   8.421  0.1583 -0.1263 -0.4512
 4222TIP3    H134225   1.782   0.841   8.441  2.0254 -0.1013  4.4289
 4222TIP3    H234226   1.764   0.693   8.461  1.4527 -0.6421  0.6706
 4223TIP3   OH234227   6.724   2.626   6.892  0.2204  0.6367 -0.3996
 4223TIP3    H134228   6.773   2.662   6.965  0.0315  0.2631 -0.0831
 4223TIP3    H234229   6.665   2.696   6.866 -0.2469  0.5173  0.3073
 4224TIP3   OH234230   2.717   3.748   1.091  0.3605  0.2365  0.6626
 4224TIP3    H134231   2.774   3.684   1.133  1.0153 -0.2317 -0.8593
 4224TIP3    H234232   2.760   3.832   1.106  0.6288  0.0652  0.8668
 4225TIP3   OH234233   3.779   2.423   7.397  0.3844 -0.1283 -0.1070
 4225TIP3    H134234   3.796   2.407   7.490 -1.1696 -1.7426 -0.0431
 4225TIP3    H234235   3.777   2.336   7.358 -3.7749  0.0229 -0.6871
 4226TIP3   OH234236   5.261   0.519   6.769  0.1842 -0.2041  0.3872
 4226TIP3    H134237   5.200   0.548   6.700  0.3410  1.1803  0.8088
 4226TIP3    H234238   5.206   0.509   6.847  0.2179 -0.5914  0.3636
 4227TIP3   OH234239   5.073   0.299   7.244  0.3107  0.2563 -0.4411
 4227TIP3    H134240   5.074   0.229   7.179  0.9873 -1.4945  1.3416
 4227TIP3    H234241   5.106   0.376   7.197  1.2621 -1.0547 -2.0363
 4228TIP3   OH234242   0.936   5.218   0.503  0.1232  0.0251 -0.1054
 4228TIP3    H134243   0.936   5.234   0.409  1.0330 -1.8156 -0.4568
 4228TIP3    H234244   0.875   5.283   0.538 -0.3787  0.6238 -1.9718
 4229TIP3   OH234245   5.892   6.178   8.048 -0.3573  0.1252 -0.2702
 4229TIP3    H134246   5.950   6.254   8.062 -0.6528  0.0828  1.3436
 4229TIP3    H234247   5.908   6.153   7.957  0.6245  1.3934 -0.4826
 4230TIP3   OH234248   2.265   3.582   7.093 -0.2264  0.3050 -0.0910
 4230TIP3    H134249   2.218   3.614   7.171 -0.3535  0.5307 -0.2579
 4230TIP3    H234250   2.347   3.631   7.094 -0.2381  0.3250 -0.1129
 4231TIP3   OH234251   3.734   1.230   0.485  0.3910  0.2374  0.1308
 4231TIP3    H134252   3.649   1.247   0.444  0.4700 -0.9360 -0.5598
 4231TIP3    H234253   3.760   1.314   0.522 -0.7148  0.7935 -0.3081
 4232TIP3   OH234254   5.637   4.495   8.600 -0.0632  0.3000  0.5987
 4232TIP3    H134255   5.560   4.526   8.648 -1.9859 -3.1091  0.0225
 4232TIP3    H234256   5.601   4.442   8.529  2.7821  2.0701 -2.4518
 4233TIP3   OH234257   6.247   2.283   2.230 -0.0875  0.4286 -0.3677
 4233TIP3    H134258   6.239   2.219   2.301 -0.4460 -1.4588 -2.0257
 4233TIP3    H234259   6.157   2.293   2.198  0.3040 -0.2130 -1.7409
 4234TIP3   OH234260   6.420   2.868   8.010 -0.6831 -0.2579  0.2595
 4234TIP3    H134261   6.325   2.880   8.018 -0.4500  2.6263 -0.0545
 4234TIP3    H234262   6.455   2.899   8.094  0.0176 -0.4324  0.0392
 4235TIP3   OH234263   5.083   5.660   8.570  0.0266  0.3833  0.2107
 4235TIP3    H134264   5.060   5.568   8.556  1.8306  0.1295 -1.5934
 4235TIP3    H234265   5.145   5.659   8.643 -0.2045  0.2099  0.4056
 4236TIP3   OH234266   5.680   2.532   8.388 -0.1950  0.2359  0.3491
 4236TIP3    H134267   5.610   2.476   8.355  0.3658 -0.2686 -0.0194
 4236TIP3    H234268   5.738   2.544   8.313  1.1022 -0.9269  1.1107
 4237TIP3   OH234269   1.814   0.839   7.181 -0.1499  0.3567 -0.2536
 4237TIP3    H134270   1.795   0.796   7.264 -0.8917 -0.8310 -1.0150
 4237TIP3    H234271   1.909   0.839   7.174 -0.0155  1.6338  1.1749
 4238TIP3   OH234272   2.384   1.102   0.964 -0.1561  0.0996  0.4290
 4238TIP3    H134273   2.468   1.123   0.924  0.6471 -1.9214  0.9076
 4238TIP3    H234274   2.401   1.097   1.058 -1.3584  1.8826  0.7919
 4239TIP3   OH234275   4.202   1.065   1.970 -0.1573  0.2835 -0.3534
 4239TIP3    H134276   4.243   1.122   2.034  0.3217 -0.5487  0.1063
 4239TIP3    H234277   4.271   1.004   1.945 -0.9435 -0.7968  0.0238
 4240TIP3   OH234278   0.551   0.001   1.256 -0.7520  0.3039 -0.2070
 4240TIP3    H134279   0.570   0.094   1.245  1.1213 -0.0593 -0.4871
 4240TIP3    H234280   0.584  -0.040   1.176  0.8335 -0.8609  0.9626
 4241TIP3   OH234281   1.145   4.745   7.485  0.3333  0.5167  0.5106
 4241TIP3    H134282   1.099   4.794   7.553  0.3962  0.4544  0.5972
 4241TIP3    H234283   1.236   4.745   7.513  0.5971  1.6884 -0.2631
 4242TIP3   OH234284   5.222   4.630   7.870  0.3746  0.7923 -0.2556
 4242TIP3    H134285   5.278   4.553   7.859 -1.0351 -0.2699 -0.2454
 4242TIP3    H234286   5.221   4.646   7.965 -0.8730 -0.4003 -0.0436
 4243TIP3   OH234287   0.198   0.498   2.058  0.0668 -0.2775 -0.2774
 4243TIP3    H134288   0.128   0.490   1.993  0.2239 -1.1267 -0.3585
 4243TIP3    H234289   0.268   0.544   2.012 -1.2558  2.6954  0.4988
 4244TIP3   OH234290   3.826   1.370   0.813 -0.1259 -0.2501  0.3043
 4244TIP3    H134291   3.827   1.344   0.906 -0.2039 -2.2534 -0.2073
 4244TIP3    H234292   3.869   1.297   0.768 -2.7170 -0.7620 -1.5468
 4245TIP3   OH234293   6.358   4.680   8.643  0.1547  0.0272  0.6416
 4245TIP3    H134294   6.279   4.690   8.591  1.0063  0.9166 -0.5385
 4245TIP3    H234295   6.343   4.734   8.720 -0.6098 -0.2716  0.7060
 4246TIP3   OH234296   3.128   0.899   8.201 -0.4185 -0.0739 -0.0341
 4246TIP3    H134297   3.042   0.894   8.158 -0.1151 -2.0701 -0.5208
 4246TIP3    H234298   3.116   0.853   8.284 -0.0661  0.5038  0.3367
 4247TIP3   OH234299   3.435   3.283   8.755  0.4543 -0.2628 -0.0542
 4247TIP3    H134300   3.460   3.346   8.687  0.4631 -1.1904 -0.9370
 4247TIP3    H234301   3.410   3.337   8.830 -1.6362  0.9063 -1.4754
 4248TIP3   OH234302   3.698   5.022   6.600  0.3927 -0.4209  0.5308
 4248TIP3    H134303   3.605   5.039   6.586  0.3886 -1.0821 -0.3626
 4248TIP3    H234304   3.740   5.108   6.597 -0.0270 -0.2354 -0.4460
 4249TIP3   OH234305   2.968   5.233   0.471 -0.0353 -0.7618  0.5440
 4249TIP3    H134306   3.022   5.312   0.473  0.0428 -0.8299  1.9151
 4249TIP3    H234307   2.892   5.257   0.418 -0.5352  0.5911  1.8207
 4250TIP3   OH234308   0.426   3.499   7.092  0.0280  0.6158 -0.0505
 4250TIP3    H134309   0.399   3.409   7.107  3.0009 -0.0826  1.9070
 4250TIP3    H234310   0.399   3.517   7.002 -0.6534 -2.2172 -0.5054
 4251TIP3   OH234311   1.573   0.483   1.994  0.1350  0.1132  0.2134
 4251TIP3    H134312   1.616   0.506   2.077  0.2599  2.7819 -0.4972
 4251TIP3    H234313   1.634   0.423   1.951  1.8571  1.5995  0.4727
 4252TIP3   OH234314   5.307   4.627   8.476  0.1942  0.0651 -0.0762
 4252TIP3    H134315   5.376   4.638   8.410  2.4363 -1.9366  1.7515
 4252TIP3    H234316   5.272   4.540   8.460 -0.6855  0.3742  0.1292
 4253TIP3   OH234317   5.327   5.456   8.511  0.5605  0.0634  0.3953
 4253TIP3    H134318   5.368   5.511   8.577  1.1965  0.9930 -0.7464
 4253TIP3    H234319   5.381   5.467   8.433 -1.9484  1.5748 -1.2681
 4254TIP3   OH234320   1.104   2.430   8.541 -0.0903 -0.0013  0.4068
 4254TIP3    H134321   1.110   2.486   8.464  2.7114 -0.2306  0.3505
 4254TIP3    H234322   1.018   2.449   8.578 -0.8276  1.3520 -1.8122
 4255TIP3   OH234323   0.427   2.223   8.403  0.1191 -0.1739  0.1659
 4255TIP3    H134324   0.410   2.129   8.410 -2.9514  0.0552 -2.0682
 4255TIP3    H234325   0.355   2.264   8.451  0.6310  1.0182 -0.0595
 4256TIP3   OH234326   1.877   0.581   1.969 -0.1644 -0.1320 -0.1753
 4256TIP3    H134327   1.856   0.488   1.977 -1.5156  0.1470 -0.2060
 4256TIP3    H234328   1.963   0.590   2.010 -0.9406 -1.0345  1.8084
 4257TIP3   OH234329   4.641   4.325   1.521 -0.2152 -0.3015 -0.7988
 4257TIP3    H134330   4.572   4.342   1.584 -2.1707 -1.7573 -2.4150
 4257TIP3    H234331   4.681   4.410   1.504 -2.3573  0.8037 -0.6049
 4258TIP3   OH234332   1.079   6.520   7.551  0.6839  0.4393  0.6335
 4258TIP3    H134333   1.084   6.433   7.510 -0.3118  0.2752  0.8101
 4258TIP3    H234334   1.131   6.512   7.631  1.3600  0.2868  0.1816
 4259TIP3   OH234335   2.462   1.995   6.690 -0.1771  0.1458 -0.1322
 4259TIP3    H134336   2.514   1.915   6.696 -1.3144 -0.6824 -0.8604
 4259TIP3    H234337   2.505   2.046   6.621  0.6032  0.2259  0.3949
 4260TIP3   OH234338   2.945   5.386   6.971  0.2268 -0.0865 -0.3422
 4260TIP3    H134339   2.892   5.436   6.909 -0.6802  0.0887  0.5546
 4260TIP3    H234340   2.885   5.321   7.007  0.1735  1.0908  1.8162
 4261TIP3   OH234341   6.553   3.867   1.052 -0.6198 -0.5386 -0.6064
 4261TIP3    H134342   6.595   3.935   1.104 -2.6178  0.8504 -0.6937
 4261TIP3    H234343   6.602   3.865   0.970  0.3802 -0.2664 -0.0287
 4262TIP3   OH234344   2.208   4.927   0.173  0.5233  0.2394 -0.0791
 4262TIP3    H134345   2.302   4.912   0.169  0.6626  1.1629 -0.6931
 4262TIP3    H234346   2.196   4.985   0.249  0.1514 -1.6990  1.4331
 4263TIP3   OH234347   3.710   1.000   7.391  0.1105 -0.5314 -0.0948
 4263TIP3    H134348   3.756   1.081   7.412 -1.2916  0.1120  0.6944
 4263TIP3    H234349   3.628   1.006   7.441 -1.5222 -0.9052 -2.5426
 4264TIP3   OH234350   1.754   5.863   0.963 -0.2408  0.3379  0.4177
 4264TIP3    H134351   1.790   5.914   1.036  1.6914  1.0095 -0.9155
 4264TIP3    H234352   1.722   5.929   0.901 -2.6829 -0.2317  0.9547
 4265TIP3   OH234353   0.216   2.777   0.278 -0.6466 -0.2089 -0.3980
 4265TIP3    H134354   0.159   2.850   0.255 -0.4046  0.2738  0.4729
 4265TIP3    H234355   0.303   2.816   0.290 -0.4880 -0.6521 -0.0380
 4266TIP3   OH234356   4.885   0.570   1.363  0.0030  0.2302  0.4045
 4266TIP3    H134357   4.964   0.611   1.328  0.2832 -0.9637 -0.4049
 4266TIP3    H234358   4.913   0.531   1.446  1.0767 -2.6940 -1.1950
 4267TIP3   OH234359   2.930   2.151   2.114  0.5293 -0.7020  0.0894
 4267TIP3    H134360   2.847   2.191   2.142  1.0127 -0.3739  1.1233
 4267TIP3    H234361   2.993   2.224   2.117  0.8911 -0.9869 -0.5175
 4268TIP3   OH234362   2.650   0.475   1.330 -0.2736 -0.0615  0.5168
 4268TIP3    H134363   2.570   0.524   1.353  0.5285  0.9752  1.1848
 4268TIP3    H234364   2.670   0.502   1.241 -0.3710  0.0828  0.5377
 4269TIP3   OH234365   4.820   4.357   0.448  0.2725 -0.6702  0.2099
 4269TIP3    H134366   4.745   4.334   0.393  0.6110 -1.4529  0.0704
 4269TIP3    H234367   4.809   4.306   0.528  0.9453 -1.2119 -0.0352
 4270TIP3   OH234368   1.285   3.473   2.601 -0.7119 -0.0726 -0.5177
 4270TIP3    H134369   1.219   3.454   2.535 -0.6733  0.0781 -0.6002
 4270TIP3    H234370   1.346   3.533   2.558  1.1694 -2.5273 -1.4721
 4271TIP3   OH234371   1.004   0.482   1.076  0.4474  0.1359 -0.5499
 4271TIP3    H134372   1.008   0.468   1.171 -1.1666 -1.3949 -0.6579
 4271TIP3    H234373   1.079   0.539   1.057  0.0917  1.5086  1.8004
 4272TIP3   OH234374   6.358   5.020   0.724 -0.2284  0.2073  0.5053
 4272TIP3    H134375   6.314   4.991   0.644  0.2388 -0.3503  0.4452
 4272TIP3    H234376   6.380   5.112   0.708 -1.8193  0.6521  0.7391
 4273TIP3   OH234377   6.513   2.380   6.142 -0.1720  0.2621 -0.0545
 4273TIP3    H134378   6.597   2.412   6.109 -1.1512  1.3400 -1.5916
 4273TIP3    H234379   6.508   2.289   6.110  1.0006 -0.3070  1.2608
 4274TIP3   OH234380   4.562   0.217   8.674  0.5500 -0.3706 -0.1581
 4274TIP3    H134381   4.612   0.294   8.700  3.2050 -2.1451  0.3989
 4274TIP3    H234382   4.490   0.252   8.621  2.9020  2.3372 -1.8738
 4275TIP3   OH234383   6.791   4.783   1.631 -0.0990 -0.1821 -0.7424
 4275TIP3    H134384   6.870   4.753   1.676  0.3262  1.6106 -0.2450
 4275TIP3    H234385   6.823   4.831   1.554 -0.7489 -0.5109 -1.2314
 4276TIP3   OH234386   1.817   6.350   1.293 -0.0649 -0.3120 -0.6844
 4276TIP3    H134387   1.877   6.281   1.320  0.2956  0.5992  1.0457
 4276TIP3    H234388   1.766   6.312   1.222  1.8085 -1.4903 -1.4863
 4277TIP3   OH234389   3.528   0.693   7.763  0.0631  0.7967 -0.0043
 4277TIP3    H134390   3.472   0.769   7.774 -1.8109 -0.3293 -1.2517
 4277TIP3    H234391   3.478   0.620   7.800  2.2082  0.2518  2.0389
 4278TIP3   OH234392   4.742   4.509   1.031  0.0607 -0.5833  0.0545
 4278TIP3    H134393   4.671   4.549   1.081  1.1656 -0.6798  1.8017
 4278TIP3    H234394   4.805   4.581   1.019 -0.8690 -0.1362 -2.6652
 4279TIP3   OH234395   1.311   2.020   7.931  0.2135  0.4801  0.0107
 4279TIP3    H134396   1.350   1.972   7.857  1.2846  1.3692 -0.0212
 4279TIP3    H234397   1.268   1.952   7.982  1.1981 -0.4548 -0.3504
 4280TIP3   OH234398   1.674   0.045   0.092  0.5691  0.5390 -0.0054
 4280TIP3    H134399   1.625   0.101   0.152 -0.8746 -0.5418 -0.1322
 4280TIP3    H234400   1.715  -0.020   0.148  1.2975  1.0187  0.0300
 4281TIP3   OH234401   3.300   5.835   6.695  0.2090 -0.4238 -0.3686
 4281TIP3    H134402   3.369   5.888   6.655 -1.0085  0.4742 -1.3211
 4281TIP3    H234403   3.283   5.766   6.631  2.4049 -2.6356  1.2228
 4282TIP3   OH234404   5.919   6.564   7.339 -0.4460  0.0456 -0.3727
 4282TIP3    H134405   5.946   6.484   7.294 -1.0605 -1.0060  1.0489
 4282TIP3    H234406   5.876   6.533   7.419  1.2926  1.8492  1.3511
 4283TIP3   OH234407   1.278   5.944   7.530 -0.2814  0.6566  0.3925
 4283TIP3    H134408   1.357   5.997   7.537  0.2470 -0.0962  0.1854
 4283TIP3    H234409   1.275   5.893   7.611  0.3656 -0.5451 -0.3014
 4284TIP3   OH234410   1.847   0.178   0.360  0.0943  0.2016 -0.9104
 4284TIP3    H134411   1.766   0.218   0.390 -0.8470 -1.7040 -0.8008
 4284TIP3    H234412   1.904   0.252   0.341 -1.1183  1.5693  0.4703
 4285TIP3   OH234413   0.176   0.405   6.919  0.0288 -0.0626 -0.0204
 4285TIP3    H134414   0.199   0.335   6.859 -1.2625  1.2466 -2.1498
 4285TIP3    H234415   0.166   0.362   7.004  0.0883 -2.2865 -1.0915
 4286TIP3   OH234416   2.570   2.945   1.289  1.0187  0.1735  0.5555
 4286TIP3    H134417   2.483   2.980   1.309  0.0472 -0.8838 -1.4615
 4286TIP3    H234418   2.586   2.880   1.358  1.0751  1.6404  1.9964
 4287TIP3   OH234419   0.080   5.477   0.087 -0.8351 -0.3720 -0.5478
 4287TIP3    H134420   0.114   5.517   0.167 -1.4359 -0.5521 -0.1908
 4287TIP3    H234421   0.148   5.492   0.022  0.1256 -1.1227  0.2438
 4288TIP3   OH234422   3.848   1.716   0.357 -0.4533  0.1331 -0.1620
 4288TIP3    H134423   3.795   1.783   0.400 -1.3354  0.2916 -1.4384
 4288TIP3    H234424   3.917   1.764   0.313  0.9454 -0.0903  1.6827
 4289TIP3   OH234425   3.136   1.937   0.901  0.5490 -0.5752  0.3980
 4289TIP3    H134426   3.075   1.867   0.877 -0.7015  0.9451 -1.0466
 4289TIP3    H234427   3.083   2.016   0.905  2.1226  0.5118  0.9378
 4290TIP3   OH234428   6.768   6.600   7.763  0.4077 -0.2179  0.3462
 4290TIP3    H134429   6.791   6.544   7.689  0.0092  0.1394 -0.0534
 4290TIP3    H234430   6.684   6.640   7.738  0.1468 -0.2836  1.0946
 4291TIP3   OH234431   5.992   2.773   6.891  0.2776  0.3330  0.4817
 4291TIP3    H134432   6.042   2.849   6.861  2.1368 -0.5710  1.1157
 4291TIP3    H234433   6.045   2.698   6.863 -1.4157 -0.7413  0.0287
 4292TIP3   OH234434   3.301   5.693   6.454  0.5805 -0.0337 -0.4278
 4292TIP3    H134435   3.384   5.730   6.422  0.7734 -1.1399 -1.2729
 4292TIP3    H234436   3.251   5.673   6.375 -0.0979 -0.2690  0.0444
 4293TIP3   OH234437   0.559   4.458   8.023  0.3862  0.0812 -0.3066
 4293TIP3    H134438   0.471   4.438   7.992 -0.0583 -0.4009  1.1858
 4293TIP3    H234439   0.602   4.373   8.030  0.3005  0.1147  0.8382
 4294TIP3   OH234440   3.890   0.549   2.551  0.4104  0.8385 -0.7280
 4294TIP3    H134441   3.915   0.637   2.581  0.2802 -0.0484  2.3688
 4294TIP3    H234442   3.968   0.495   2.567  0.3355  0.2539 -2.1517
 4295TIP3   OH234443   5.988   0.525   8.218  0.2743 -0.4631 -0.9659
 4295TIP3    H134444   6.020   0.572   8.295 -0.9626 -0.6065 -0.3246
 4295TIP3    H234445   6.015   0.579   8.144 -0.0585  0.6481 -0.3167
 4296TIP3   OH234446   4.975   4.361   1.005 -0.1193 -0.6426  0.3346
 4296TIP3    H134447   4.983   4.378   1.099  1.2526 -0.4637  0.2041
 4296TIP3    H234448   4.881   4.366   0.988 -0.4326 -1.0458  1.7592
 4297TIP3   OH234449   2.753   5.739   7.377  1.0001 -0.1737 -0.1039
 4297TIP3    H134450   2.713   5.815   7.335  2.2965  1.4229  1.3758
 4297TIP3    H234451   2.823   5.712   7.318  0.5159 -0.2691 -0.6484
 4298TIP3   OH234452   1.533   1.108   8.203  0.2283  0.6913  0.2588
 4298TIP3    H134453   1.490   1.149   8.128  1.1683 -0.0903 -0.7525
 4298TIP3    H234454   1.591   1.042   8.164 -0.7327 -1.1464  1.7627
 4299TIP3   OH234455   2.612   3.111   7.572  0.3357  0.4582 -0.3727
 4299TIP3    H134456   2.662   3.088   7.493 -0.1426 -0.2501 -0.4817
 4299TIP3    H234457   2.677   3.108   7.642  0.9003  1.7253 -0.8099
 4300TIP3   OH234458   5.158   3.652   1.747 -0.5278 -0.5954 -0.3139
 4300TIP3    H134459   5.073   3.695   1.733 -0.1416  0.3326  0.1454
 4300TIP3    H234460   5.149   3.609   1.831  0.1106  1.2026  0.7302
 4301TIP3   OH234461   3.460   3.516   6.451 -0.1986 -0.3280  0.1067
 4301TIP3    H134462   3.463   3.612   6.453  0.8243 -0.3562  1.4804
 4301TIP3    H234463   3.549   3.490   6.427 -0.9445 -0.9504 -2.2009
 4302TIP3   OH234464   5.840   3.130   7.439  0.7467  0.4589  0.0310
 4302TIP3    H134465   5.794   3.178   7.508  1.1628  0.8581  0.0371
 4302TIP3    H234466   5.857   3.044   7.476 -0.2468  0.2051 -0.0737
 4303TIP3   OH234467   2.581   3.974   0.110  0.0517  0.3529 -0.0150
 4303TIP3    H134468   2.604   3.987   0.202 -1.5300 -1.9288  0.7987
 4303TIP3    H234469   2.506   3.916   0.113  0.5648 -0.5702 -2.8122
 4304TIP3   OH234470   4.781   2.781   1.364  0.0270 -0.1822  0.1893
 4304TIP3    H134471   4.721   2.785   1.439 -0.9306 -2.1252 -0.4005
 4304TIP3    H234472   4.723   2.786   1.288  0.8496  0.2452 -0.4141
 4305TIP3   OH234473   6.527   2.162   0.668  0.2258 -0.0752  0.3798
 4305TIP3    H134474   6.433   2.145   0.655  0.6172 -0.8231 -1.9751
 4305TIP3    H234475   6.557   2.197   0.584  1.5256  3.0992  1.9851
 4306TIP3   OH234476   1.059   1.214   7.102  0.4065  0.3102 -0.0781
 4306TIP3    H134477   1.142   1.220   7.150  0.0932 -0.2614  0.5478
 4306TIP3    H234478   0.995   1.186   7.168 -0.7079  2.6419 -0.0962
 4307TIP3   OH234479   5.281   2.327   8.598 -0.1550  0.3825 -0.0393
 4307TIP3    H134480   5.242   2.328   8.511  0.2604  0.4560 -0.2246
 4307TIP3    H234481   5.209   2.349   8.657 -0.4506  0.2703 -0.3570
 4308TIP3   OH234482   4.530   5.838   1.252 -0.3618  0.0558  0.2128
 4308TIP3    H134483   4.618   5.817   1.281 -0.3004 -0.8722 -0.5980
 4308TIP3    H234484   4.503   5.762   1.200 -0.3787  1.6782 -2.3278
 4309TIP3   OH234485   0.053   2.827   1.190 -0.0843 -0.3990  0.2833
 4309TIP3    H134486   0.039   2.774   1.111  0.6545  0.3162 -0.3402
 4309TIP3    H234487  -0.026   2.814   1.242 -1.3902  0.5193 -1.3839
 4310TIP3   OH234488   4.162   3.525   7.668 -0.3062 -0.1969  0.5492
 4310TIP3    H134489   4.243   3.572   7.687 -0.6632  0.0103  1.6210
 4310TIP3    H234490   4.186   3.433   7.674  0.4955 -0.2538 -1.9602
 4311TIP3   OH234491   2.359   3.617   8.406  0.0274  0.4284 -0.2619
 4311TIP3    H134492   2.308   3.548   8.446 -0.3507  1.9146  1.9871
 4311TIP3    H234493   2.302   3.652   8.337 -0.2836 -0.5969 -0.5466
 4312TIP3   OH234494   4.340   1.710   8.541 -0.2513 -0.0039  0.6437
 4312TIP3    H134495   4.396   1.746   8.472  0.6645 -2.6982 -0.1414
 4312TIP3    H234496   4.401   1.662   8.598 -1.3563 -0.1293  1.7552
 4313TIP3   OH234497   1.303   2.503   7.929 -0.0093  0.1516 -0.2875
 4313TIP3    H134498   1.346   2.420   7.907  0.5111  0.0585  0.9749
 4313TIP3    H234499   1.331   2.563   7.860  2.0343  0.0291  0.3467
 4314TIP3   OH234500   2.288   0.535   7.303  0.4641  0.0303 -0.2631
 4314TIP3    H134501   2.279   0.567   7.213  0.0341 -2.1285 -1.0583
 4314TIP3    H234502   2.266   0.610   7.357  0.5710  1.3548 -1.9601
 4315TIP3   OH234503   2.010   3.864   8.510  0.5414 -0.0402 -0.1537
 4315TIP3    H134504   2.011   3.960   8.503  0.9283  0.1090  1.5735
 4315TIP3    H234505   1.929   3.838   8.465  1.0168  0.9675 -1.6942
 4316TIP3   OH234506   0.782   4.104   6.766 -0.4243 -0.5692  0.0268
 4316TIP3    H134507   0.835   4.044   6.714 -0.1191 -0.2300 -0.0574
 4316TIP3    H234508   0.845   4.167   6.800 -0.7444 -0.2986  0.1147
 4317TIP3   OH234509   6.592   2.851   6.777 -0.7704 -0.2916  0.3592
 4317TIP3    H134510   6.542   2.879   6.854 -1.3393 -0.8047  0.1768
 4317TIP3    H234511   6.526   2.824   6.714 -0.3071  0.2383 -0.3636
 4318TIP3   OH234512   2.290   0.536   8.034 -0.1201 -0.0304  0.3127
 4318TIP3    H134513   2.200   0.566   8.021  0.6988  1.6618 -2.4304
 4318TIP3    H234514   2.317   0.504   7.948  1.4715 -1.8515  1.4361
 4319TIP3   OH234515   2.835   0.593   1.486  0.1987  0.0716  0.0580
 4319TIP3    H134516   2.785   0.608   1.565  2.1512  2.8998  0.9133
 4319TIP3    H234517   2.770   0.597   1.415 -1.3349 -0.8393  1.3516
 4320TIP3   OH234518   2.333   1.044   6.118  0.6794 -0.6600 -0.0545
 4320TIP3    H134519   2.303   1.125   6.076 -3.3366 -0.1495  3.1155
 4320TIP3    H234520   2.319   0.976   6.053 -1.6931  0.5116 -0.8883
 4321TIP3   OH234521   3.979   5.872   7.974  0.0094 -0.0078 -0.6939
 4321TIP3    H134522   4.006   5.955   7.935 -1.2834  1.8733  2.0045
 4321TIP3    H234523   3.884   5.869   7.961 -0.0877 -0.5869  0.0642
 4322TIP3   OH234524   4.576   3.223   2.340  0.4467 -0.2956  0.0523
 4322TIP3    H134525   4.629   3.150   2.372  1.4610  1.1629  1.9297
 4322TIP3    H234526   4.502   3.228   2.401 -0.5448 -0.7460 -1.0620
 4323TIP3   OH234527   5.176   4.012   8.002  0.0554  0.2025  0.1775
 4323TIP3    H134528   5.250   4.039   7.948 -0.4743  0.7368 -0.2996
 4323TIP3    H234529   5.164   4.085   8.063 -0.4949  0.4273 -0.1923
 4324TIP3   OH234530   4.450   1.539   1.327  0.1162  0.2277  0.0587
 4324TIP3    H134531   4.447   1.501   1.239  0.6459  2.4260 -0.9846
 4324TIP3    H234532   4.363   1.525   1.363 -0.5531  0.5201 -1.3904
 4325TIP3   OH234533   1.508   3.295   2.280  0.1404 -0.1668  0.7822
 4325TIP3    H134534   1.422   3.257   2.297  0.8093 -2.5900 -0.7640
 4325TIP3    H234535   1.552   3.292   2.365 -0.5431 -0.9394  1.1284
 4326TIP3   OH234536   3.576   3.267   0.794  0.6383 -0.0873  0.3551
 4326TIP3    H134537   3.485   3.254   0.768  0.5536  0.5518  0.3081
 4326TIP3    H234538   3.598   3.354   0.761  0.7874  0.4037  1.7164
 4327TIP3   OH234539   2.715   5.665   1.403 -0.5095 -0.2320 -0.2077
 4327TIP3    H134540   2.692   5.625   1.487  0.7860  1.3721  0.9730
 4327TIP3    H234541   2.649   5.632   1.342 -2.9939  0.4332  1.9481
 4328TIP3   OH234542   5.704   5.605   8.542 -0.0001 -0.2230  0.1784
 4328TIP3    H134543   5.662   5.538   8.487  1.4524 -0.8090 -0.2668
 4328TIP3    H234544   5.727   5.675   8.481  0.3275 -0.2267  0.2985
 4329TIP3   OH234545   5.780   2.161   6.994  0.3513 -0.1026 -0.0138
 4329TIP3    H134546   5.870   2.190   6.981  0.2354  0.4300  0.3031
 4329TIP3    H234547   5.779   2.127   7.084  0.4539 -0.9913 -0.3385
 4330TIP3   OH234548   2.479   4.740   1.190  0.0920 -0.0874  0.0690
 4330TIP3    H134549   2.520   4.779   1.114 -1.6164  0.8749 -0.4063
 4330TIP3    H234550   2.385   4.743   1.172 -0.3284 -0.4462  1.9196
 4331TIP3   OH234551   3.908   2.367   1.692 -0.2714 -0.2850 -0.2302
 4331TIP3    H134552   3.844   2.305   1.727  0.5302  0.1203  2.1222
 4331TIP3    H234553   3.897   2.446   1.744  0.1270  0.8731 -1.8144
 4332TIP3   OH234554   4.604   1.815   6.966  0.2715  0.6472  0.4649
 4332TIP3    H134555   4.667   1.815   7.039 -0.1677  0.8196  0.8449
 4332TIP3    H234556   4.611   1.727   6.929  0.9313  0.7481  0.3342
 4333TIP3   OH234557   6.783   4.416   0.433  0.0153 -0.6215  0.2002
 4333TIP3    H134558   6.820   4.504   0.436  3.3053 -1.6971 -2.2986
 4333TIP3    H234559   6.847   4.361   0.477 -1.5140 -1.9399  0.8800
 4334TIP3   OH234560   2.917   3.242   8.426 -0.7316 -0.0496 -0.0029
 4334TIP3    H134561   2.835   3.265   8.469 -0.9471 -0.6747 -0.0770
 4334TIP3    H234562   2.891   3.223   8.335 -0.5883 -0.7862  0.1095
 4335TIP3   OH234563   2.352   0.702   1.599  0.7829  0.0801 -0.8377
 4335TIP3    H134564   2.382   0.717   1.688  0.2564 -0.2908 -0.5971
 4335TIP3    H234565   2.263   0.738   1.597 -0.8542 -3.4731 -0.0369
 4336TIP3   OH234566   1.351   6.347   0.959  0.1910  0.5868 -0.0503
 4336TIP3    H134567   1.386   6.325   0.873 -0.6501  0.6086 -0.3995
 4336TIP3    H234568   1.319   6.436   0.951  1.2050  1.0398  0.6356
 4337TIP3   OH234569   6.354   4.419   1.660 -0.7052  0.3105 -0.3219
 4337TIP3    H134570   6.339   4.438   1.567 -1.0218  0.5851 -0.2185
 4337TIP3    H234571   6.360   4.505   1.701 -0.9523  0.1883 -0.0292
 4338TIP3   OH234572   4.474   3.950   1.222 -0.7522 -0.0791 -0.0571
 4338TIP3    H134573   4.475   3.909   1.309 -3.1614  2.0435  1.1335
 4338TIP3    H234574   4.566   3.961   1.200 -0.0128 -0.0669  2.6014
 4339TIP3   OH234575   5.030   0.171   7.018  0.0495  0.5827  0.2138
 4339TIP3    H134576   4.953   0.227   7.008 -0.2447  0.5564  1.9493
 4339TIP3    H234577   4.997   0.083   7.000  0.1742  0.7743 -1.0618
 4340TIP3   OH234578   6.412   3.055   1.501 -0.0134  0.1682  0.1008
 4340TIP3    H134579   6.341   3.027   1.442 -0.5256  0.8251  0.3861
 4340TIP3    H234580   6.387   3.020   1.587  0.1106  0.2374  0.1652
 4341TIP3   OH234581   4.524   6.699   0.117 -0.3596 -0.3280 -0.7106
 4341TIP3    H134582   4.437   6.678   0.083 -0.5478  0.0374 -0.4525
 4341TIP3    H234583   4.510   6.771   0.178 -0.0523 -1.0984  0.3021
 4342TIP3   OH234584   1.273   5.567   0.271 -0.1438 -0.4862 -0.2441
 4342TIP3    H134585   1.342   5.632   0.260 -0.5487  0.3369  1.6329
 4342TIP3    H234586   1.309   5.487   0.232  0.7587  0.5927 -1.7073
 4343TIP3   OH234587   4.018   4.943   7.295  0.7899  0.1148  0.3671
 4343TIP3    H134588   4.039   4.913   7.383 -0.4595  0.3562  0.7730
 4343TIP3    H234589   3.966   5.022   7.309  0.4414  0.0670 -0.5858
 4344TIP3   OH234590   0.698   2.501   0.755  0.5127 -0.7523 -0.1638
 4344TIP3    H134591   0.783   2.545   0.746  0.7228 -0.1766  3.3210
 4344TIP3    H234592   0.718   2.409   0.739  1.3975 -0.4040 -1.1912
 4345TIP3   OH234593   5.844   1.344   7.459 -0.4726  0.1767 -0.6447
 4345TIP3    H134594   5.797   1.306   7.533 -0.0820  0.7376 -0.0908
 4345TIP3    H234595   5.840   1.278   7.391  0.0027 -0.7688  0.2205
 4346TIP3   OH234596   4.958   4.336   0.179 -0.5058  0.0928 -0.1457
 4346TIP3    H134597   4.923   4.410   0.229  0.2630  1.2194 -1.2062
 4346TIP3    H234598   5.002   4.281   0.244  0.6367  1.6141  0.4143
 4347TIP3   OH234599   0.310   2.372   0.752  0.3326 -0.0614 -0.1007
 4347TIP3    H134600   0.359   2.304   0.707 -0.6247  0.3729 -1.8826
 4347TIP3    H234601   0.361   2.391   0.831  2.7456  0.0224 -1.5999
 4348TIP3   OH234602   2.280   1.587   1.599  0.9305 -0.0314 -0.1715
 4348TIP3    H134603   2.279   1.515   1.663 -1.0503  0.8124  0.8369
 4348TIP3    H234604   2.334   1.654   1.640 -0.2331  0.4591  0.6190
 4349TIP3   OH234605   5.196   1.618   1.539 -0.1788 -0.6227 -0.1545
 4349TIP3    H134606   5.228   1.544   1.590  0.0982 -0.7064 -0.4509
 4349TIP3    H234607   5.264   1.685   1.551 -1.3352  0.3083  1.7308
 4350TIP3   OH234608   3.006   0.824   1.987 -0.3908  0.1802  0.0102
 4350TIP3    H134609   3.072   0.876   2.032 -1.6084  1.0112  0.8646
 4350TIP3    H234610   3.054   0.746   1.957  1.3004  1.4352 -0.6932
 4351TIP3   OH234611   2.731   4.442   8.006  0.3202 -0.3425 -0.0240
 4351TIP3    H134612   2.660   4.470   8.064 -0.6290  1.1716 -1.7741
 4351TIP3    H234613   2.687   4.423   7.923  1.7479 -1.3965 -0.5726
 4352TIP3   OH234614   2.235   0.105   6.566 -0.2461  0.2336 -0.0577
 4352TIP3    H134615   2.302   0.090   6.633  0.2677  0.0072 -0.6036
 4352TIP3    H234616   2.260   0.189   6.527 -0.4988  0.3277 -0.0169
 4353TIP3   OH234617   3.696   5.057   0.784 -0.3897 -0.3419  0.5858
 4353TIP3    H134618   3.613   5.101   0.763  1.5584  2.1317 -3.0458
 4353TIP3    H234619   3.719   5.089   0.871 -2.6338 -0.1373  1.1527
 4354TIP3   OH234620   1.115   4.057   7.928  0.2163  0.2821 -0.2927
 4354TIP3    H134621   1.173   4.015   7.991 -1.8940 -0.4942  1.2493
 4354TIP3    H234622   1.085   3.985   7.872 -2.3171 -0.1425  1.4708
 4355TIP3   OH234623   3.135   5.002   1.918 -0.3194 -0.1519 -0.1149
 4355TIP3    H134624   3.101   4.913   1.914  0.7903 -0.5887  0.0001
 4355TIP3    H234625   3.159   5.015   2.009  0.9283 -0.2925 -0.3978
 4356TIP3   OH234626   6.448   6.745   8.027 -0.4071  0.3207  0.2901
 4356TIP3    H134627   6.508   6.815   8.052 -0.1162  0.3648 -0.5009
 4356TIP3    H234628   6.363   6.788   8.018 -0.5041  0.3157  1.1062
 4357TIP3   OH234629   3.338   3.914   2.126 -0.0777 -0.4903  0.2043
 4357TIP3    H134630   3.379   4.001   2.124  2.0179 -1.3932  0.8944
 4357TIP3    H234631   3.288   3.913   2.207  2.1457 -0.7998  1.6807
 4358TIP3   OH234632   0.344   5.892   7.662  0.0392  0.6645 -0.5284
 4358TIP3    H134633   0.342   5.836   7.584  0.0125 -0.5074  0.2823
 4358TIP3    H234634   0.287   5.965   7.640 -0.3651  0.1036 -1.4247
 4359TIP3   OH234635   3.121   0.422   0.408  0.9148  0.4899  0.1043
 4359TIP3    H134636   3.151   0.434   0.498  0.9024 -0.4444  0.2453
 4359TIP3    H234637   3.124   0.327   0.394  0.1552  0.5562 -0.6139
 4360TIP3   OH234638   3.546   4.653   2.229  0.2926  0.1470  0.0286
 4360TIP3    H134639   3.497   4.571   2.236  0.2482  0.2709  1.4838
 4360TIP3    H234640   3.485   4.714   2.189 -0.4159  0.0262  0.8938
 4361TIP3   OH234641   0.159   3.329   1.934 -0.2307  0.9220 -0.1933
 4361TIP3    H134642   0.164   3.235   1.954 -0.2818  0.8640 -0.4460
 4361TIP3    H234643   0.108   3.333   1.852  2.2252  0.9540 -1.8211
 4362TIP3   OH234644   0.762   3.272   7.364  0.8093  0.9106 -0.1355
 4362TIP3    H134645   0.845   3.225   7.358 -0.1883 -0.9024 -0.7373
 4362TIP3    H234646   0.779   3.357   7.323  1.7183 -0.4307 -2.8062
 4363TIP3   OH234647   0.553   6.432   7.205  0.3573  0.1138  0.2543
 4363TIP3    H134648   0.608   6.373   7.258  1.8623  0.8558 -0.3996
 4363TIP3    H234649   0.539   6.383   7.123  0.2243  0.0088  0.3393
 4364TIP3   OH234650   0.114   6.422   0.645  0.9082  0.3527  0.4379
 4364TIP3    H134651   0.120   6.351   0.708  0.2251  0.8212  1.0579
 4364TIP3    H234652   0.103   6.501   0.699  1.1812  0.8631 -0.2439
 4365TIP3   OH234653   6.280   3.329   8.715 -0.1288 -0.4448 -0.7472
 4365TIP3    H134654   6.297   3.410   8.763 -0.0942 -1.2795  0.6704
 4365TIP3    H234655   6.185   3.327   8.705 -0.4580 -1.6980  1.9330
 4366TIP3   OH234656   0.506   0.112   7.843 -0.0959 -0.1370  0.3006
 4366TIP3    H134657   0.515   0.030   7.892 -1.1951  0.1473  0.9954
 4366TIP3    H234658   0.417   0.142   7.861  0.1518  1.0088 -0.2696
 4367TIP3   OH234659   2.348   5.700   6.872  0.1724 -0.0460  0.0454
 4367TIP3    H134660   2.282   5.757   6.912  0.9997  1.3330 -0.4878
 4367TIP3    H234661   2.402   5.759   6.820  0.4214 -1.4883 -1.4020
 4368TIP3   OH234662   2.830   6.687   7.946  0.7469  0.2941 -0.2096
 4368TIP3    H134663   2.915   6.730   7.951  0.7003  0.4489 -0.7175
 4368TIP3    H234664   2.788   6.725   7.869  0.5336 -0.3487 -0.4219
 4369TIP3   OH234665   4.336   0.636   0.607  0.0712 -0.1946  0.7031
 4369TIP3    H134666   4.369   0.575   0.541  0.8380 -1.5833  2.2927
 4369TIP3    H234667   4.402   0.633   0.677 -0.3375  1.7977  1.2232
 4370TIP3   OH234668   4.572   1.094   1.234 -0.3482 -0.5884  0.3404
 4370TIP3    H134669   4.529   1.124   1.154 -0.0017  0.5422  0.5643
 4370TIP3    H234670   4.634   1.028   1.205 -1.8836 -1.9287 -0.0455
 4371TIP3   OH234671   2.474   3.352   0.827  0.1038 -0.1019 -0.2112
 4371TIP3    H134672   2.471   3.393   0.741  0.0292  0.0528 -0.1342
 4371TIP3    H234673   2.472   3.425   0.889 -0.3909 -0.2290 -0.0699
 4372TIP3   OH234674   1.423   0.012   7.243 -0.1739  0.3560  0.1226
 4372TIP3    H134675   1.424   0.102   7.212  0.2783 -0.4185 -2.3240
 4372TIP3    H234676   1.333  -0.018   7.229  0.1675 -0.1698 -1.0655
 4373TIP3   OH234677   5.812   2.624   6.550 -0.7557 -0.2022 -0.2714
 4373TIP3    H134678   5.768   2.544   6.522 -1.1788  0.4035 -1.4130
 4373TIP3    H234679   5.903   2.599   6.564 -1.1584 -1.1672  0.7210
 4374TIP3   OH234680   2.966   5.162   1.428 -0.2360 -0.1090 -0.0321
 4374TIP3    H134681   2.871   5.159   1.438 -0.2739  0.5532 -0.1511
 4374TIP3    H234682   2.996   5.077   1.461 -0.9014 -0.5083 -0.4308
 4375TIP3   OH234683   3.383   4.098   0.136  0.3906 -0.0916 -0.1047
 4375TIP3    H134684   3.380   4.117   0.043 -1.0059 -0.2637 -0.1131
 4375TIP3    H234685   3.339   4.173   0.177 -2.7661 -1.8411  0.0598
 4376TIP3   OH234686   0.463   6.255   1.549 -0.3238  0.1086 -0.5578
 4376TIP3    H134687   0.499   6.317   1.486 -0.1015 -0.2195 -0.7540
 4376TIP3    H234688   0.425   6.185   1.495 -0.0769 -0.2050 -0.3320
 4377TIP3   OH234689   4.649   2.718   0.797  0.6888  0.2147  0.5654
 4377TIP3    H134690   4.570   2.684   0.839  0.7876 -0.9714 -0.1703
 4377TIP3    H234691   4.691   2.771   0.865 -2.1129  3.2405  0.1828
 4378TIP3   OH234692   2.883   4.742   6.491  0.2547  0.6095  0.2061
 4378TIP3    H134693   2.920   4.677   6.432  0.9107  1.4148 -0.2757
 4378TIP3    H234694   2.868   4.694   6.573  0.7981 -0.1232 -0.1158
 4379TIP3   OH234695   2.717   4.145   8.082  0.6627  0.2941  0.3486
 4379TIP3    H134696   2.712   4.149   7.987 -1.4854 -0.2076  0.3905
 4379TIP3    H234697   2.805   4.113   8.100  0.2824 -2.1569 -1.5954
 4380TIP3   OH234698   0.885   1.316   1.693  0.6371 -0.8960 -0.3435
 4380TIP3    H134699   0.932   1.263   1.758  0.1087 -1.2862 -0.2701
 4380TIP3    H234700   0.947   1.327   1.621  0.9594 -1.1231 -0.1034
 4381TIP3   OH234701   4.282   3.848   6.670 -0.7308  0.5052 -0.0188
 4381TIP3    H134702   4.246   3.759   6.668  1.3441 -0.3940 -0.1892
 4381TIP3    H234703   4.296   3.870   6.578  1.3364 -0.1706  0.0807
 4382TIP3   OH234704   4.876   0.340   1.131 -0.3998  0.1622 -0.2466
 4382TIP3    H134705   4.928   0.410   1.092 -0.3098 -0.3829 -1.1367
 4382TIP3    H234706   4.786   0.373   1.129 -0.3013  0.4334 -0.2350
 4383TIP3   OH234707   4.639   4.335   7.195 -0.2650  0.3747 -0.0118
 4383TIP3    H134708   4.610   4.267   7.255  0.2727  0.1738  0.0233
 4383TIP3    H234709   4.728   4.357   7.223  0.5912 -0.7961 -1.6370
 4384TIP3   OH234710   1.643   2.076   1.223 -0.0192 -0.3294  0.0112
 4384TIP3    H134711   1.715   2.072   1.286  0.5452  0.2198 -0.5818
 4384TIP3    H234712   1.608   1.987   1.220  0.2992 -0.4817  0.6883
 4385TIP3   OH234713   1.611   0.442   0.143 -0.1302 -1.4588  0.4642
 4385TIP3    H134714   1.602   0.427   0.237  0.8347  0.7744  0.9839
 4385TIP3    H234715   1.661   0.523   0.136 -1.7763 -0.5209 -1.9508
 4386TIP3   OH234716   4.252   3.836   1.931 -0.1591  0.6709  0.2808
 4386TIP3    H134717   4.271   3.865   1.841 -1.0349  1.3895  0.3056
 4386TIP3    H234718   4.272   3.913   1.985  1.3751 -0.0962  0.8378
 4387TIP3   OH234719   4.456   1.185   0.998 -0.2569 -0.3273  0.2879
 4387TIP3    H134720   4.364   1.211   0.999 -0.1746  0.0387 -0.7363
 4387TIP3    H234721   4.497   1.245   0.936  0.6603 -0.5318  0.6906
 4388TIP3   OH234722   6.286   5.737   0.857  0.1228 -0.1680 -0.1040
 4388TIP3    H134723   6.300   5.699   0.770 -2.0517 -3.6721  0.8729
 4388TIP3    H234724   6.325   5.673   0.917 -0.0956  1.2318  1.6050
 4389TIP3   OH234725   4.517   3.587   6.794  0.1786 -0.2100 -0.6835
 4389TIP3    H134726   4.450   3.573   6.727 -0.3748  0.1899 -0.2158
 4389TIP3    H234727   4.543   3.678   6.783 -1.4544  0.5200  1.0149
 4390TIP3   OH234728   4.350   3.074   8.659  0.5203  0.2942 -0.0021
 4390TIP3    H134729   4.421   3.110   8.606  1.0358 -0.9914 -0.2371
 4390TIP3    H234730   4.348   2.981   8.635  1.1457 -0.4873  2.5887
 4391TIP3   OH234731   6.091   6.469   1.945 -0.8154  0.1787 -0.0321
 4391TIP3    H134732   6.120   6.382   1.919 -0.4446  0.5227 -0.7818
 4391TIP3    H234733   6.000   6.473   1.915 -0.9465 -0.0801  0.3243
 4392TIP3   OH234734   2.379   1.021   8.201  0.1899 -0.0489 -0.0323
 4392TIP3    H134735   2.343   0.938   8.170  1.0862  0.1095 -1.6195
 4392TIP3    H234736   2.418   1.061   8.123  0.8636  1.2930  0.9465
 4393TIP3   OH234737   2.770   5.720   1.965  0.4602 -0.0117 -0.3588
 4393TIP3    H134738   2.740   5.637   2.001 -1.1376  0.0928 -1.3515
 4393TIP3    H234739   2.806   5.767   2.040 -1.7961 -0.2211  0.9539
 4394TIP3   OH234740   3.073   3.567   0.546  0.2717 -0.1170  0.0115
 4394TIP3    H134741   2.990   3.529   0.575  0.1760 -0.9968 -1.3652
 4394TIP3    H234742   3.068   3.659   0.574  0.1624 -0.8442  2.6673
 4395TIP3   OH234743   1.170   3.713   7.078 -0.3948  0.6426 -0.1063
 4395TIP3    H134744   1.256   3.672   7.065 -1.0103 -0.2902 -1.4416
 4395TIP3    H234745   1.171   3.789   7.021 -0.5479  0.5024 -0.2938
 4396TIP3   OH234746   1.418   4.392   0.916 -0.1022 -0.2756  0.6193
 4396TIP3    H134747   1.514   4.401   0.922  0.0290 -1.8351  1.1762
 4396TIP3    H234748   1.404   4.320   0.855 -0.8457 -1.5479  2.2310
 4397TIP3   OH234749   3.055   1.129   6.968 -0.0966 -0.1062 -0.0639
 4397TIP3    H134750   3.064   1.085   7.053 -1.9992  0.0970  0.2997
 4397TIP3    H234751   3.105   1.210   6.977  2.6477 -1.6528 -0.4063
 4398TIP3   OH234752   6.086   2.609   6.542 -0.1216  0.0604  0.4234
 4398TIP3    H134753   6.104   2.521   6.510  1.3179 -0.0499  1.4516
 4398TIP3    H234754   6.143   2.666   6.491 -0.1165  0.2518  0.6391
 4399TIP3   OH234755   3.880   4.794   1.004  0.1254 -0.3134 -0.2489
 4399TIP3    H134756   3.975   4.808   1.000  0.2385 -1.3313 -2.3418
 4399TIP3    H234757   3.867   4.739   1.081  1.2167 -0.0345  0.1501
 4400TIP3   OH234758   0.568   0.775   7.036  0.0823  0.0094 -0.0164
 4400TIP3    H134759   0.643   0.830   7.014  0.2802  0.1303  0.9150
 4400TIP3    H234760   0.538   0.741   6.952  1.3567 -0.2640 -0.3927
 4401TIP3   OH234761   4.051   4.874   6.904  0.9710  0.1852 -0.0051
 4401TIP3    H134762   3.990   4.830   6.845  1.2238  0.5293 -0.5279
 4401TIP3    H234763   4.108   4.924   6.846  1.3400  0.3779  0.5220
 4402TIP3   OH234764   0.650   6.277   8.684 -0.6407  0.3816  0.3825
 4402TIP3    H134765   0.638   6.357   8.634  1.6033  0.2306 -0.5082
 4402TIP3    H234766   0.611   6.296   8.769 -0.6118  2.2371  0.0243
 4403TIP3   OH234767   3.110   1.561   1.469 -0.5728  0.3503 -0.1058
 4403TIP3    H134768   3.131   1.479   1.424  0.0698  1.1646 -1.3574
 4403TIP3    H234769   3.121   1.541   1.562 -0.8736 -1.0971 -0.3635
 4404TIP3   OH234770   3.463   0.411   1.134  0.5776 -0.0901  0.0317
 4404TIP3    H134771   3.530   0.479   1.142  1.9740 -1.4997  0.8159
 4404TIP3    H234772   3.507   0.330   1.160 -1.4742 -1.0585  0.6970
 4405TIP3   OH234773   3.106   3.409   1.189 -0.1509 -0.1225  0.0429
 4405TIP3    H134774   3.139   3.343   1.251  1.3312 -0.2830 -0.8631
 4405TIP3    H234775   3.075   3.481   1.245 -0.7566 -1.1145  1.0112
 4406TIP3   OH234776   2.040   0.695   2.157  0.3352 -0.0113 -0.4056
 4406TIP3    H134777   2.069   0.655   2.239 -1.8236 -1.0917 -0.0731
 4406TIP3    H234778   2.112   0.681   2.096  1.6945  0.1645  1.0897
 4407TIP3   OH234779   1.986   6.356   7.287 -0.4413 -0.2183  0.6599
 4407TIP3    H134780   1.991   6.270   7.330  2.4310 -0.0858  0.7435
 4407TIP3    H234781   2.076   6.388   7.287 -1.2339  2.2115 -0.6237
 4408TIP3   OH234782   2.666   5.798   8.260 -0.0823 -0.3042  0.6363
 4408TIP3    H134783   2.632   5.813   8.172  0.8203  0.6850  0.4225
 4408TIP3    H234784   2.755   5.765   8.245 -0.6801 -2.2446  1.1740
 4409TIP3   OH234785   5.687   5.107   7.068 -0.1445  0.3007 -0.4154
 4409TIP3    H134786   5.619   5.058   7.021 -0.8142 -1.1525  1.9286
 4409TIP3    H234787   5.644   5.190   7.090  0.1371  0.9555 -2.1378
 4410TIP3   OH234788   1.659   2.621   0.407 -0.1177  0.2353  0.1832
 4410TIP3    H134789   1.579   2.660   0.442  0.1037  1.0157 -0.1483
 4410TIP3    H234790   1.638   2.600   0.316 -0.5942 -1.5068  0.6493
 4411TIP3   OH234791   0.098   5.638   6.854 -0.4192  0.1379  0.3369
 4411TIP3    H134792   0.027   5.606   6.910 -0.3600  0.1409  0.4141
 4411TIP3    H234793   0.056   5.703   6.797 -0.6700 -0.5142 -0.2364
 4412TIP3   OH234794   6.156   1.659   7.680  0.4123 -0.4545  0.0777
 4412TIP3    H134795   6.243   1.652   7.718 -0.0911 -0.6766  1.2334
 4412TIP3    H234796   6.097   1.664   7.755 -0.5325  0.2686 -0.6808
 4413TIP3   OH234797   0.305   0.503   7.331 -0.2041 -0.0449 -0.0712
 4413TIP3    H134798   0.237   0.483   7.396  1.2171  1.0558  1.8402
 4413TIP3    H234799   0.296   0.597   7.316  1.3072  0.2416  0.7196
 4414TIP3   OH234800   6.212   5.974   8.637  0.1060  0.1006  0.4804
 4414TIP3    H134801   6.300   6.007   8.652 -0.3556  0.9766  1.3524
 4414TIP3    H234802   6.157   6.018   8.702 -1.0890  0.0715 -0.4530
 4415TIP3   OH234803   0.845   6.475   0.651  0.2283  0.2105  0.4881
 4415TIP3    H134804   0.803   6.391   0.671  0.5771 -0.5470 -1.6852
 4415TIP3    H234805   0.799   6.507   0.574  1.9606  0.5822 -0.4344
 4416TIP3   OH234806   0.629   5.694   7.967  0.0334  0.1603  0.2659
 4416TIP3    H134807   0.536   5.711   7.976  0.0435 -0.5473  2.3713
 4416TIP3    H234808   0.638   5.601   7.987  1.3204  0.5164  1.5223
 4417TIP3   OH234809   0.524   5.553   7.227 -0.4050  0.2270  0.6534
 4417TIP3    H134810   0.558   5.568   7.315 -0.9320 -0.6879  1.0267
 4417TIP3    H234811   0.521   5.640   7.188  0.1215  0.6098  1.4303
 4418TIP3   OH234812   0.880   1.460   6.145  0.6113 -0.0716 -0.2447
 4418TIP3    H134813   0.952   1.454   6.082  0.4126  1.7289 -0.6960
 4418TIP3    H234814   0.864   1.554   6.155 -0.2083 -0.3542  1.5468
 4419TIP3   OH234815   0.031   2.985   6.928  0.3222  0.1513 -0.5237
 4419TIP3    H134816  -0.031   3.001   6.856 -0.2821  1.2279  0.2002
 4419TIP3    H234817   0.048   3.072   6.964  0.6304 -0.3628  0.6191
 4420TIP3   OH234818   2.435   5.615   0.077  0.2922 -0.0606  0.1714
 4420TIP3    H134819   2.509   5.648   0.128  1.4443 -3.3496  0.9119
 4420TIP3    H234820   2.473   5.588  -0.006 -0.6446  0.7241 -0.5296
 4421TIP3   OH234821   4.718   0.617   8.140 -0.3753 -0.2869 -0.2524
 4421TIP3    H134822   4.790   0.661   8.095 -0.4401  0.0335 -0.0448
 4421TIP3    H234823   4.643   0.629   8.082 -0.0389 -1.5375 -0.9889
 4422TIP3   OH234824   6.638   5.094   8.225 -1.0218  0.3150  0.3024
 4422TIP3    H134825   6.585   5.114   8.303  0.3649  1.5263  0.9786
 4422TIP3    H234826   6.720   5.140   8.240 -0.4572 -0.0199 -1.5821
 4423TIP3   OH234827   6.508   5.877   1.650  0.0462  0.3659  0.0701
 4423TIP3    H134828   6.475   5.963   1.623  1.0410  0.5391 -0.6561
 4423TIP3    H234829   6.542   5.891   1.738  0.0270  0.6679  0.0289
 4424TIP3   OH234830   6.680   5.229   2.410 -0.0465 -0.7745  0.1168
 4424TIP3    H134831   6.615   5.176   2.364 -1.9561 -0.2299  2.0339
 4424TIP3    H234832   6.677   5.198   2.500  0.5967  0.9197  0.7638
 4425TIP3   OH234833   1.102   5.802   1.688 -0.0929 -0.0650 -0.3811
 4425TIP3    H134834   1.119   5.710   1.710 -2.7419 -0.3896  0.5983
 4425TIP3    H234835   1.126   5.850   1.767 -1.3357 -0.2507  0.1231
 4426TIP3   OH234836   2.117   0.358   0.928 -0.1016  0.0612  0.0680
 4426TIP3    H134837   2.101   0.450   0.948  2.9158  1.4168 -2.6886
 4426TIP3    H234838   2.061   0.340   0.852  1.1371  0.5265 -1.0028
 4427TIP3   OH234839   6.173   4.209   0.859 -0.6485 -0.2595 -0.8323
 4427TIP3    H134840   6.147   4.119   0.881 -1.3845 -0.3987 -2.1363
 4427TIP3    H234841   6.106   4.238   0.796 -0.8005  1.4505  0.0614
 4428TIP3   OH234842   5.743   1.928   1.520 -0.2219 -0.3390  0.0840
 4428TIP3    H134843   5.730   1.913   1.614 -1.8486  2.0734  0.3295
 4428TIP3    H234844   5.658   1.905   1.481  0.6920 -2.1409 -0.9785
 4429TIP3   OH234845   5.111   0.719   8.445  0.0086 -0.5028  0.0085
 4429TIP3    H134846   5.157   0.691   8.524  1.7554 -0.2433 -0.8715
 4429TIP3    H234847   5.113   0.814   8.448 -0.6547 -0.4861  0.0507
 4430TIP3   OH234848   5.293   4.859   2.023 -0.1418  0.3561 -0.0725
 4430TIP3    H134849   5.290   4.892   2.113  1.0816 -1.1973  0.5766
 4430TIP3    H234850   5.381   4.823   2.014 -0.5171 -0.2296 -1.6474
 4431TIP3   OH234851   1.568   5.440   7.541  0.8713 -0.0697 -0.2867
 4431TIP3    H134852   1.633   5.448   7.471 -0.1265 -0.3359 -1.2799
 4431TIP3    H234853   1.485   5.427   7.495  0.2528 -0.7426  0.9642
 4432TIP3   OH234854   6.079   1.337   6.916  0.0058 -0.3710 -0.1132
 4432TIP3    H134855   6.056   1.415   6.865  1.2013 -0.3991 -0.7459
 4432TIP3    H234856   6.007   1.327   6.978 -0.2791  1.1191 -0.1473
 4433TIP3   OH234857   2.017   3.418   8.733  0.1785 -0.5291 -0.0350
 4433TIP3    H134858   1.959   3.389   8.663 -0.7661 -2.3586  1.4301
 4433TIP3    H234859   1.971   3.493   8.771  1.9901  2.3583 -2.9607
 4434TIP3   OH234860   0.900   4.527   7.145 -0.4562 -0.3664  0.6267
 4434TIP3    H134861   0.835   4.569   7.089  0.8635 -1.2473 -1.7236
 4434TIP3    H234862   0.848   4.475   7.206 -2.0717 -2.0836 -1.9831
 4435TIP3   OH234863   2.910   5.006   0.641  0.6799 -0.3066  0.4995
 4435TIP3    H134864   2.920   4.922   0.596  0.1521 -0.9081  1.4658
 4435TIP3    H234865   2.896   5.069   0.571 -0.8742 -1.3204 -0.1573
 4436TIP3   OH234866   6.660   0.747   0.802  0.1260  0.7156  0.5262
 4436TIP3    H134867   6.746   0.788   0.816 -0.5555  2.4656 -0.0854
 4436TIP3    H234868   6.617   0.752   0.888  1.1011 -1.4519  1.2022
 4437TIP3   OH234869   2.700   4.490   0.417  0.4625  0.0436  0.0954
 4437TIP3    H134870   2.727   4.539   0.494 -1.1128  0.5474  0.3406
 4437TIP3    H234871   2.649   4.417   0.451  2.2124 -1.4550 -0.3106
 4438TIP3   OH234872   4.192   1.972   0.914 -0.0512  0.1886 -0.5139
 4438TIP3    H134873   4.243   2.020   0.849 -1.1423  1.1401 -0.7059
 4438TIP3    H234874   4.217   2.012   0.998  0.4246 -0.1904 -0.4699
 4439TIP3   OH234875   5.486   2.733   7.465 -0.1663 -0.1466 -0.0214
 4439TIP3    H134876   5.466   2.692   7.549 -0.4809  1.7871  0.9149
 4439TIP3    H234877   5.441   2.680   7.400 -1.8595 -0.3744  1.2746
 4440TIP3   OH234878   6.246   1.437   1.734 -0.5857  0.5369  0.0641
 4440TIP3    H134879   6.310   1.378   1.696 -1.8183 -0.2532 -0.8735
 4440TIP3    H234880   6.164   1.416   1.689 -1.7243  0.8413  1.8890
 4441TIP3   OH234881   6.132   3.246   1.401 -0.4029 -0.0575 -0.6360
 4441TIP3    H134882   6.222   3.248   1.368  0.1379 -0.2187  0.7664
 4441TIP3    H234883   6.103   3.156   1.385  0.5717 -0.7287  1.0646
 4442TIP3   OH234884   1.137   0.330   8.773  0.4413  0.3299  0.8354
 4442TIP3    H134885   1.126   0.327   8.678 -0.7185  1.9690  0.8641
 4442TIP3    H234886   1.225   0.366   8.786  0.0704  1.4660  0.3388
 4443TIP3   OH234887   0.652   3.030   7.396  0.7874 -0.1775  0.4491
 4443TIP3    H134888   0.730   2.977   7.380  0.9334  0.7404 -2.6228
 4443TIP3    H234889   0.681   3.120   7.384 -0.3954  0.2920  0.9394
 4444TIP3   OH234890   0.904   4.211   6.170 -0.0799 -0.6129 -0.4439
 4444TIP3    H134891   0.911   4.296   6.126  0.3954  0.1977  1.0976
 4444TIP3    H234892   0.885   4.149   6.100 -0.6539  0.7931 -1.5949
 4445TIP3   OH234893   1.601   2.907   1.208  0.2639  0.0936  0.4385
 4445TIP3    H134894   1.532   2.867   1.154  0.6154 -0.7991  0.6279
 4445TIP3    H234895   1.613   2.845   1.280  0.8049  0.5734  0.7690
 4446TIP3   OH234896   4.208   5.196   1.656  0.5943 -0.3819 -0.1902
 4446TIP3    H134897   4.185   5.180   1.747  1.2763 -0.8800 -0.0963
 4446TIP3    H234898   4.185   5.115   1.611  0.0731 -0.0669 -0.5064
 4447TIP3   OH234899   3.400   2.321   6.653 -0.3241  0.1488  0.6284
 4447TIP3    H134900   3.322   2.349   6.606 -0.3856  0.4269  0.8918
 4447TIP3    H234901   3.390   2.227   6.664 -0.2986  0.0765  0.0695
 4448TIP3   OH234902   3.068   5.726   1.931  0.2426  0.2976 -0.1325
 4448TIP3    H134903   3.026   5.644   1.904  0.5278 -0.1921  0.8676
 4448TIP3    H234904   3.148   5.698   1.976  0.9139  1.1720 -0.7629
 4449TIP3   OH234905   1.347   6.399   1.258 -0.1868 -0.2077  0.2883
 4449TIP3    H134906   1.273   6.363   1.307 -0.0274  0.0494  0.7272
 4449TIP3    H234907   1.309   6.425   1.174 -0.1448 -2.1044 -0.3600
 4450TIP3   OH234908   4.465   5.535   0.739 -0.2953  0.2937 -0.2531
 4450TIP3    H134909   4.389   5.521   0.682 -0.6248 -0.7868  0.4166
 4450TIP3    H234910   4.515   5.453   0.732  0.8823  1.0254 -0.7684
 4451TIP3   OH234911   3.479   5.302   7.361  0.1668 -0.0587  0.0032
 4451TIP3    H134912   3.492   5.209   7.342 -1.0359  0.2179 -2.6372
 4451TIP3    H234913   3.422   5.303   7.437  1.9104 -1.4070  1.4144
 4452TIP3   OH234914   1.880   2.067   6.976 -0.1337  0.6978  0.0183
 4452TIP3    H134915   1.969   2.095   6.956  0.6913 -1.9317 -0.3099
 4452TIP3    H234916   1.868   2.089   7.069  0.7074  1.4048 -0.0323
 4453TIP3   OH234917   1.279   2.558   0.451  0.3050 -0.5613 -0.4350
 4453TIP3    H134918   1.205   2.607   0.414  0.7495  0.5857  0.1520
 4453TIP3    H234919   1.242   2.511   0.526 -0.1638 -1.2962 -1.1116
 4454TIP3   OH234920   1.791   4.786   7.846 -0.1371  0.7384  0.3229
 4454TIP3    H134921   1.702   4.768   7.876  1.0497 -1.3373  2.9996
 4454TIP3    H234922   1.805   4.878   7.869 -1.2034  0.7512  0.9901
 4455TIP3   OH234923   3.253   1.360   1.146  0.1217  0.0810  0.2607
 4455TIP3    H134924   3.191   1.298   1.107  0.4932  0.3124 -0.7111
 4455TIP3    H234925   3.329   1.307   1.170  2.3230  0.6145 -4.4697
 4456TIP3   OH234926   1.743   3.880   7.875 -0.5216 -0.3426 -0.3055
 4456TIP3    H134927   1.811   3.897   7.810  0.5870  1.2379  1.1676
 4456TIP3    H234928   1.780   3.809   7.929 -0.9078 -0.8166 -0.6570
 4457TIP3   OH234929   3.510   6.577   8.190 -0.0455 -0.1868  0.1102
 4457TIP3    H134930   3.501   6.577   8.285  1.6118  1.2583  0.3149
 4457TIP3    H234931   3.421   6.586   8.157 -0.6305 -0.5543  1.5225
 4458TIP3   OH234932   4.823   5.856   6.139 -0.1476  0.0310  0.4605
 4458TIP3    H134933   4.842   5.802   6.216 -0.8930  0.5999  1.0573
 4458TIP3    H234934   4.728   5.848   6.127  0.0886 -0.8810 -1.0398
 4459TIP3   OH234935   5.402   5.459   1.600  0.0470  1.1512 -0.1002
 4459TIP3    H134936   5.389   5.373   1.560 -1.0716  1.7441 -1.0807
 4459TIP3    H234937   5.403   5.441   1.694  1.1585 -0.0842 -0.3196
 4460TIP3   OH234938   2.181   3.823   8.750 -0.0529  0.0512  0.6778
 4460TIP3    H134939   2.110   3.841   8.688  2.2541 -0.9563 -2.5405
 4460TIP3    H234940   2.148   3.753   8.805 -1.4166 -0.7302 -1.0540
 4461TIP3   OH234941   6.456   1.281   7.874 -0.1435 -0.4209 -0.6394
 4461TIP3    H134942   6.438   1.206   7.818 -1.2142 -2.2816  1.9572
 4461TIP3    H234943   6.537   1.258   7.919 -0.1746  0.2245 -0.2473
 4462TIP3   OH234944   2.836   1.000   1.838 -0.2806 -0.4308 -0.1495
 4462TIP3    H134945   2.765   0.939   1.816 -1.9479  0.8275  1.4388
 4462TIP3    H234946   2.893   0.950   1.897 -0.2668 -1.1992 -0.7962
 4463TIP3   OH234947   3.326   1.460   0.829  0.1779  0.3274  0.1011
 4463TIP3    H134948   3.415   1.433   0.806  0.0090 -0.4299  0.3028
 4463TIP3    H234949   3.317   1.435   0.921 -0.1743  0.5839  0.1359
 4464TIP3   OH234950   5.156   4.154   0.388 -0.0106 -0.0904  0.2484
 4464TIP3    H134951   5.138   4.067   0.352  2.4448  0.1960 -1.9662
 4464TIP3    H234952   5.152   4.142   0.483 -0.1003 -2.5345 -0.0039
 4465TIP3   OH234953   0.673   5.320   0.038  0.0314 -0.7145 -0.3742
 4465TIP3    H134954   0.719   5.280  -0.035  0.3882  1.5033 -1.4490
 4465TIP3    H234955   0.600   5.261   0.056 -0.1347 -1.2658 -2.6155
 4466TIP3   OH234956   0.993   2.918   0.816 -0.2842 -0.0130  0.6700
 4466TIP3    H134957   0.960   2.995   0.863 -2.2580 -0.7731  0.6116
 4466TIP3    H234958   0.948   2.920   0.731  2.0364  0.4613 -0.6322
 4467TIP3   OH234959   1.214   5.183   7.351  0.1657  0.0023 -0.0870
 4467TIP3    H134960   1.127   5.177   7.391 -0.0465  0.2726 -0.4957
 4467TIP3    H234961   1.243   5.092   7.344 -0.9050 -0.2722 -1.6855
 4468TIP3   OH234962   4.458   4.019   6.121  0.5887 -0.3586  0.1562
 4468TIP3    H134963   4.435   4.110   6.104  1.5281  0.1313  1.3643
 4468TIP3    H234964   4.466   4.013   6.216  0.5018 -1.7195  0.1017
 4469TIP3   OH234965   1.921   5.823   6.431  0.2365  0.0743 -0.2806
 4469TIP3    H134966   1.896   5.906   6.390  2.0572  1.2728  0.8795
 4469TIP3    H234967   2.012   5.836   6.457  0.7919 -2.5518 -0.6515
 4470TIP3   OH234968   4.127   0.407   1.429  0.1838 -0.2122  0.3469
 4470TIP3    H134969   4.106   0.407   1.523 -1.0682  2.0903  0.1481
 4470TIP3    H234970   4.144   0.499   1.409 -0.8414 -0.4651 -1.9479
 4471TIP3   OH234971   5.884   0.812   7.972 -0.3981 -0.1954  0.1912
 4471TIP3    H134972   5.955   0.748   7.964 -1.5606 -1.4642 -0.4218
 4471TIP3    H234973   5.867   0.817   8.067  2.3258  2.2835  0.6919
 4472TIP3   OH234974   2.538   4.787   0.939  0.1352  0.2534 -0.1402
 4472TIP3    H134975   2.617   4.793   0.886  1.0780  0.4362  1.2302
 4472TIP3    H234976   2.481   4.856   0.905  0.4319 -0.0539 -1.3198
 4473TIP3   OH234977   1.611   6.634   1.134  0.3691 -0.6296 -0.4303
 4473TIP3    H134978   1.643   6.724   1.143  0.3643 -0.5667 -1.0379
 4473TIP3    H234979   1.579   6.612   1.222 -0.0228  0.1109 -0.3732
 4474TIP3   OH234980   1.203   2.455   0.064 -0.4897 -0.7502 -0.2351
 4474TIP3    H134981   1.187   2.364   0.036 -0.5415 -1.4969  2.0369
 4474TIP3    H234982   1.281   2.449   0.120 -1.4563  0.3110  1.2814
 4475TIP3   OH234983   4.539   1.579   0.281  0.2621 -0.3761  0.0728
 4475TIP3    H134984   4.484   1.639   0.331  1.1973  0.4223  0.1752
 4475TIP3    H234985   4.481   1.545   0.213 -0.2838  0.6422  0.0125
 4476TIP3   OH234986   4.231   4.989   7.073 -0.3656  1.0979  0.3593
 4476TIP3    H134987   4.159   4.927   7.063  2.2477 -2.2938  0.6372
 4476TIP3    H234988   4.249   5.020   6.984 -0.1897 -0.5122 -0.1870
 4477TIP3   OH234989   0.701   1.614   8.764  0.7633 -0.0442  0.6736
 4477TIP3    H134990   0.697   1.636   8.671 -0.1886 -0.4648  0.6100
 4477TIP3    H234991   0.753   1.685   8.803  1.0719  0.1952 -0.1491
 4478TIP3   OH234992   4.078   5.037   7.933 -0.6677  0.3830  0.4504
 4478TIP3    H134993   4.169   5.068   7.936 -0.6338  0.2373  1.0892
 4478TIP3    H234994   4.060   5.009   8.023 -1.1077 -0.2694  0.1627
 4479TIP3   OH234995   4.566   6.020   6.847 -0.4144  0.5013  0.1851
 4479TIP3    H134996   4.624   5.947   6.868 -1.9688 -0.2430  2.2082
 4479TIP3    H234997   4.626   6.095   6.836  1.1096 -0.7995 -0.7961
 4480TIP3   OH234998   3.077   2.031   0.061 -0.3767 -0.4626  0.3684
 4480TIP3    H134999   3.065   2.093   0.133 -1.1816  0.3028 -0.3893
 4480TIP3    H235000   3.001   2.047   0.004  0.7874 -0.2911 -1.1854
 4481TIP3   OH235001   2.868   2.880   7.580  0.0192 -0.8319  0.1615
 4481TIP3    H135002   2.855   2.944   7.649  2.4297  2.4732 -2.1366
 4481TIP3    H235003   2.788   2.885   7.527  0.7507  1.6394 -0.8584
 4482TIP3   OH235004   5.289   2.681   1.794  0.3929  0.2869  0.3158
 4482TIP3    H135005   5.246   2.617   1.738  0.0392  3.4125 -3.4038
 4482TIP3    H235006   5.233   2.686   1.872 -2.6270 -0.1054 -1.6563
 4483TIP3   OH235007   5.100   3.790   0.582 -0.1306  0.1854  0.0365
 4483TIP3    H135008   5.034   3.849   0.545  1.0039  1.2624 -0.3412
 4483TIP3    H235009   5.067   3.702   0.563 -0.5599  0.6950 -1.7731
 4484TIP3   OH235010   0.570   3.726   8.750 -0.3718 -0.4440  0.5239
 4484TIP3    H135011   0.660   3.759   8.746 -0.5305  0.0444  0.9409
 4484TIP3    H235012   0.542   3.745   8.840 -1.0519 -0.1754  0.2570
 4485TIP3   OH235013   5.832   2.965   0.824 -0.1473  0.1466 -0.4912
 4485TIP3    H135014   5.789   2.890   0.864  0.8641 -0.7245 -0.9835
 4485TIP3    H235015   5.781   3.041   0.853 -1.9214 -0.8237 -0.9608
 4486TIP3   OH235016   0.516   0.600   1.445  0.3152 -0.3449 -0.5444
 4486TIP3    H135017   0.519   0.687   1.483 -1.1949 -0.5759  0.2003
 4486TIP3    H235018   0.556   0.543   1.511  1.3907 -0.2165 -1.0724
 4487TIP3   OH235019   4.459   4.980   1.269 -0.1860 -0.2188 -0.6033
 4487TIP3    H135020   4.410   4.975   1.351  1.5237 -0.1177  0.4659
 4487TIP3    H235021   4.482   5.072   1.261  1.2906 -0.5193 -0.1570
 4488TIP3   OH235022   6.025   5.253   1.128 -0.0306 -0.1744  0.0714
 4488TIP3    H135023   6.082   5.288   1.059  0.7117 -0.7353  0.3817
 4488TIP3    H235024   5.937   5.278   1.101  0.4090  1.4358 -0.0066
 4489TIP3   OH235025   0.760   5.205   6.556 -0.3029  0.1374 -0.9933
 4489TIP3    H135026   0.699   5.157   6.500 -0.6958  0.7396 -1.0906
 4489TIP3    H235027   0.785   5.142   6.624 -0.5087 -0.3208 -1.3340
 4490TIP3   OH235028   5.777   4.154   0.231 -0.2896  0.5049 -0.3078
 4490TIP3    H135029   5.756   4.172   0.139 -1.7351  0.6111  0.0098
 4490TIP3    H235030   5.813   4.236   0.264 -1.5250  1.0730 -0.3157
 4491TIP3   OH235031   6.798   5.197   1.551  0.7085 -0.0279  0.5030
 4491TIP3    H135032   6.803   5.154   1.466 -1.0483  0.8401 -0.0910
 4491TIP3    H235033   6.819   5.289   1.532  0.4050  0.1532  1.0194
 4492TIP3   OH235034   4.979   0.173   8.818 -0.0847 -0.6098 -0.1574
 4492TIP3    H135035   4.954   0.140   8.732 -0.9719  1.1288 -0.6206
 4492TIP3    H235036   4.943   0.110   8.880  0.5114 -1.8607 -1.0371
 4493TIP3   OH235037   4.863   1.295   2.504 -0.4676  0.0524 -0.6680
 4493TIP3    H135038   4.956   1.314   2.487 -0.7144 -0.0690 -2.3159
 4493TIP3    H235039   4.832   1.372   2.552  0.3847  0.2732 -0.4454
 4494TIP3   OH235040   0.272   0.004   6.907 -0.4786  0.7742  0.3960
 4494TIP3    H135041   0.241   0.041   6.824  3.1478  1.7375 -0.7065
 4494TIP3    H235042   0.351   0.053   6.927  0.5725 -1.6311  2.7638
 4495TIP3   OH235043   3.176   6.464   1.856  0.1809  0.3303 -0.5960
 4495TIP3    H135044   3.174   6.444   1.950  0.9957 -0.7532 -0.7945
 4495TIP3    H235045   3.224   6.546   1.850 -0.3600  0.6999 -0.0252
 4496TIP3   OH235046   2.812   4.943   1.060 -0.8658 -0.9020  0.1557
 4496TIP3    H135047   2.899   4.931   1.097  0.0606 -0.5065 -1.7677
 4496TIP3    H235048   2.809   4.883   0.985 -2.0531 -0.5522 -0.0945
 4497TIP3   OH235049   0.308   3.852   0.476  0.5358  0.5140 -0.0206
 4497TIP3    H135050   0.255   3.904   0.414  0.2962  0.4056  0.0936
 4497TIP3    H235051   0.398   3.860   0.443  0.5212  1.1083  0.0645
 4498TIP3   OH235052   1.460   0.892   6.684  0.7601 -0.0429 -0.2551
 4498TIP3    H135053   1.544   0.928   6.712  1.1684 -0.8310 -0.4519
 4498TIP3    H235054   1.462   0.801   6.712  0.9688 -0.7254 -2.3765
 4499TIP3   OH235055   3.463   3.545   7.594  0.5049  0.2954  0.2673
 4499TIP3    H135056   3.524   3.616   7.573  0.1133  0.8732  1.0315
 4499TIP3    H235057   3.377   3.587   7.594  0.0978 -0.5006 -0.7537
 4500TIP3   OH235058   6.078   1.785   0.152  0.1740  0.0120 -0.4088
 4500TIP3    H135059   6.022   1.786   0.074  1.2278 -1.5152 -1.2515
 4500TIP3    H235060   6.153   1.838   0.127  0.1221  0.2261 -0.1054
 4501TIP3   OH235061   0.528   0.555   6.444  0.5786  0.7205  0.1569
 4501TIP3    H135062   0.472   0.632   6.436 -0.6737 -0.0953  0.7559
 4501TIP3    H235063   0.567   0.544   6.357 -0.8585  0.8354 -0.5268
 4502TIP3   OH235064   2.652   6.640   0.634 -0.2269 -0.2138  0.1008
 4502TIP3    H135065   2.669   6.721   0.681  1.7378  0.5935 -1.7915
 4502TIP3    H235066   2.739   6.611   0.605 -0.7939 -3.3017  1.1282
 4503TIP3   OH235067   4.890   5.723   7.259 -0.4113 -0.4952  0.1574
 4503TIP3    H135068   4.818   5.713   7.322 -0.5175 -1.3017 -0.0879
 4503TIP3    H235069   4.859   5.680   7.179  0.9903 -2.4409  0.5791
 4504TIP3   OH235070   1.614   3.173   0.223  0.6523  0.4588 -0.2228
 4504TIP3    H135071   1.642   3.102   0.281 -0.4607  1.0063  1.0058
 4504TIP3    H235072   1.644   3.253   0.266 -1.9439  1.0136  0.7047
 4505TIP3   OH235073   0.164   4.159   8.092 -0.0646 -0.0685  0.2207
 4505TIP3    H135074   0.214   4.090   8.135  1.0039  0.3638 -0.3009
 4505TIP3    H235075   0.204   4.168   8.006 -1.1231  0.2167 -0.2667
 4506TIP3   OH235076   2.093   1.206   1.957  0.6940 -0.0157 -0.3842
 4506TIP3    H135077   2.095   1.287   2.008  1.3603 -0.3360  0.1081
 4506TIP3    H235078   2.007   1.168   1.976  2.0544 -1.8336  3.2738
 4507TIP3   OH235079   2.581   0.369   1.787  0.4291  0.6180 -0.8912
 4507TIP3    H135080   2.609   0.307   1.854 -0.0136  3.2071  1.9343
 4507TIP3    H235081   2.658   0.422   1.768 -0.2449  2.1206  0.3014
 4508TIP3   OH235082   1.707   5.215   2.205  0.2547  0.0541  0.4634
 4508TIP3    H135083   1.762   5.270   2.260 -2.6703  1.8191  1.8674
 4508TIP3    H235084   1.672   5.148   2.265 -1.2857  0.6890  0.3234
 4509TIP3   OH235085   0.612   5.227   7.788 -0.3946  0.3031 -0.5417
 4509TIP3    H135086   0.536   5.174   7.813  0.5347 -0.1088  1.7105
 4509TIP3    H235087   0.602   5.308   7.839 -0.2861  1.0575 -1.6934
 4510TIP3   OH235088   5.978   3.829   7.675 -0.7165 -0.3708  0.2301
 4510TIP3    H135089   6.017   3.916   7.681  0.9626 -1.0340 -0.4114
 4510TIP3    H235090   5.958   3.805   7.765  0.4777 -0.0311  0.6015
 4511TIP3   OH235091   0.424   6.111   8.406 -0.0607 -0.0750  0.4579
 4511TIP3    H135092   0.408   6.197   8.444 -0.9317 -0.6306  1.4127
 4511TIP3    H235093   0.338   6.083   8.374 -0.1371 -1.2151  1.5627
 4512TIP3   OH235094   2.349   0.380   7.519 -0.0131  0.2079  0.7162
 4512TIP3    H135095   2.338   0.431   7.439 -0.8310 -2.4169 -0.9961
 4512TIP3    H235096   2.429   0.330   7.504 -0.5342 -0.8044  1.2036
 4513TIP3   OH235097   0.938   0.092   8.390  0.1607  0.4487  0.0013
 4513TIP3    H135098   0.891   0.143   8.324 -1.8575 -1.1066  0.1713
 4513TIP3    H235099   0.914   0.001   8.373 -0.9545  0.0315  3.2381
 4514TIP3   OH235100   1.031   3.907   7.704 -0.3923 -0.6682 -0.1867
 4514TIP3    H135101   0.985   3.908   7.620  1.3556 -0.7871 -1.1979
 4514TIP3    H235102   1.069   3.820   7.709  0.2211 -0.3758  0.3290
 4515TIP3   OH235103   1.584   6.600   7.866 -0.0809 -0.4378 -0.2199
 4515TIP3    H135104   1.613   6.660   7.798 -0.2853  0.1171  0.1752
 4515TIP3    H235105   1.663   6.554   7.893  0.6179  1.5201  1.3102
 4516TIP3   OH235106   4.189   6.366   7.566 -0.5388 -0.2028 -0.4416
 4516TIP3    H135107   4.172   6.273   7.586  1.0157 -1.2332 -3.4241
 4516TIP3    H235108   4.281   6.379   7.587 -0.5803  0.5113 -0.6692
 4517TIP3   OH235109   2.428   6.616   6.750 -0.2862 -0.1599 -0.1117
 4517TIP3    H135110   2.491   6.593   6.682  0.0103  0.4347 -0.0393
 4517TIP3    H235111   2.438   6.710   6.763 -1.4922  0.0205 -0.3924
 4518TIP3   OH235112   6.651   1.151   1.515  0.2650 -0.0108 -0.4952
 4518TIP3    H135113   6.682   1.242   1.522  0.3115 -0.0854  0.4118
 4518TIP3    H235114   6.668   1.127   1.424  2.1984  0.2130 -0.2426
 4519TIP3   OH235115   5.819   6.572   0.009 -0.6090 -0.1891 -0.0493
 4519TIP3    H135116   5.838   6.522  -0.071 -0.0648  3.3622 -2.3793
 4519TIP3    H235117   5.729   6.549   0.031 -1.2973 -0.2316 -2.6042
 4520TIP3   OH235118   4.358   6.299   1.658 -0.0188 -0.0362 -0.0827
 4520TIP3    H135119   4.377   6.379   1.609 -0.8493 -0.0550 -0.4610
 4520TIP3    H235120   4.369   6.229   1.594  1.2044 -0.2789  0.3786
 4521TIP3   OH235121   1.973   0.631   0.906  0.3509  0.0675  0.2955
 4521TIP3    H135122   2.005   0.697   0.968 -1.7617 -0.2696  1.8587
 4521TIP3    H235123   1.889   0.665   0.876  0.6018 -0.5490 -1.1844
 4522TIP3   OH235124   3.255   5.121   1.697 -0.4680 -0.2961  0.4693
 4522TIP3    H135125   3.340   5.137   1.739 -0.2908 -0.0555  0.0351
 4522TIP3    H235126   3.202   5.078   1.763  0.3850 -1.5218  0.3767
 4523TIP3   OH235127   6.317   4.501   0.188  0.7047 -0.4095 -0.2690
 4523TIP3    H135128   6.274   4.586   0.198  0.9595 -0.1910 -0.9300
 4523TIP3    H235129   6.379   4.515   0.116  0.2371 -1.3459 -0.8671
 4524TIP3   OH235130   5.463   1.331   8.278 -0.1086 -0.0830  0.7982
 4524TIP3    H135131   5.476   1.236   8.282  1.0441  0.0293  0.3212
 4524TIP3    H235132   5.546   1.368   8.308  0.7162  0.7408 -2.1035
 4525TIP3   OH235133   2.338   5.882   1.020 -0.8662  0.6137 -0.2970
 4525TIP3    H135134   2.384   5.834   0.951 -0.1779  0.6270  0.1414
 4525TIP3    H235135   2.246   5.875   0.997 -0.8222 -1.1894 -0.1022
 4526TIP3   OH235136   5.624   3.011   7.905 -0.1587  0.8927  0.2976
 4526TIP3    H135137   5.629   3.051   7.992 -0.8822 -0.7826  1.1492
 4526TIP3    H235138   5.713   2.981   7.886 -0.2922 -0.0676  1.1355
 4527TIP3   OH235139   3.267   5.862   1.802  0.3607 -0.0894 -0.7525
 4527TIP3    H135140   3.192   5.843   1.859  0.1593  0.6114 -0.7729
 4527TIP3    H235141   3.232   5.855   1.713  0.5713 -0.7602 -0.7878
 4528TIP3   OH235142   2.776   0.920   8.367  0.1606  0.6156 -0.0674
 4528TIP3    H135143   2.850   0.874   8.406 -0.8302 -1.1833 -0.2230
 4528TIP3    H235144   2.750   0.866   8.293 -0.6727  1.7572 -0.6286
 4529TIP3   OH235145   0.805   2.196   6.465 -0.0909  0.2617  0.2257
 4529TIP3    H135146   0.837   2.238   6.385 -1.0480 -0.1304 -0.3801
 4529TIP3    H235147   0.722   2.239   6.484 -0.8107 -0.9395 -0.0834
 4530TIP3   OH235148   2.858   3.644   7.790  0.5654 -0.2209 -0.9805
 4530TIP3    H135149   2.930   3.645   7.853 -1.2010  0.3153  1.1569
 4530TIP3    H235150   2.791   3.589   7.831 -0.7247  0.2610 -2.3267
 4531TIP3   OH235151   0.819   2.492   8.632  0.4010  0.3014 -0.1994
 4531TIP3    H135152   0.814   2.512   8.539 -1.4459 -2.9351 -0.9489
 4531TIP3    H235153   0.729   2.468   8.656  0.9834  0.2956  2.2397
 4532TIP3   OH235154   4.882   1.721   0.459 -0.0729 -0.3159 -0.2567
 4532TIP3    H135155   4.922   1.780   0.523  1.5226 -1.8242  0.1999
 4532TIP3    H235156   4.944   1.718   0.386 -1.3299  0.4751 -1.4147
 4533TIP3   OH235157   0.690   1.631   1.299  0.2250  0.4406  0.3068
 4533TIP3    H135158   0.633   1.652   1.372 -0.4897 -1.4010  0.3218
 4533TIP3    H235159   0.710   1.538   1.309  2.2121  0.7297 -0.4153
 4534TIP3   OH235160   4.626   0.247   6.294  0.5971  0.1088 -0.3533
 4534TIP3    H135161   4.641   0.296   6.214 -1.9704 -1.2455 -1.7938
 4534TIP3    H235162   4.532   0.228   6.294  0.9050 -1.9548  1.7842
 4535TIP3   OH235163   6.095   4.534   8.095  0.1996 -1.0907  0.2517
 4535TIP3    H135164   6.178   4.554   8.050 -0.5163  0.7378 -0.3721
 4535TIP3    H235165   6.080   4.441   8.079  0.4221 -0.7282 -2.6194
 4536TIP3   OH235166   1.107   6.224   1.353  0.0256  0.7466 -0.0792
 4536TIP3    H135167   1.117   6.145   1.405  0.8762 -0.0386 -1.3559
 4536TIP3    H235168   1.019   6.218   1.316  0.0503  0.4284 -0.0882
 4537TIP3   OH235169   5.804   4.514   1.711  0.1886  0.1338 -0.0333
 4537TIP3    H135170   5.863   4.568   1.659 -0.2043 -1.5238 -2.3467
 4537TIP3    H235171   5.815   4.426   1.675 -2.0623 -0.6176  0.9717
 4538TIP3   OH235172   3.879   2.201   7.517  0.9260 -0.9803  0.1849
 4538TIP3    H135173   3.834   2.150   7.585  1.0918 -0.2212  0.8688
 4538TIP3    H235174   3.944   2.253   7.564 -1.2061  2.1507 -0.0381
 4539TIP3   OH235175   2.826   3.149   8.799  0.4928 -0.1409 -0.1566
 4539TIP3    H135176   2.885   3.187   8.734 -1.3531  4.1217  0.3114
 4539TIP3    H235177   2.859   3.182   8.883 -0.8459 -0.0855  0.3749
 4540TIP3   OH235178   0.214   3.752   8.747 -0.1992  0.1756 -0.6353
 4540TIP3    H135179   0.266   3.758   8.827 -0.7623  1.4414 -0.3354
 4540TIP3    H235180   0.278   3.752   8.677  0.2454  0.6050 -0.2368
 4541TIP3   OH235181   3.868   3.803   8.137 -0.0403  0.7882  0.1885
 4541TIP3    H135182   3.782   3.764   8.155  0.1477  0.6934  0.9124
 4541TIP3    H235183   3.929   3.730   8.140  0.3714  1.1569  1.9691
 4542TIP3   OH235184   5.928   1.069   7.837 -0.4165 -0.2101  0.1118
 4542TIP3    H135185   6.022   1.072   7.820 -0.7862  0.2432 -2.1985
 4542TIP3    H235186   5.910   0.978   7.858  0.5173 -0.2960  0.5914
 4543TIP3   OH235187   0.192   1.459   8.233  0.2354 -0.4155  0.1131
 4543TIP3    H135188   0.152   1.415   8.307 -0.7817 -0.2660 -0.3365
 4543TIP3    H235189   0.130   1.528   8.209  1.9187  1.5208  1.0026
 4544TIP3   OH235190   0.923   3.402   7.110  0.8243 -0.7969 -0.7162
 4544TIP3    H135191   0.977   3.349   7.169 -1.6627 -1.4866  1.1281
 4544TIP3    H235192   0.887   3.471   7.166 -1.0767 -1.0560 -1.5417
 4545TIP3   OH235193   1.539   6.567   1.392  0.2152 -0.0093  0.0563
 4545TIP3    H135194   1.477   6.508   1.349  0.3433  0.1991 -0.4255
 4545TIP3    H235195   1.507   6.575   1.482  0.0455 -0.5940  0.0473
 4546TIP3   OH235196   4.133   2.115   8.602  0.8998 -0.0599 -0.2096
 4546TIP3    H135197   4.065   2.051   8.582  0.3982  0.2637  0.4430
 4546TIP3    H235198   4.197   2.067   8.654  0.7160 -0.1326 -0.0497
 4547TIP3   OH235199   2.557   1.383   1.780 -0.2412  0.2565 -0.2022
 4547TIP3    H135200   2.498   1.425   1.842 -2.1123  0.4746 -2.0301
 4547TIP3    H235201   2.620   1.452   1.756 -0.2732  0.5286  0.4814
 4548TIP3   OH235202   1.467   6.344   0.704  0.0692 -0.1418  0.7904
 4548TIP3    H135203   1.558   6.316   0.688 -0.3691 -0.7987 -0.7591
 4548TIP3    H235204   1.456   6.422   0.650 -0.3787 -0.2661  0.6998
 4549TIP3   OH235205   6.119   5.595   7.906  0.3862 -0.4517  0.3481
 4549TIP3    H135206   6.147   5.570   7.993  2.9897  2.3391  0.4467
 4549TIP3    H235207   6.152   5.525   7.849  0.0598 -1.4801  1.3849
 4550TIP3   OH235208   4.338   4.463   0.919  0.0969 -0.5249 -0.3128
 4550TIP3    H135209   4.291   4.418   0.849 -2.1686 -1.5018  1.7214
 4550TIP3    H235210   4.271   4.513   0.966  1.5649  0.2424  1.0840
 4551TIP3   OH235211   0.227   3.378   6.537 -0.5091 -0.0001 -0.2499
 4551TIP3    H135212   0.137   3.407   6.522 -0.0436  2.3622  1.1098
 4551TIP3    H235213   0.267   3.382   6.450 -1.5523 -0.6204 -0.7921
 4552TIP3   OH235214   0.608   5.852   1.516  0.1093  0.0779  0.4896
 4552TIP3    H135215   0.694   5.881   1.547 -0.6276  1.9702  0.9058
 4552TIP3    H235216   0.561   5.828   1.596  0.0112 -0.3149  0.3180
 4553TIP3   OH235217   1.826   4.387   6.888  0.0464 -0.1247 -0.2948
 4553TIP3    H135218   1.868   4.393   6.802  0.9875 -0.7353  0.1071
 4553TIP3    H235219   1.732   4.384   6.868  0.2161  0.4638 -1.2555
 4554TIP3   OH235220   4.421   3.330   6.382 -0.2250 -0.6101  0.2557
 4554TIP3    H135221   4.362   3.337   6.456 -0.9395  0.8356 -0.4236
 4554TIP3    H235222   4.508   3.347   6.418 -0.8194  2.8045  0.3984
 4555TIP3   OH235223   5.943   4.451   8.606  0.1833  0.3299 -0.3383
 4555TIP3    H135224   5.948   4.358   8.627  1.7572  0.2273 -1.0475
 4555TIP3    H235225   5.896   4.490   8.680  0.0043 -0.9424  0.2343
 4556TIP3   OH235226   5.693   2.874   2.246  0.1746  0.2432 -0.2593
 4556TIP3    H135227   5.607   2.905   2.275 -0.0125 -0.6098  0.1190
 4556TIP3    H235228   5.728   2.946   2.193 -1.6249 -0.1566 -2.1429
 4557TIP3   OH235229   0.096   1.561   1.717  0.3599  0.8295 -0.0522
 4557TIP3    H135230   0.042   1.573   1.638 -0.6652  4.5572  0.9867
 4557TIP3    H235231   0.036   1.529   1.783  1.2013 -2.2018 -0.5937
 4558TIP3   OH235232   0.312   0.373   6.445  0.5050  0.3595 -0.3759
 4558TIP3    H135233   0.392   0.331   6.415 -0.3056 -1.1143 -0.5617
 4558TIP3    H235234   0.335   0.466   6.454  1.4742  0.4698 -3.1337
 4559TIP3   OH235235   4.490   4.059   6.609 -0.0840  0.0370 -0.3718
 4559TIP3    H135236   4.440   4.046   6.528 -1.3457 -0.3173  0.4387
 4559TIP3    H235237   4.451   4.137   6.649 -0.6246 -0.7879  0.7384
 4560TIP3   OH235238   5.490   0.157   0.221  0.1208  0.1960 -0.6659
 4560TIP3    H135239   5.436   0.220   0.173  0.4139  0.7402 -0.2897
 4560TIP3    H235240   5.580   0.178   0.197  0.2661  0.3953  0.0065
 4561TIP3   OH235241   2.247   3.359   1.780 -0.3736 -0.4537 -0.0107
 4561TIP3    H135242   2.296   3.288   1.738 -0.7294  0.0974 -1.4446
 4561TIP3    H235243   2.185   3.315   1.838  1.1596 -1.1907  1.1127
 4562TIP3   OH235244   3.018   3.705   8.033 -0.1983 -0.5161 -0.2239
 4562TIP3    H135245   3.049   3.778   7.980 -3.0178  1.7424  0.9840
 4562TIP3    H235246   3.064   3.713   8.116  0.2767 -0.7956 -0.4559
 4563TIP3   OH235247   0.773   3.735   0.826  0.5673 -0.5757 -0.0571
 4563TIP3    H135248   0.789   3.707   0.916  1.0370  0.6240  0.2535
 4563TIP3    H235249   0.686   3.701   0.805 -0.3070  0.5967  1.4818
 4564TIP3   OH235250   5.579   5.162   0.402  0.7978 -0.3143 -0.3049
 4564TIP3    H135251   5.508   5.098   0.410 -0.3342  0.5892 -2.3157
 4564TIP3    H235252   5.641   5.121   0.342  1.3338 -0.5549  0.4075
 4565TIP3   OH235253   6.451   1.224   1.690  0.1081  0.3792 -0.0534
 4565TIP3    H135254   6.403   1.142   1.704  1.6820 -0.2031  2.6426
 4565TIP3    H235255   6.521   1.201   1.628 -0.9712  0.3738 -1.3008
 4566TIP3   OH235256   0.402   4.225   0.808 -0.6590  0.4747 -0.1699
 4566TIP3    H135257   0.328   4.205   0.751 -0.9225  1.7178 -0.3128
 4566TIP3    H235258   0.379   4.187   0.893 -1.7029  1.2519 -0.0855
 4567TIP3   OH235259   6.748   5.273   7.644 -0.2283  0.0127  0.5703
 4567TIP3    H135260   6.717   5.183   7.656  2.2089 -0.7499  1.9010
 4567TIP3    H235261   6.742   5.289   7.550 -3.9050 -0.2183  0.6300
 4568TIP3   OH235262   1.695   6.079   0.804  0.4804  0.1967  0.2637
 4568TIP3    H135263   1.780   6.074   0.761  0.2038  0.6765 -0.3703
 4568TIP3    H235264   1.701   6.155   0.862 -0.3670  2.0069 -1.8413
 4569TIP3   OH235265   2.846   6.383   1.126 -0.6597  0.2033  0.4109
 4569TIP3    H135266   2.804   6.413   1.046 -1.5086 -1.7489  0.0666
 4569TIP3    H235267   2.773   6.366   1.186 -0.2336 -1.0087  0.6106
 4570TIP3   OH235268   5.921   1.078   1.265  0.6194 -0.3260 -0.1215
 4570TIP3    H135269   5.886   1.095   1.353  0.7478  1.4404 -0.3724
 4570TIP3    H235270   5.924   1.165   1.224 -0.8556 -1.2691 -2.4005
 4571TIP3   OH235271   6.388   0.589   2.295  0.0308 -0.9918 -0.2199
 4571TIP3    H135272   6.295   0.565   2.289 -0.4817  0.5939  0.8408
 4571TIP3    H235273   6.430   0.536   2.228 -1.6345 -1.7925 -0.6942
 4572TIP3   OH235274   4.453   6.668   1.217 -0.2301  0.7254 -0.4235
 4572TIP3    H135275   4.535   6.677   1.264 -1.3709  1.1540  1.5892
 4572TIP3    H235276   4.460   6.583   1.172  0.9084  0.2973  0.5187
 4573TIP3   OH235277   6.773   3.578   7.407 -0.6055 -0.0093  0.8269
 4573TIP3    H135278   6.797   3.663   7.371 -0.4699 -0.6765 -0.7693
 4573TIP3    H235279   6.855   3.529   7.409 -0.9848 -0.7247 -0.1329
 4574TIP3   OH235280   3.054   6.268   0.102  0.2833  0.0507 -0.4705
 4574TIP3    H135281   3.043   6.311   0.017  2.7417  1.7711 -0.0216
 4574TIP3    H235282   3.042   6.338   0.166 -1.5707 -1.2258  0.6703
 4575TIP3   OH235283   6.319   2.756   2.036 -0.6391 -0.0798  0.2268
 4575TIP3    H135284   6.254   2.741   2.105 -1.2284 -1.6054 -0.5936
 4575TIP3    H235285   6.363   2.671   2.027 -0.2276  0.2449 -0.9003
 4576TIP3   OH235286   3.140   5.329   7.196 -0.3348 -0.2129 -0.1920
 4576TIP3    H135287   3.214   5.268   7.199 -0.8362 -0.8013  0.7761
 4576TIP3    H235288   3.069   5.279   7.157  0.3595  1.0713 -3.4273
 4577TIP3   OH235289   3.476   2.257   2.124  0.2930  0.2000  0.6126
 4577TIP3    H135290   3.436   2.331   2.079  0.8214  0.2996  0.3040
 4577TIP3    H235291   3.558   2.291   2.160  0.8792 -0.4016 -0.1219
 4578TIP3   OH235292   0.337   0.180   0.901  0.2045  0.1724 -0.8064
 4578TIP3    H135293   0.340   0.217   0.989  1.5046  0.6170 -1.0163
 4578TIP3    H235294   0.362   0.253   0.844 -0.6972 -0.0898 -1.5679
 4579TIP3   OH235295   1.218   0.677   0.118  0.0679 -0.4357 -0.7882
 4579TIP3    H135296   1.188   0.628   0.194 -0.2709  1.2601  0.2190
 4579TIP3    H235297   1.249   0.610   0.057  1.1271 -1.8013  1.1606
 4580TIP3   OH235298   2.227   5.013   8.721  0.1354  0.2300 -0.0906
 4580TIP3    H135299   2.163   5.076   8.688  2.0392  1.9425 -0.7529
 4580TIP3    H235300   2.247   5.043   8.809  1.7505  1.2340 -0.7431
 4581TIP3   OH235301   2.957   1.625   6.975 -0.5418  0.2079  0.1315
 4581TIP3    H135302   2.960   1.666   6.888 -0.4721  0.5661  0.3017
 4581TIP3    H235303   3.028   1.561   6.973 -0.6705  0.0680 -0.1475
 4582TIP3   OH235304   4.067   5.879   2.129  0.6762 -0.5387 -0.0328
 4582TIP3    H135305   3.976   5.851   2.134  0.4018  0.3675  0.4068
 4582TIP3    H235306   4.096   5.881   2.221  1.5474 -2.0517 -0.2433
 4583TIP3   OH235307   5.115   2.536   1.394  0.1699 -0.1140  0.1923
 4583TIP3    H135308   5.163   2.527   1.476  1.5375  1.1295 -0.4370
 4583TIP3    H235309   5.030   2.495   1.412  0.0406  1.0045  2.5429
 4584TIP3   OH235310   1.945   0.671   6.896 -0.5914  0.0230 -0.3260
 4584TIP3    H135311   2.007   0.712   6.836  0.0586 -2.6808 -1.7206
 4584TIP3    H235312   1.999   0.634   6.966 -0.9134 -0.1081 -0.1437
 4585TIP3   OH235313   0.985   2.834   8.196 -0.3019  0.2290  0.2034
 4585TIP3    H135314   0.916   2.864   8.137  0.8003 -0.1366 -1.3234
 4585TIP3    H235315   1.066   2.866   8.158  0.5331 -0.8488  0.9934
 4586TIP3   OH235316   3.574   0.329   7.591  0.0234 -0.3791  0.3148
 4586TIP3    H135317   3.641   0.288   7.535 -0.5248  1.1506 -1.5909
 4586TIP3    H235318   3.610   0.322   7.679  3.0813  0.8940 -0.6547
 4587TIP3   OH235319   3.660   5.398   0.452  0.0753 -0.4675  0.4247
 4587TIP3    H135320   3.727   5.459   0.422 -1.7590  1.3803 -0.1752
 4587TIP3    H235321   3.611   5.375   0.374  0.2169 -2.0994  0.7871
 4588TIP3   OH235322   4.501   2.805   7.747  0.1807  0.3312  0.7512
 4588TIP3    H135323   4.523   2.897   7.732  1.2697  0.1396  1.1132
 4588TIP3    H235324   4.570   2.773   7.805 -1.0504 -0.3068  1.9297
 4589TIP3   OH235325   6.109   1.948   0.502 -0.0881 -0.5997  0.1618
 4589TIP3    H135326   6.018   1.979   0.501 -0.0796 -0.4814 -2.2520
 4589TIP3    H235327   6.102   1.857   0.531 -1.1497 -0.9762 -1.1705
 4590TIP3   OH235328   3.295   4.111   0.589 -0.4514 -0.2024  0.6455
 4590TIP3    H135329   3.262   4.199   0.570  0.0754  0.1370  1.2748
 4590TIP3    H235330   3.383   4.110   0.551 -0.7054 -0.6911  0.0512
 4591TIP3   OH235331   0.386   0.909   6.469  0.0738 -0.2692  0.2097
 4591TIP3    H135332   0.481   0.920   6.466 -0.0494  0.7718 -0.4465
 4591TIP3    H235333   0.354   0.962   6.396 -1.1194  0.7340  1.4121
 4592TIP3   OH235334   4.641   3.563   7.500 -0.4442 -0.6103  0.4892
 4592TIP3    H135335   4.636   3.654   7.530  0.0574 -0.3702 -0.1212
 4592TIP3    H235336   4.565   3.552   7.444 -0.8484 -0.7619  1.0614
 4593TIP3   OH235337   0.975   1.355   8.683  0.0328 -0.1805  0.5455
 4593TIP3    H135338   1.057   1.395   8.713 -0.6196  0.3931  1.6531
 4593TIP3    H235339   0.936   1.319   8.763 -1.0187 -0.0125  0.1240
 4594TIP3   OH235340   5.077   1.863   2.452 -0.3990  0.0096  0.4182
 4594TIP3    H135341   5.130   1.806   2.396 -0.9110  1.0025 -1.1287
 4594TIP3    H235342   5.138   1.896   2.517  0.4615 -0.3029 -0.2150
 4595TIP3   OH235343   2.224   3.393   7.630 -0.0562 -0.1576  0.4973
 4595TIP3    H135344   2.313   3.408   7.600  0.5921 -1.9963  1.3239
 4595TIP3    H235345   2.168   3.419   7.556  1.2571 -0.6976 -0.7261
 4596TIP3   OH235346   4.923   3.106   1.387  0.0353 -0.0479 -0.5360
 4596TIP3    H135347   4.891   3.138   1.303  0.6553  0.0470 -0.7359
 4596TIP3    H235348   4.959   3.019   1.368 -0.7511 -0.4686 -0.1747
 4597TIP3   OH235349   0.621   2.189   6.760  0.4012 -0.0687 -0.3972
 4597TIP3    H135350   0.535   2.159   6.732 -0.1506  0.6648  0.4221
 4597TIP3    H235351   0.639   2.266   6.707 -0.2809  0.8439  0.6527
 4598TIP3   OH235352   2.904   5.714   0.449  0.7091  0.6078  1.0103
 4598TIP3    H135353   2.844   5.691   0.378  0.9547 -0.6325  1.1763
 4598TIP3    H235354   2.934   5.802   0.428  0.4461  0.4251 -0.1923
 4599TIP3   OH235355   5.889   5.422   0.138  0.2506  0.4398  0.1217
 4599TIP3    H135356   5.832   5.471   0.198  1.9027  0.0663  2.1223
 4599TIP3    H235357   5.881   5.331   0.167  0.1912  0.0696 -1.0185
 4600TIP3   OH235358   1.508   0.188   0.884 -0.3879  0.2676  0.1255
 4600TIP3    H135359   1.514   0.124   0.813 -1.2377  1.4058 -1.0101
 4600TIP3    H235360   1.509   0.135   0.963  2.4787 -0.9585 -0.5916
 4601TIP3   OH235361   1.682   5.586   2.400 -0.3727 -0.3302  0.7455
 4601TIP3    H135362   1.741   5.518   2.367  1.0471 -0.0156  2.4660
 4601TIP3    H235363   1.595   5.558   2.372  0.5855 -0.1310 -3.0955
 4602TIP3   OH235364   5.241   4.803   0.349 -0.6245  0.4667  0.0348
 4602TIP3    H135365   5.306   4.735   0.333  1.4450  2.0763  1.0605
 4602TIP3    H235366   5.167   4.758   0.387 -0.0366 -1.4240 -0.9318
 4603TIP3   OH235367   6.469   0.517   7.573 -0.1461  0.5185  0.5458
 4603TIP3    H135368   6.489   0.468   7.493  0.5761 -1.5404  1.9245
 4603TIP3    H235369   6.514   0.601   7.560  0.3276  0.0673 -1.0276
 4604TIP3   OH235370   4.514   2.393   8.789  0.5457 -0.1232 -0.2696
 4604TIP3    H135371   4.496   2.330   8.719  1.0126 -0.4091 -0.1390
 4604TIP3    H235372   4.589   2.356   8.835 -1.1166 -1.0978  1.7992
 4605TIP3   OH235373   4.971   4.385   2.014 -0.2777  0.5548  0.3465
 4605TIP3    H135374   4.962   4.447   1.942  0.1326  1.0280  0.6937
 4605TIP3    H235375   4.993   4.439   2.090  0.7609 -0.0701  0.5103
 4606TIP3   OH235376   6.493   0.820   2.331 -0.0123 -0.0086  0.3699
 4606TIP3    H135377   6.479   0.730   2.300  0.3103  0.2166 -0.4380
 4606TIP3    H235378   6.413   0.841   2.380 -1.8523  0.6511 -2.6825
 4607TIP3   OH235379   4.721   1.514   2.562  0.4389 -0.0698 -0.5083
 4607TIP3    H135380   4.713   1.498   2.468  1.1689  1.3277 -0.8429
 4607TIP3    H235381   4.646   1.571   2.582  1.1657  0.9399 -0.5949
 4608TIP3   OH235382   4.739   3.036   1.646 -0.0910  0.3862 -0.8667
 4608TIP3    H135383   4.671   2.972   1.624 -1.2459  1.6954 -1.2511
 4608TIP3    H235384   4.764   3.075   1.562  0.7942  0.2765 -0.6707
 4609TIP3   OH235385   5.040   2.661   7.795  0.4436  0.3110 -0.6458
 4609TIP3    H135386   5.030   2.756   7.798 -0.5624  0.2036  0.0504
 4609TIP3    H235387   5.016   2.637   7.705 -1.2799  0.5454 -0.2811
 4610TIP3   OH235388   5.751   6.772   8.228  0.0263  0.3344 -0.2209
 4610TIP3    H135389   5.815   6.838   8.251  0.3423  0.5905 -1.7204
 4610TIP3    H235390   5.716   6.800   8.143 -0.4302 -0.9771 -0.4976
 4611TIP3   OH235391   3.819   5.082   0.437  0.0580 -0.1889 -0.3720
 4611TIP3    H135392   3.808   5.152   0.501  2.5965  1.3751 -1.5035
 4611TIP3    H235393   3.799   5.124   0.353 -2.9405 -2.1133 -0.7810
 4612TIP3   OH235394   4.918   4.278   8.330 -0.1449 -0.6633  0.0573
 4612TIP3    H135395   4.912   4.208   8.265 -0.8212 -0.8703  0.3312
 4612TIP3    H235396   4.855   4.253   8.397  0.4348 -0.3679  0.7154
 4613TIP3   OH235397   0.738   2.584   6.617 -0.1731 -0.2642 -0.5232
 4613TIP3    H135398   0.796   2.546   6.682 -2.0269 -0.4293  1.1213
 4613TIP3    H235399   0.680   2.512   6.591 -2.1021  0.7496  0.7654
 4614TIP3   OH235400   3.973   0.947   2.426 -0.5374  0.1738 -0.3176
 4614TIP3    H135401   3.923   1.026   2.446 -2.3804 -0.4587 -2.0533
 4614TIP3    H235402   4.061   0.979   2.406  0.0928  1.2726  3.3771
 4615TIP3   OH235403   6.018   1.467   1.577 -0.4678 -0.5579 -0.2413
 4615TIP3    H135404   5.987   1.555   1.599 -2.4706 -0.9464 -1.2444
 4615TIP3    H235405   5.951   1.432   1.518  1.9772 -1.5102 -2.6589
 4616TIP3   OH235406   0.599   0.310   0.986 -0.0122  0.1998  0.0033
 4616TIP3    H135407   0.657   0.283   0.914  1.2388  0.9758  0.6810
 4616TIP3    H235408   0.531   0.361   0.943 -0.0124 -0.4295 -0.7804
 4617TIP3   OH235409   4.316   6.468   2.423  0.0732  0.0564  0.4233
 4617TIP3    H135410   4.238   6.523   2.426 -0.6307 -0.9033 -0.0914
 4617TIP3    H235411   4.355   6.486   2.338  0.4621  0.5818  0.7051
 4618TIP3   OH235412   3.436   0.968   6.422 -0.3462 -0.1679  0.2823
 4618TIP3    H135413   3.432   0.894   6.361 -0.7560  0.1036 -0.0273
 4618TIP3    H235414   3.345   0.993   6.435 -0.2530 -0.1127  0.8840
 4619TIP3   OH235415   5.862   0.694   0.036  0.3817 -0.4681  0.1711
 4619TIP3    H135416   5.897   0.696   0.125  1.6705  1.4299 -0.3300
 4619TIP3    H235417   5.937   0.713  -0.020 -0.3630 -1.8532 -1.3734
 4620TIP3   OH235418   3.242   1.214   1.911  0.6489  0.3941  0.1109
 4620TIP3    H135419   3.253   1.151   1.839  1.1664  2.0648 -1.3404
 4620TIP3    H235420   3.159   1.258   1.892  0.3698  0.2807  1.0281
 4621TIP3   OH235421   6.755   6.199   1.520  0.3388 -0.1688 -0.7632
 4621TIP3    H135422   6.839   6.174   1.560  0.1069  2.5946  1.7997
 4621TIP3    H235423   6.690   6.179   1.587 -0.7267  0.2259 -1.6565
 4622TIP3   OH235424   3.417   2.285   1.337 -0.4732 -0.4596  0.2009
 4622TIP3    H135425   3.377   2.232   1.406 -0.0137 -2.0311 -0.7108
 4622TIP3    H235426   3.349   2.292   1.270 -0.3741 -0.2755  0.1209
 4623TIP3   OH235427   6.261   1.598   1.006 -0.2105  0.0651 -0.4318
 4623TIP3    H135428   6.342   1.571   0.963 -0.3789 -0.4816 -0.4098
 4623TIP3    H235429   6.241   1.526   1.066 -0.6919  0.2180 -0.4091
 4624TIP3   OH235430   3.440   0.712   7.337 -0.4841 -0.7542  0.3227
 4624TIP3    H135431   3.505   0.736   7.404 -0.0027  0.1024 -0.4313
 4624TIP3    H235432   3.416   0.622   7.359  0.4721 -0.8639  1.0050
 4625TIP3   OH235433   5.546   0.191   0.845 -0.4420 -0.1788 -0.0227
 4625TIP3    H135434   5.528   0.173   0.937 -0.4108 -2.4212 -0.3831
 4625TIP3    H235435   5.460   0.198   0.804 -0.4553  0.6472  0.1359
 4626TIP3   OH235436   6.519   6.746   0.662  0.0037 -0.0510  0.0093
 4626TIP3    H135437   6.441   6.692   0.673  1.0322 -1.5204  0.3797
 4626TIP3    H235438   6.491   6.816   0.603 -1.2054 -1.4084 -1.1266
 4627TIP3   OH235439   1.317   4.753   1.947 -0.0805  0.3778 -0.4888
 4627TIP3    H135440   1.410   4.739   1.926 -0.0404 -0.0570 -0.0465
 4627TIP3    H235441   1.287   4.667   1.977  0.7017  1.5221  4.4133
 4628TIP3   OH235442   3.586   4.198   1.803 -0.1112  0.2293  0.6851
 4628TIP3    H135443   3.605   4.171   1.713 -2.4897 -3.1144  1.0446
 4628TIP3    H235444   3.628   4.285   1.810  1.7622 -0.1549 -2.9807
 4629TIP3   OH235445   3.381   5.574   8.538  0.1032 -0.2114  0.7057
 4629TIP3    H135446   3.450   5.634   8.565  0.3044  1.2266 -2.4960
 4629TIP3    H235447   3.299   5.621   8.556  0.2537  2.7515 -4.4049
 4630TIP3   OH235448   1.075   0.271   8.521  0.1991 -0.3007  0.1568
 4630TIP3    H135449   1.143   0.206   8.497 -0.2911 -0.6740 -0.2473
 4630TIP3    H235450   0.993   0.226   8.503 -0.1671  0.0354  0.9671
 4631TIP3   OH235451   6.797   6.231   1.011  0.1867  0.2898 -0.1329
 4631TIP3    H135452   6.842   6.215   1.094  0.0980 -2.2887 -0.4838
 4631TIP3    H235453   6.720   6.281   1.035  1.4990  1.9043  0.9403
 4632TIP3   OH235454   3.369   5.090   1.109 -0.6845 -0.2277  0.3446
 4632TIP3    H135455   3.309   5.077   1.036  1.4552 -0.5569 -1.4836
 4632TIP3    H235456   3.401   5.179   1.099 -1.8073  0.4241  2.1039
 4633TIP3   OH235457   6.279   2.036   0.318  0.2089  0.1635  0.7663
 4633TIP3    H135458   6.208   2.025   0.382 -0.1348  2.5148  0.8589
 4633TIP3    H235459   6.264   1.965   0.255 -1.6291 -0.0152  1.3248
 4634TIP3   OH235460   0.022   0.206   2.046 -0.6901 -0.7712  0.3318
 4634TIP3    H135461   0.005   0.123   2.091  1.7306 -1.2542  0.5150
 4634TIP3    H235462   0.117   0.212   2.042 -0.7994  1.1602 -1.2822
 4635TIP3   OH235463   1.310   1.555   0.762  0.5269 -0.0360 -0.1277
 4635TIP3    H135464   1.294   1.596   0.677  1.8305  1.3445  0.2311
 4635TIP3    H235465   1.223   1.546   0.801  0.0584  1.1543 -0.8227
 4636TIP3   OH235466   6.742   1.599   7.614 -0.4885  0.0222 -0.1199
 4636TIP3    H135467   6.735   1.695   7.612 -2.2637 -0.0914 -1.0788
 4636TIP3    H235468   6.834   1.581   7.597 -0.2464  1.5546 -0.5449
 4637TIP3   OH235469   3.919   1.142   0.694  0.6966  0.4598  0.6583
 4637TIP3    H135470   3.853   1.087   0.651  0.4046  0.3433  1.2563
 4637TIP3    H235471   3.993   1.141   0.633  0.8802 -0.9801  0.8554
 4638TIP3   OH235472   6.561   4.115   1.276 -0.3885  0.4116 -0.2481
 4638TIP3    H135473   6.499   4.148   1.211 -1.7348  2.0430  1.7173
 4638TIP3    H235474   6.614   4.192   1.298  0.5646 -0.3141  0.0418
 4639TIP3   OH235475   1.335   5.019   6.661 -0.9035 -0.6416  0.3652
 4639TIP3    H135476   1.315   4.983   6.574 -1.1433  0.3372  0.0025
 4639TIP3    H235477   1.315   5.112   6.654  0.2396 -0.3158  1.1176
 4640TIP3   OH235478   5.480   5.390   0.020 -0.6306  0.1166 -0.0769
 4640TIP3    H135479   5.464   5.342  -0.061 -1.0467 -0.9416  0.6034
 4640TIP3    H235480   5.574   5.407   0.020 -0.8817  1.7072 -1.6052
 4641TIP3   OH235481   2.077   0.303   0.484 -0.0517  1.1377 -0.1130
 4641TIP3    H135482   2.134   0.239   0.525  2.1596  1.1087 -2.9170
 4641TIP3    H235483   1.992   0.259   0.478  0.6454 -0.3636  0.6419
 4642TIP3   OH235484   0.558   1.044   0.888 -0.1091  0.0025 -0.6411
 4642TIP3    H135485   0.532   0.991   0.812  0.6424  0.7956 -1.4769
 4642TIP3    H235486   0.475   1.072   0.926 -0.5074 -1.1683 -0.6060
 4643TIP3   OH235487   1.375   5.000   1.544 -0.3758 -0.1565 -0.1783
 4643TIP3    H135488   1.420   4.918   1.567 -3.5028 -1.5428  1.5737
 4643TIP3    H235489   1.331   5.027   1.624 -2.4739  1.2090 -1.6860
 4644TIP3   OH235490   1.696   0.537   1.126 -0.0047 -0.0112  0.4137
 4644TIP3    H135491   1.700   0.516   1.033  1.4679 -2.5075  0.9296
 4644TIP3    H235492   1.633   0.475   1.163 -0.5253  0.9014  1.1199
 4645TIP3   OH235493   6.102   5.810   8.440 -0.3542 -0.1682 -0.5516
 4645TIP3    H135494   6.142   5.841   8.521 -0.4720 -0.2051 -0.4796
 4645TIP3    H235495   6.141   5.724   8.425 -0.7815 -0.4185 -0.2137
 4646TIP3   OH235496   1.652   6.227   1.125 -0.0306 -0.2749 -0.4806
 4646TIP3    H135497   1.559   6.238   1.102 -0.6056 -1.9295  0.9056
 4646TIP3    H235498   1.660   6.136   1.151  1.6633  0.2376  0.9603
 4647TIP3   OH235499   2.522   5.931   1.238 -0.2538 -0.1880  0.4034
 4647TIP3    H135500   2.463   5.936   1.163  1.9472  1.0858 -1.3888
 4647TIP3    H235501   2.527   5.838   1.260 -0.6556 -0.6435 -1.3071
 4648TIP3   OH235502   2.908   6.510   0.552  0.4415 -0.0198  0.1614
 4648TIP3    H135503   2.945   6.587   0.595 -1.5719  1.2477 -0.2126
 4648TIP3    H235504   2.941   6.436   0.603  3.1764  0.9621 -0.0038
 4649TIP3   OH235505   0.809   4.300   0.864  0.0522  0.2681 -0.6229
 4649TIP3    H135506   0.741   4.355   0.826 -0.1846 -1.1807 -2.4201
 4649TIP3    H235507   0.859   4.267   0.789  2.0677  0.4134  0.5844
 4650TIP3   OH235508   4.162   5.127   0.892  0.9746 -0.3910  0.1915
 4650TIP3    H135509   4.156   5.053   0.952  1.5400 -0.1142  0.5989
 4650TIP3    H235510   4.114   5.198   0.936  2.0091  0.0364  0.6901
 4651TIP3   OH235511   1.162   4.380   0.594  0.0506 -0.0224 -0.2275
 4651TIP3    H135512   1.255   4.386   0.615  0.3874  1.5632 -1.8357
 4651TIP3    H235513   1.128   4.312   0.651  1.4191  1.8546  3.0877
 4652TIP3   OH235514   1.395   4.348   7.707  0.0929 -0.7761 -0.2408
 4652TIP3    H135515   1.424   4.342   7.615 -0.0382 -0.5816 -0.2942
 4652TIP3    H235516   1.399   4.258   7.739 -0.7211 -0.9837 -0.6983
 4653TIP3   OH235517   1.999   2.068   0.866  0.1168 -0.2376  0.1479
 4653TIP3    H135518   1.935   2.020   0.917 -0.2996 -1.6694 -1.6174
 4653TIP3    H235519   1.947   2.119   0.804  0.6443 -0.5830 -0.5904
 4654TIP3   OH235520   1.066   0.471   8.341 -0.0144  0.0302  0.3990
 4654TIP3    H135521   1.074   0.438   8.251 -0.7686 -0.4374  0.4961
 4654TIP3    H235522   1.076   0.393   8.396  0.7304  0.3552  0.7430
 4655TIP3   OH235523   6.270   0.516   6.682 -0.1005  0.2355 -0.1538
 4655TIP3    H135524   6.296   0.436   6.636  0.9637  1.0646 -1.0565
 4655TIP3    H235525   6.342   0.578   6.664 -1.4251  1.7578 -0.4115
 4656TIP3   OH235526   5.659   0.466   0.400 -0.0090 -0.3062 -0.3294
 4656TIP3    H135527   5.655   0.375   0.427 -0.2466 -0.0117  0.6631
 4656TIP3    H235528   5.587   0.508   0.447 -0.4930  0.2212 -1.4837
 4657TIP3   OH235529   0.545   4.938   0.565  0.4367  0.2431 -0.1488
 4657TIP3    H135530   0.626   4.989   0.567  1.1624 -0.8365 -0.6020
 4657TIP3    H235531   0.523   4.924   0.657  1.1631 -0.0345 -0.0095
 4658TIP3   OH235532   2.794   4.506   1.064  0.0403  0.6029  0.7821
 4658TIP3    H135533   2.710   4.519   1.107 -0.3526  4.0590 -0.6885
 4658TIP3    H235534   2.855   4.563   1.112  0.8231  0.4313  0.0169
 4659TIP3   OH235535   1.282   5.425   7.034  0.0766  0.1801 -0.1408
 4659TIP3    H135536   1.251   5.436   6.944  1.0628 -0.7940 -0.6288
 4659TIP3    H235537   1.220   5.474   7.088 -0.5144  0.7915 -1.3537
 4660TIP3   OH235538   0.943   1.736   6.254  0.0185  0.8657 -0.0786
 4660TIP3    H135539   1.035   1.759   6.250 -0.3523  2.2955 -1.3821
 4660TIP3    H235540   0.900   1.799   6.196 -1.6590 -0.3710 -0.2534
 4661TIP3   OH235541   3.723   6.642   2.392 -0.1710  0.2677 -1.2064
 4661TIP3    H135542   3.713   6.556   2.433  0.5191  0.0243 -1.5295
 4661TIP3    H235543   3.635   6.665   2.361 -0.6484  0.3281  0.1342
 4662TIP3   OH235544   1.546   5.808   1.121 -0.3621 -0.0534  0.0838
 4662TIP3    H135545   1.622   5.800   1.063  0.7676  0.9538  1.3416
 4662TIP3    H235546   1.559   5.892   1.166 -2.8026  0.6676 -0.4317
 4663TIP3   OH235547   4.239   3.390   1.126  0.3328 -0.3230  0.5326
 4663TIP3    H135548   4.184   3.404   1.049 -3.0812 -1.9687  2.4208
 4663TIP3    H235549   4.280   3.475   1.142  0.2793  0.3508 -2.3864
 4664TIP3   OH235550   2.446   0.671   1.357 -0.6118  0.0734 -0.2552
 4664TIP3    H135551   2.429   0.689   1.449  0.9878 -0.0230  0.0740
 4664TIP3    H235552   2.363   0.691   1.314 -1.1294  0.9664  1.0826
 4665TIP3   OH235553   4.587   0.626   0.732 -0.0302  0.5640  0.4530
 4665TIP3    H135554   4.539   0.577   0.799  2.1095 -1.3886  0.6834
 4665TIP3    H235555   4.649   0.679   0.782 -0.1466  1.0641  0.0731
 4666TIP3   OH235556   1.496   4.482   7.442 -0.0275  0.0584  0.3312
 4666TIP3    H135557   1.558   4.456   7.374  1.2937  4.1228 -0.3189
 4666TIP3    H235558   1.551   4.501   7.518 -1.1052 -0.9885  1.4142
 4667TIP3   OH235559   2.062   0.516   7.093 -0.0177 -0.3331  0.6248
 4667TIP3    H135560   2.155   0.508   7.071 -0.2910  0.4967 -0.9325
 4667TIP3    H235561   2.047   0.446   7.156  1.3600 -1.3252 -0.0872
 4668TIP3   OH235562   4.051   4.519   6.935  0.1084  0.4420 -0.6257
 4668TIP3    H135563   4.074   4.426   6.928  1.6242  0.6032  1.1755
 4668TIP3    H235564   4.013   4.541   6.850 -1.3463 -2.0671 -0.7393
 4669TIP3   OH235565   4.712   2.825   6.852  0.8477  0.3485  0.5063
 4669TIP3    H135566   4.713   2.769   6.930 -0.4874 -0.3974  0.0250
 4669TIP3    H235567   4.654   2.779   6.791  0.7809  1.6038 -0.4032
 4670TIP3   OH235568   3.076   5.024   8.473 -0.6086 -0.6392  0.3815
 4670TIP3    H135569   3.153   5.075   8.447  0.4896 -2.3017  0.2061
 4670TIP3    H235570   3.038   5.072   8.546  1.0711 -0.1873  0.9942
 4671TIP3   OH235571   5.754   6.206   6.816  0.0086 -0.2773 -0.4241
 4671TIP3    H135572   5.755   6.248   6.730 -0.3187 -2.3244 -1.4663
 4671TIP3    H235573   5.740   6.113   6.798  1.6814 -1.0287  1.7288
 4672TIP3   OH235574   5.429   6.548   0.770 -0.4701  0.0117 -0.1878
 4672TIP3    H135575   5.474   6.522   0.690 -0.1243  0.7085 -0.2240
 4672TIP3    H235576   5.462   6.488   0.837 -0.9460 -0.7383 -0.6066
 4673TIP3   OH235577   2.887   5.341   8.114  0.0527  0.1039 -0.0935
 4673TIP3    H135578   2.969   5.358   8.161  0.2157  0.3203 -0.4455
 4673TIP3    H235579   2.867   5.249   8.133  0.9234 -0.2561 -0.8096
 4674TIP3   OH235580   3.884   6.658   1.625  0.3206 -0.1461  0.1012
 4674TIP3    H135581   3.919   6.569   1.620 -0.3325 -0.4243  0.3330
 4674TIP3    H235582   3.866   6.682   1.534  0.2059 -0.3749  0.0622
 4675TIP3   OH235583   4.675   6.158   1.832  0.4249  0.2549 -0.1643
 4675TIP3    H135584   4.598   6.206   1.800  1.5370  2.1643 -0.1062
 4675TIP3    H235585   4.652   6.134   1.922 -0.5181 -0.1853 -0.5068
 4676TIP3   OH235586   5.777   0.744   0.918 -0.1271  0.7564  0.4436
 4676TIP3    H135587   5.872   0.741   0.929  0.0691  2.0733 -0.6175
 4676TIP3    H235588   5.757   0.837   0.909 -1.5040  0.4853  0.4273
 4677TIP3   OH235589   5.476   0.295   8.092  0.2314 -0.1051  0.7460
 4677TIP3    H135590   5.429   0.377   8.073  0.4445 -0.3998 -1.3082
 4677TIP3    H235591   5.479   0.290   8.187 -1.5409  1.2798  0.9223
 4678TIP3   OH235592   1.895   4.508   0.188  0.3022 -0.5374  0.1547
 4678TIP3    H135593   1.926   4.420   0.211  1.4313  0.2975  2.0864
 4678TIP3    H235594   1.975   4.559   0.175 -0.2925  0.6233  0.8756
 4679TIP3   OH235595   1.132   4.101   6.318  0.4375 -0.1167  0.1387
 4679TIP3    H135596   1.127   4.145   6.403 -1.1267  1.4507 -0.7003
 4679TIP3    H235597   1.060   4.138   6.268 -0.1807 -2.7584 -1.1019
 4680TIP3   OH235598   1.083   5.857   8.262  0.0473 -0.3155  0.1106
 4680TIP3    H135599   1.152   5.916   8.294 -0.8449  1.1818 -0.5864
 4680TIP3    H235600   1.130   5.782   8.227  1.2674  0.2150  0.5453
 4681TIP3   OH235601   5.266   4.352   0.215  0.0728  0.0378 -0.0112
 4681TIP3    H135602   5.228   4.296   0.283  1.0731 -1.1345 -0.3737
 4681TIP3    H235603   5.213   4.432   0.217 -1.3047 -0.8501  0.6384
 4682TIP3   OH235604   1.530   3.466   8.563 -0.5932  0.0857  0.6036
 4682TIP3    H135605   1.483   3.543   8.594 -1.0461 -0.2750  0.8289
 4682TIP3    H235606   1.468   3.423   8.503  0.1245  0.5764 -0.5281
 4683TIP3   OH235607   1.404   0.184   0.185 -0.1393  0.4254  0.2732
 4683TIP3    H135608   1.408   0.279   0.177 -1.4598  0.7195  2.5156
 4683TIP3    H235609   1.353   0.156   0.109  1.9067  1.2349 -1.5049
 4684TIP3   OH235610   0.643   6.415   6.893 -0.6565 -0.0128  0.3522
 4684TIP3    H135611   0.721   6.396   6.841 -0.1814  1.2271  0.5787
 4684TIP3    H235612   0.581   6.347   6.868  0.0399 -0.2487 -0.8202
 4685TIP3   OH235613   5.093   4.532   7.037  0.4447  0.6706 -0.0554
 4685TIP3    H135614   5.170   4.478   7.055  0.9121  1.5500  0.6345
 4685TIP3    H235615   5.116   4.579   6.957 -0.3697 -0.8668 -1.2535
 4686TIP3   OH235616   3.794   1.032   6.852  0.0601 -0.6907  0.1936
 4686TIP3    H135617   3.712   0.997   6.820  0.0488  0.2835 -0.8991
 4686TIP3    H235618   3.777   1.125   6.864  0.6849 -0.6752  1.0424
 4687TIP3   OH235619   1.138   0.435   1.615 -0.4313  0.4121 -0.4690
 4687TIP3    H135620   1.204   0.368   1.635 -0.2898  0.6292 -0.2031
 4687TIP3    H235621   1.056   0.399   1.648 -0.7463 -0.5600 -2.2022
 4688TIP3   OH235622   3.353   1.888   8.022  0.3225 -0.0190  0.6643
 4688TIP3    H135623   3.430   1.941   8.002  1.0666 -0.8365  1.2622
 4688TIP3    H235624   3.292   1.905   7.950  2.0194 -1.2217 -1.1641
 4689TIP3   OH235625   6.401   5.741   7.965 -0.7816  0.1908  0.0518
 4689TIP3    H135626   6.487   5.782   7.964 -0.9407  0.6206  1.4914
 4689TIP3    H235627   6.418   5.650   7.987 -0.6367  0.0537 -0.5957
 4690TIP3   OH235628   6.235   3.622   7.254  0.5681 -1.1434  0.3408
 4690TIP3    H135629   6.304   3.641   7.318 -0.1724 -0.8586  1.0766
 4690TIP3    H235630   6.232   3.699   7.198  0.2027 -0.7350  0.9088
 4691TIP3   OH235631   1.087   0.720   0.744 -0.2155  0.1815 -0.0162
 4691TIP3    H135632   1.124   0.747   0.828 -0.9753  1.4902 -0.0662
 4691TIP3    H235633   1.136   0.642   0.719  0.9723  0.5935  0.9677
 4692TIP3   OH235634   3.136   0.885   7.449  0.1620  0.6798  0.1062
 4692TIP3    H135635   3.180   0.955   7.497 -0.9820  0.5973  1.3463
 4692TIP3    H235636   3.160   0.805   7.495  3.4298 -0.2087 -2.6966
 4693TIP3   OH235637   0.814   0.077   7.626  0.3733  0.8159  0.5548
 4693TIP3    H135638   0.724   0.072   7.594  0.8432  0.7593 -0.8421
 4693TIP3    H235639   0.867   0.055   7.550  1.5384 -0.5423  1.7148
 4694TIP3   OH235640   1.685   1.021   8.436 -0.4267  0.1026  0.1582
 4694TIP3    H135641   1.640   1.042   8.518 -0.0791  0.7920  0.1739
 4694TIP3    H235642   1.637   1.069   8.369 -0.2236  0.1809  0.0666
 4695TIP3   OH235643   4.467   1.251   0.581  0.0031  0.5707  0.4135
 4695TIP3    H135644   4.513   1.335   0.586 -0.9937  1.0643  2.2731
 4695TIP3    H235645   4.456   1.235   0.487  1.8078  1.6065 -0.0101
 4696TIP3   OH235646   2.252   1.883   7.375  1.0325 -0.4448  0.3902
 4696TIP3    H135647   2.292   1.801   7.404  1.2853 -0.4038  0.1637
 4696TIP3    H235648   2.161   1.861   7.358  1.0821 -0.6621  0.4054
 4697TIP3   OH235649   2.765   2.274   0.403 -0.0900 -0.0618 -0.4715
 4697TIP3    H135650   2.674   2.278   0.434  0.2205  1.1994  0.3752
 4697TIP3    H235651   2.757   2.275   0.308 -0.9734 -0.1616 -0.4136
 4698TIP3   OH235652   0.007   2.990   6.652 -1.2302  0.1274  0.2947
 4698TIP3    H135653  -0.075   2.942   6.667 -1.1317  0.1866  1.0785
 4698TIP3    H235654  -0.020   3.066   6.602 -1.2388 -1.2445 -1.9114
 4699TIP3   OH235655   4.160   6.015   7.324 -0.4392 -0.2377 -0.3505
 4699TIP3    H135656   4.085   6.074   7.331  0.2130  0.5808 -0.2174
 4699TIP3    H235657   4.152   5.958   7.401 -0.0006  0.9446  0.5991
 4700TIP3   OH235658   0.627   2.130   7.352 -0.6027  0.3736 -0.7727
 4700TIP3    H135659   0.667   2.089   7.276  1.2388 -0.2091  0.4400
 4700TIP3    H235660   0.700   2.141   7.414 -1.7542  2.1380  0.3479
 4701TIP3   OH235661   6.466   5.800   8.407 -0.1451 -1.1630 -0.1194
 4701TIP3    H135662   6.487   5.731   8.343  1.7158  1.5376 -2.6936
 4701TIP3    H235663   6.400   5.853   8.364 -0.1526 -0.2386  0.9925
 4702TIP3   OH235664   6.287   2.691   0.947 -0.1842  0.3075  0.1275
 4702TIP3    H135665   6.328   2.606   0.927  1.2484  0.6194  1.4737
 4702TIP3    H235666   6.316   2.748   0.876 -0.9473 -0.2528 -0.6538
 4703TIP3   OH235667   3.075   3.234   8.670  0.2603  0.4049 -0.3040
 4703TIP3    H135668   3.119   3.315   8.694 -2.1518  1.2345  1.8662
 4703TIP3    H235669   3.033   3.253   8.585  1.7290  0.5156 -1.0274
 4704TIP3   OH235670   1.203   0.345   7.412  0.4268  0.0010  0.5609
 4704TIP3    H135671   1.207   0.250   7.401  1.1161  0.1315 -0.4493
 4704TIP3    H235672   1.198   0.358   7.506 -2.5465 -1.1281  0.6786
 4705TIP3   OH235673   2.962   4.022   8.178  0.6997  0.2310 -0.5666
 4705TIP3    H135674   3.035   3.960   8.180  1.1471  0.7511 -0.6514
 4705TIP3    H235675   3.003   4.108   8.170  0.1772  0.7065  1.2311
 4706TIP3   OH235676   2.212   6.468   8.549 -0.3038 -0.0628 -0.5790
 4706TIP3    H135677   2.219   6.502   8.639  0.2563 -2.3950  0.3253
 4706TIP3    H235678   2.301   6.476   8.514 -0.3366  0.0792 -0.6291
 4707TIP3   OH235679   3.462   3.447   2.206 -0.5092 -0.3779  0.1222
 4707TIP3    H135680   3.452   3.356   2.180  0.2196 -0.1379 -1.0702
 4707TIP3    H235681   3.403   3.496   2.150  0.1170  0.0175 -0.2060
 4708TIP3   OH235682   5.391   2.325   8.023 -0.6272 -0.3896 -0.4762
 4708TIP3    H135683   5.307   2.317   7.978 -0.1201 -0.1052 -1.5245
 4708TIP3    H235684   5.447   2.260   7.980 -0.2676 -0.4735  0.1127
 4709TIP3   OH235685   0.105   5.941   1.441  0.4899 -0.2931 -0.5056
 4709TIP3    H135686   0.013   5.919   1.432 -0.3716  2.8816 -0.5983
 4709TIP3    H235687   0.118   5.951   1.535  0.4257  0.3801 -0.5649
 4710TIP3   OH235688   0.756   3.869   2.084  0.2299  0.2147  0.1959
 4710TIP3    H135689   0.807   3.857   2.163 -0.6138 -2.6976  0.4216
 4710TIP3    H235690   0.735   3.963   2.082 -1.6015  0.1178  4.6489
 4711TIP3   OH235691   1.163   4.733   1.566  0.5454 -0.1586 -0.2737
 4711TIP3    H135692   1.152   4.726   1.661 -0.6400 -2.4069 -0.4992
 4711TIP3    H235693   1.216   4.656   1.543  0.6397  0.2380 -1.4648
 4712TIP3   OH235694   3.977   6.725   8.142 -0.1218  0.0226 -0.6068
 4712TIP3    H135695   3.937   6.680   8.216 -1.5836 -0.1026 -1.4276
 4712TIP3    H235696   4.023   6.656   8.094 -0.3117 -0.1447 -0.5497
 4713TIP3   OH235697   6.483   0.987   0.153  0.2085  0.2901  0.2757
 4713TIP3    H135698   6.548   0.918   0.142 -0.3806 -0.2086 -0.1609
 4713TIP3    H235699   6.409   0.944   0.196 -0.1446  0.6558  0.0422
 4714TIP3   OH235700   2.339   4.946   1.775 -0.2672  0.0433 -0.0783
 4714TIP3    H135701   2.362   5.003   1.849 -1.5042 -0.9739  1.1688
 4714TIP3    H235702   2.373   4.860   1.800  0.4490 -0.0508 -1.3284
 4715TIP3   OH235703   6.020   4.776   0.934 -0.5828  0.8177 -0.2228
 4715TIP3    H135704   5.963   4.701   0.916 -1.1784  0.7277  1.7961
 4715TIP3    H235705   6.108   4.744   0.916 -0.4746 -1.4998  3.4280
 4716TIP3   OH235706   1.412   1.315   1.695 -0.9313 -0.4077 -0.4126
 4716TIP3    H135707   1.484   1.257   1.719  0.0987  1.4155  1.1388
 4716TIP3    H235708   1.340   1.256   1.672 -0.0643 -2.2954  1.4518
 4717TIP3   OH235709   4.752   0.344   7.745 -0.4302 -0.0380  0.4063
 4717TIP3    H135710   4.710   0.289   7.680  0.2039 -1.6054  1.2722
 4717TIP3    H235711   4.697   0.334   7.823  0.1632 -0.1187  0.8162
 4718TIP3   OH235712   5.232   0.601   0.398 -0.3749 -0.2602  0.1711
 4718TIP3    H135713   5.276   0.599   0.313 -1.1270 -0.9924 -0.2227
 4718TIP3    H235714   5.138   0.601   0.376 -0.5786 -0.3533  1.0018
 4719TIP3   OH235715   6.774   1.408   7.126 -0.5536  0.5249  0.4645
 4719TIP3    H135716   6.738   1.490   7.159  2.0040  1.6599  0.6948
 4719TIP3    H235717   6.808   1.364   7.204  0.9864  0.8310 -0.0049
 4720TIP3   OH235718   4.502   4.033   7.705  0.1554  0.3964  0.2370
 4720TIP3    H135719   4.587   4.045   7.746  0.0648 -0.1455  0.5997
 4720TIP3    H235720   4.440   4.074   7.765 -0.1006 -1.3375  1.2416
 4721TIP3   OH235721   0.725   4.297   1.732 -0.3644 -0.0068  0.0521
 4721TIP3    H135722   0.648   4.257   1.773 -1.0976  0.3499 -0.9307
 4721TIP3    H235723   0.787   4.310   1.804 -0.8613 -1.1379  0.7103
 4722TIP3   OH235724   5.062   1.273   8.629 -0.2801  0.1029 -0.8899
 4722TIP3    H135725   5.083   1.202   8.690 -0.5863 -1.2244 -2.2545
 4722TIP3    H235726   5.143   1.321   8.618 -0.4497  0.9690  1.2744
 4723TIP3   OH235727   6.223   2.102   8.588 -0.0400 -0.0227  0.0269
 4723TIP3    H135728   6.139   2.142   8.610  0.4487 -0.1531  2.4200
 4723TIP3    H235729   6.247   2.052   8.667  2.2775  0.0106 -0.5874
 4724TIP3   OH235730   5.401   5.626   2.081 -0.5052  0.3737 -0.4132
 4724TIP3    H135731   5.310   5.604   2.097 -0.0626 -0.9965  0.3387
 4724TIP3    H235732   5.408   5.719   2.104 -1.2829  0.0003  1.4195
 4725TIP3   OH235733   3.368   5.988   0.021 -0.0742 -0.4100  0.5820
 4725TIP3    H135734   3.372   5.980  -0.074 -1.4753 -1.2986  0.5671
 4725TIP3    H235735   3.448   6.035   0.044  0.8734 -1.1802 -0.9201
 4726TIP3   OH235736   2.562   4.505   8.202 -0.0011  0.8282  0.1114
 4726TIP3    H135737   2.530   4.573   8.261 -0.2265  1.8198 -1.1034
 4726TIP3    H235738   2.487   4.446   8.192  0.1672  0.4344  1.1071
 4727TIP3   OH235739   1.935   0.583   7.346 -0.4880  0.0189 -0.1180
 4727TIP3    H135740   2.001   0.625   7.291 -0.2022  0.1470  0.3214
 4727TIP3    H235741   1.952   0.489   7.336 -0.8178  0.0157 -0.7150
 4728TIP3   OH235742   5.117   5.319   1.978 -0.0539 -0.4591 -0.6667
 4728TIP3    H135743   5.114   5.292   2.069  1.8464  2.6818  0.4862
 4728TIP3    H235744   5.114   5.237   1.928 -2.0117 -2.2452  2.1054
 4729TIP3   OH235745   3.407   1.487   0.305  0.0599  0.1581 -0.4349
 4729TIP3    H135746   3.403   1.415   0.368 -0.4633  0.1849 -0.4352
 4729TIP3    H235747   3.462   1.453   0.234  0.3119 -0.0204 -0.1592
 4730TIP3   OH235748   4.350   1.121   7.047  0.3174 -0.5395  0.5406
 4730TIP3    H135749   4.356   1.065   7.124 -2.8537 -0.8222  0.6848
 4730TIP3    H235750   4.280   1.083   6.994 -1.0091  2.4590 -0.0531
 4731TIP3   OH235751   2.196   1.218   0.564 -0.5654 -0.1506  0.0258
 4731TIP3    H135752   2.183   1.123   0.561 -2.0214  0.0361 -0.6141
 4731TIP3    H235753   2.273   1.230   0.619 -0.1020 -1.7210 -0.2329
 4732TIP3   OH235754   3.411   4.635   8.243  0.5107  0.2658  0.0057
 4732TIP3    H135755   3.378   4.725   8.235 -0.5152 -0.1149 -0.2506
 4732TIP3    H235756   3.485   4.631   8.182 -0.4812  0.4786 -1.2514
 4733TIP3   OH235757   1.066   5.939   6.797  0.6145 -0.4672 -0.6611
 4733TIP3    H135758   1.143   5.903   6.841  0.3644  0.9842  1.0601
 4733TIP3    H235759   0.992   5.910   6.850  0.3022  1.2355 -0.1055
 4734TIP3   OH235760   4.229   1.919   1.390  0.2715  0.7416 -0.8666
 4734TIP3    H135761   4.311   1.870   1.396  0.4550  0.8729 -2.0067
 4734TIP3    H235762   4.175   1.885   1.461  1.1635  0.3638 -0.3541
 4735TIP3   OH235763   0.159   3.712   0.835  0.5566 -0.3128  0.1234
 4735TIP3    H135764   0.102   3.788   0.844 -0.1748 -0.9990  1.6327
 4735TIP3    H235765   0.205   3.706   0.919  0.3129 -1.7609  0.1767
 4736TIP3   OH235766   4.463   3.432   0.714  0.4058  0.4115  0.4423
 4736TIP3    H135767   4.394   3.496   0.694  2.8286  2.1888 -3.1540
 4736TIP3    H235768   4.424   3.348   0.692 -1.1461  1.1648  0.1666
 4737TIP3   OH235769   5.472   5.774   6.978  0.1277 -0.1475 -0.0233
 4737TIP3    H135770   5.398   5.826   7.009 -1.3335 -0.4619 -2.7465
 4737TIP3    H235771   5.435   5.715   6.914  2.0687 -3.3049  1.5250
 4738TIP3   OH235772   6.274   5.795   1.150 -0.0644 -0.3270  0.1277
 4738TIP3    H135773   6.271   5.845   1.069  0.7592 -2.9898 -1.6660
 4738TIP3    H235774   6.192   5.746   1.151 -0.3814  0.1768  1.3113
 4739TIP3   OH235775   3.644   5.786   1.062 -0.1002  0.7828 -0.5274
 4739TIP3    H135776   3.653   5.708   1.008 -0.6976 -1.2896  2.1524
 4739TIP3    H235777   3.711   5.778   1.129 -0.4681  2.3514  0.0877
 4740TIP3   OH235778   0.144   4.345   1.473 -0.2823 -0.0270 -0.5651
 4740TIP3    H135779   0.155   4.379   1.384 -1.2903  2.9535  0.3201
 4740TIP3    H235780   0.209   4.392   1.524  0.7201 -2.1753  0.2629
 4741TIP3   OH235781   5.484   4.873   8.350  0.1357 -0.8717 -0.7554
 4741TIP3    H135782   5.552   4.935   8.376 -0.7775  1.2885 -3.1248
 4741TIP3    H235783   5.519   4.831   8.271 -0.9952 -0.0796 -1.7159
 4742TIP3   OH235784   4.806   5.244   1.891 -0.1678  0.0449 -0.1875
 4742TIP3    H135785   4.886   5.195   1.871  0.3347  1.2028 -1.1305
 4742TIP3    H235786   4.738   5.176   1.899  0.4070 -0.8061 -1.9735
 4743TIP3   OH235787   1.151   4.017   1.227 -0.4064 -0.5016  0.0536
 4743TIP3    H135788   1.112   4.092   1.272 -1.1313 -0.4400 -0.6561
 4743TIP3    H235789   1.229   3.996   1.279  0.1387  1.1003 -0.0622
 4744TIP3   OH235790   0.425   1.871   1.403 -0.1981 -0.0370  0.1880
 4744TIP3    H135791   0.342   1.919   1.404 -1.3683 -1.9098 -0.8492
 4744TIP3    H235792   0.415   1.803   1.470  1.2008  0.7347  1.2309
 4745TIP3   OH235793   5.197   1.942   8.053  0.1335 -0.3766 -0.1072
 4745TIP3    H135794   5.289   1.958   8.074  0.1407 -0.0078 -0.4133
 4745TIP3    H235795   5.192   1.848   8.041  0.0836 -0.6543  1.7714
 4746TIP3   OH235796   5.561   4.107   0.876  0.3945  0.0863  0.5487
 4746TIP3    H135797   5.535   4.138   0.789 -0.7317 -2.0985  0.0540
 4746TIP3    H235798   5.497   4.147   0.936 -0.5048 -0.5578  0.0314
 4747TIP3   OH235799   0.778   1.502   5.808  0.1698  0.0914  0.8745
 4747TIP3    H135800   0.732   1.453   5.740 -0.5916  1.2681  0.5084
 4747TIP3    H235801   0.763   1.451   5.888 -1.0553 -0.0072  0.6094
 4748TIP3   OH235802   1.527   5.141   7.929  0.1709 -0.1342  0.5824
 4748TIP3    H135803   1.565   5.173   7.847  2.9990 -1.8346  1.1108
 4748TIP3    H235804   1.552   5.206   7.994 -2.5271  1.4981  0.1578
 4749TIP3   OH235805   6.628   2.407   0.427 -0.2232 -0.1094 -0.3973
 4749TIP3    H135806   6.569   2.336   0.403 -0.1667 -0.3128  0.0603
 4749TIP3    H235807   6.715   2.377   0.399 -0.3744  0.3511 -1.4207
 4750TIP3   OH235808   4.995   2.295   0.146 -0.0943  0.0004 -0.0537
 4750TIP3    H135809   5.054   2.219   0.153  1.9238  1.5506  0.6532
 4750TIP3    H235810   4.946   2.294   0.228 -0.9630 -1.1860 -0.5549
 4751TIP3   OH235811   1.909   3.792   2.078  0.5570 -0.5755  0.5666
 4751TIP3    H135812   1.932   3.871   2.127 -0.2622  0.2370 -0.3012
 4751TIP3    H235813   1.993   3.755   2.052  0.9660 -0.3185  1.4832
 4752TIP3   OH235814   5.866   2.352   6.731 -0.1073 -0.6102  0.1271
 4752TIP3    H135815   5.801   2.290   6.698  1.5032 -1.2085 -2.1269
 4752TIP3    H235816   5.925   2.367   6.657  1.8610  0.5159  1.8217
 4753TIP3   OH235817   5.886   5.825   8.600 -0.3915  0.0899 -0.0728
 4753TIP3    H135818   5.877   5.738   8.639 -1.5302 -0.6530 -1.8759
 4753TIP3    H235819   5.951   5.814   8.530 -1.4064  0.3702 -1.0895
 4754TIP3   OH235820   6.307   0.570   0.047 -0.5997  0.0278  0.1626
 4754TIP3    H135821   6.285   0.478   0.060  1.9499 -0.7317 -0.3545
 4754TIP3    H235822   6.337   0.600   0.133  0.4323 -0.2259 -0.0913
 4755TIP3   OH235823   1.953   1.265   7.026 -0.0971  0.4381  0.2445
 4755TIP3    H135824   2.027   1.283   7.084 -0.3190  2.0817  0.0836
 4755TIP3    H235825   1.932   1.350   6.987  0.1772 -0.6245 -2.4352
 4756TIP3   OH235826   4.822   2.486   8.137 -0.0024  0.6572  0.2409
 4756TIP3    H135827   4.785   2.562   8.093 -0.8681  0.1402  0.0602
 4756TIP3    H235828   4.913   2.482   8.105 -0.4919  0.5246 -1.2226
 4757TIP3   OH235829   1.278   1.482   7.017  0.2420  0.1492 -0.1362
 4757TIP3    H135830   1.301   1.389   7.018 -0.8210 -0.1324  1.1463
 4757TIP3    H235831   1.333   1.522   7.084 -0.2426  0.1833  0.2494
 4758TIP3   OH235832   3.915   3.533   8.546  0.1094  0.1141  0.2880
 4758TIP3    H135833   3.997   3.548   8.499 -0.7257 -0.0240 -1.2703
 4758TIP3    H235834   3.860   3.608   8.524 -0.5837 -0.3546  0.3822
 4759TIP3   OH235835   6.555   5.833   2.465 -0.4291 -0.0626  0.1434
 4759TIP3    H135836   6.481   5.834   2.405 -0.5742  0.2041  0.3240
 4759TIP3    H235837   6.515   5.847   2.551 -0.4878 -2.4779  0.5938
 4760TIP3   OH235838   6.265   5.217   8.008 -0.0473  0.2152 -0.0011
 4760TIP3    H135839   6.353   5.187   7.984 -1.3172 -1.9167 -2.5090
 4760TIP3    H235840   6.230   5.146   8.062 -0.9034  0.0806 -0.7139
 4761TIP3   OH235841   0.622   5.802   6.240 -0.3110 -0.6573  0.2735
 4761TIP3    H135842   0.690   5.735   6.252 -0.4007 -0.8152 -0.0742
 4761TIP3    H235843   0.666   5.885   6.257  0.4961 -0.5841 -1.8710
 4762TIP3   OH235844   0.963   5.171   1.633 -1.1298  0.2210  0.0942
 4762TIP3    H135845   0.872   5.177   1.604 -1.0919 -1.6947 -0.5344
 4762TIP3    H235846   0.995   5.090   1.594  0.1000 -0.4524  2.3367
 4763TIP3   OH235847   4.478   5.780   0.870  0.1590  0.2563 -0.3740
 4763TIP3    H135848   4.466   5.755   0.961  0.6434  0.0048 -0.3768
 4763TIP3    H235849   4.478   5.697   0.822 -0.8707  0.4266 -0.7050
 4764TIP3   OH235850   2.288   1.900   0.255  0.1290 -0.4389  0.2482
 4764TIP3    H135851   2.322   1.842   0.324 -2.1032 -0.3231  1.5542
 4764TIP3    H235852   2.203   1.862   0.233 -1.1457  1.9831  0.7170
 4765TIP3   OH235853   0.217   2.663   8.101  0.2034  0.0939  0.7364
 4765TIP3    H135854   0.210   2.569   8.082 -0.4756  0.0548  1.1423
 4765TIP3    H235855   0.299   2.671   8.151  2.2641  0.2701 -2.3987
 4766TIP3   OH235856   1.981   2.699   0.203 -0.2583  0.2270  0.3697
 4766TIP3    H135857   1.942   2.690   0.117 -2.0723 -1.3358  1.2808
 4766TIP3    H235858   2.071   2.669   0.192 -0.8556 -1.2799 -0.7068
 4767TIP3   OH235859   2.536   4.058   8.600  0.1306  0.1498  0.2337
 4767TIP3    H135860   2.499   3.973   8.576 -0.4976  0.2179  0.9422
 4767TIP3    H235861   2.620   4.037   8.640 -0.0083 -0.1366  0.3769
 4768TIP3   OH235862   0.363   5.683   7.860  0.6982 -0.1251  0.0299
 4768TIP3    H135863   0.346   5.597   7.823  2.0952 -0.3626 -0.1334
 4768TIP3    H235864   0.387   5.738   7.785 -3.0045  1.2769 -0.3145
 4769TIP3   OH235865   2.110   5.188   1.742 -0.3295  0.0159  0.2294
 4769TIP3    H135866   2.032   5.224   1.786 -0.6711 -0.5279  0.0757
 4769TIP3    H235867   2.160   5.147   1.812 -0.1856  0.3455  0.3249
 4770TIP3   OH235868   2.895   3.988   2.270  0.5182  0.2700  0.6785
 4770TIP3    H135869   2.809   3.950   2.289  1.4212 -1.6659  1.1379
 4770TIP3    H235870   2.904   4.059   2.333 -0.2039 -0.3684  1.5294
 4771TIP3   OH235871   1.585   1.518   1.399 -0.2461 -0.1038 -0.5903
 4771TIP3    H135872   1.632   1.596   1.369 -1.0603  0.1656 -1.2090
 4771TIP3    H235873   1.499   1.525   1.357 -0.0750 -1.7156 -1.2574
 4772TIP3   OH235874   3.387   2.535   7.532  0.0205  0.2306  0.3376
 4772TIP3    H135875   3.369   2.602   7.598 -0.0501  0.2587  0.2894
 4772TIP3    H235876   3.410   2.584   7.453 -1.2603  0.2221 -0.0627
 4773TIP3   OH235877   5.296   3.744   8.088  0.1636  0.9874  0.7669
 4773TIP3    H135878   5.374   3.754   8.142 -0.3831  1.5178  1.4751
 4773TIP3    H235879   5.263   3.833   8.075 -0.1599  0.7970  0.2250
 4774TIP3   OH235880   1.723   5.668   2.081  0.1275 -0.0291 -0.6349
 4774TIP3    H135881   1.790   5.735   2.073  0.1660  0.0684  0.4382
 4774TIP3    H235882   1.648   5.714   2.119  0.6470 -0.8845  1.5351
 4775TIP3   OH235883   4.403   4.185   0.510 -1.4427  0.2172  0.2982
 4775TIP3    H135884   4.318   4.222   0.486 -1.8147 -1.3925 -1.0177
 4775TIP3    H235885   4.430   4.134   0.434  1.2450  1.4951  0.2668
 4776TIP3   OH235886   2.556   4.456   1.246 -0.1923 -0.2125 -0.8502
 4776TIP3    H135887   2.494   4.521   1.280  0.2583  0.1542 -0.7284
 4776TIP3    H235888   2.567   4.393   1.317 -1.0312 -0.7186 -1.1515
 4777TIP3   OH235889   3.571   1.627   7.898  0.1455  0.7980  0.6774
 4777TIP3    H135890   3.557   1.597   7.988 -0.3902  0.3293  0.4444
 4777TIP3    H235891   3.613   1.553   7.855 -2.1361 -0.0932 -0.1842
 4778TIP3   OH235892   5.472   0.908   7.712  0.2760 -0.5817  0.1057
 4778TIP3    H135893   5.516   0.891   7.795 -0.8136 -0.8981  0.6363
 4778TIP3    H235894   5.520   0.857   7.647 -0.0772 -1.9572  0.8886
 4779TIP3   OH235895   4.162   2.566   6.936 -0.0923  0.1346 -0.6327
 4779TIP3    H135896   4.186   2.485   6.981  0.3543  0.2898 -0.5874
 4779TIP3    H235897   4.228   2.575   6.866 -1.2131 -0.5079 -1.8076
 4780TIP3   OH235898   5.263   4.580   1.629  0.0318 -0.3383 -0.1805
 4780TIP3    H135899   5.345   4.572   1.677  0.1822  0.7719 -0.2289
 4780TIP3    H235900   5.198   4.604   1.695 -0.4696 -2.0851  0.0167
 4781TIP3   OH235901   1.110   5.201   2.189  0.7060  1.0784 -0.5035
 4781TIP3    H135902   1.147   5.116   2.167 -0.5223  0.5890 -0.6873
 4781TIP3    H235903   1.175   5.240   2.248  0.3324 -0.8588  1.3067
 4782TIP3   OH235904   6.256   6.581   8.170  0.3527 -0.3337  0.0214
 4782TIP3    H135905   6.273   6.608   8.080 -2.3814 -0.9683 -0.7758
 4782TIP3    H235906   6.236   6.662   8.217  1.4622 -0.0404  0.0203
 4783TIP3   OH235907   0.838   5.827   6.470 -0.2051 -0.1148  0.1873
 4783TIP3    H135908   0.874   5.793   6.389 -1.8438  0.0611 -0.6482
 4783TIP3    H235909   0.771   5.889   6.443  0.0382  0.8751  1.6817
 4784TIP3   OH235910   5.971   3.899   6.655  0.1185 -0.2745 -0.1167
 4784TIP3    H135911   5.896   3.841   6.642 -1.1070  1.2909 -0.3987
 4784TIP3    H235912   5.980   3.906   6.750  0.4348 -1.0914 -0.0774
 4785TIP3   OH235913   2.088   3.533   0.722  0.8067 -0.3127 -0.0099
 4785TIP3    H135914   2.010   3.507   0.674 -0.9127  2.5926  0.9654
 4785TIP3    H235915   2.140   3.582   0.658  0.3520  0.3011  0.0795
 4786TIP3   OH235916   1.593   3.478   7.995 -0.2276 -0.0618 -0.0232
 4786TIP3    H135917   1.523   3.525   7.950  0.3482  0.4245 -0.4398
 4786TIP3    H235918   1.633   3.424   7.926 -0.5554 -0.7647  0.3387
 4787TIP3   OH235919   2.233   1.148   7.652 -0.1586 -0.2820 -0.5113
 4787TIP3    H135920   2.182   1.102   7.585 -1.4070  1.2980 -0.6973
 4787TIP3    H235921   2.167   1.192   7.706  0.8158 -1.3320  1.6649
 4788TIP3   OH235922   3.548   2.771   1.233 -0.1919  0.0430 -0.2578
 4788TIP3    H135923   3.579   2.843   1.288 -1.2132  0.8186 -0.6790
 4788TIP3    H235924   3.597   2.781   1.151 -1.0234  0.8391 -0.6636
 4789TIP3   OH235925   0.785   1.980   6.302 -0.3748 -0.0988  0.3642
 4789TIP3    H135926   0.841   2.042   6.349  1.3092 -1.8399  0.7853
 4789TIP3    H235927   0.831   1.964   6.219 -1.0131 -0.4238  0.0662
 4790TIP3   OH235928   5.855   3.528   7.859  0.2788  0.1322  0.2654
 4790TIP3    H135929   5.951   3.532   7.852  0.2413 -0.3799 -0.7657
 4790TIP3    H235930   5.829   3.470   7.787 -0.8811  1.0555 -0.0895
 4791TIP3   OH235931   1.447   4.770   2.478  0.3215  0.6374 -0.5821
 4791TIP3    H135932   1.542   4.758   2.480  0.3592  0.9190 -0.5483
 4791TIP3    H235933   1.430   4.836   2.546 -0.1660 -1.1605  1.1369
 4792TIP3   OH235934   6.001   5.635   7.320  0.0413 -0.5075 -0.5441
 4792TIP3    H135935   6.047   5.709   7.280  1.1464 -0.3361  0.9249
 4792TIP3    H235936   5.945   5.600   7.251 -2.7685  3.4396 -0.6228
 4793TIP3   OH235937   1.066   3.649   2.181 -0.3154 -0.5258 -0.8755
 4793TIP3    H135938   1.011   3.701   2.240  2.5472 -1.2793  2.8932
 4793TIP3    H235939   1.140   3.707   2.161  0.0971 -1.2448 -1.4690
 4794TIP3   OH235940   1.031   1.575   1.969  0.7923 -0.1593  0.0846
 4794TIP3    H135941   1.030   1.659   1.923 -0.1076 -0.2360 -0.0621
 4794TIP3    H235942   1.123   1.554   1.978  1.1154  1.5728  1.4605
 4795TIP3   OH235943   6.220   5.084   1.951 -0.1952 -0.6201  0.1811
 4795TIP3    H135944   6.276   5.160   1.963  1.0226 -1.3047 -0.9285
 4795TIP3    H235945   6.134   5.112   1.983  0.4359  0.9045  0.6284
 4796TIP3   OH235946   3.073   5.766   1.032  0.0280 -0.1757  0.5070
 4796TIP3    H135947   3.122   5.843   1.060 -0.2141  0.4303 -0.6523
 4796TIP3    H235948   3.059   5.779   0.938  1.4149 -2.4248 -0.1063
 4797TIP3   OH235949   2.288   0.014   0.337 -0.3437 -0.3018  0.2677
 4797TIP3    H135950   2.291   0.043   0.428 -0.3920  0.8819 -0.0873
 4797TIP3    H235951   2.372   0.042   0.300  0.2632 -2.0128  0.2837
 4798TIP3   OH235952   1.761   4.664   0.805 -0.4776  0.1842 -0.5066
 4798TIP3    H135953   1.758   4.710   0.889 -0.6944  0.1470 -0.4932
 4798TIP3    H235954   1.671   4.667   0.772 -0.2959  0.6434 -0.9792
 4799TIP3   OH235955   0.038   6.131   0.128  0.2470  0.5738  0.5171
 4799TIP3    H135956   0.125   6.164   0.106 -0.3518  1.5451 -0.4740
 4799TIP3    H235957   0.008   6.086   0.049 -0.2201  0.3653  0.8043
 4800TIP3   OH235958   2.725   2.261   7.715 -0.2628  0.0404 -0.2139
 4800TIP3    H135959   2.678   2.197   7.661 -0.5627 -0.5552  0.7396
 4800TIP3    H235960   2.810   2.272   7.671 -0.9434  0.4810 -1.4672
 4801TIP3   OH235961   2.268   0.476   6.891  0.7017 -0.2610  0.2601
 4801TIP3    H135962   2.236   0.491   6.802  1.3341 -0.4249 -0.0010
 4801TIP3    H235963   2.335   0.408   6.882 -0.8538 -2.0165  1.1775
 4802TIP3   OH235964   2.419   6.152   8.801 -0.1602 -0.1738 -0.4994
 4802TIP3    H135965   2.344   6.179   8.747  0.4529 -1.4476 -2.0524
 4802TIP3    H235966   2.453   6.074   8.758  0.7634 -0.8803  1.4149
 4803TIP3   OH235967   1.960   4.491   7.392  0.1339  0.3931 -0.7534
 4803TIP3    H135968   1.892   4.495   7.459  1.7343  2.1700  0.9056
 4803TIP3    H235969   1.988   4.400   7.391 -1.5413 -0.1492 -0.7451
 4804TIP3   OH235970   6.713   0.335   7.979  0.3309  0.5993 -0.8597
 4804TIP3    H135971   6.660   0.305   7.905 -0.1885 -1.1561  0.1619
 4804TIP3    H235972   6.799   0.354   7.942  1.0472 -3.1668 -1.5424
 4805TIP3   OH235973   3.159   4.293   0.216 -0.1424 -0.0727 -0.8565
 4805TIP3    H135974   3.139   4.293   0.123 -0.1471  1.1333 -0.8672
 4805TIP3    H235975   3.200   4.378   0.232  0.1949 -0.4152  0.1699
 4806TIP3   OH235976   4.265   3.117   0.291  0.3029 -0.1618  0.0641
 4806TIP3    H135977   4.259   3.202   0.335 -1.8007  0.0196 -0.4573
 4806TIP3    H235978   4.237   3.135   0.201 -1.1467 -1.5469  0.1906
 4807TIP3   OH235979   6.418   3.665   7.447  0.2203 -0.1938 -0.5817
 4807TIP3    H135980   6.367   3.727   7.499  1.0193  0.1136 -0.1471
 4807TIP3    H235981   6.450   3.601   7.510 -0.1527 -0.7614 -0.9489
 4808TIP3   OH235982   5.604   2.440   0.811 -0.1029  0.6251  0.0420
 4808TIP3    H135983   5.564   2.445   0.897  1.7672 -2.3831  1.2499
 4808TIP3    H235984   5.536   2.404   0.754 -0.4969 -0.1069  0.9645
 4809TIP3   OH235985   2.775   5.994   1.454  0.0817 -0.2627 -0.1320
 4809TIP3    H135986   2.706   6.059   1.439  0.6945  0.6176  0.7048
 4809TIP3    H235987   2.796   5.961   1.367 -1.6307 -0.8212 -0.3736
 4810TIP3   OH235988   6.510   2.562   8.130 -0.2233  0.0078 -0.5734
 4810TIP3    H135989   6.436   2.615   8.159  0.5506  0.3653  0.8526
 4810TIP3    H235990   6.485   2.472   8.153  0.4439  0.2919  1.5412
 4811TIP3   OH235991   5.597   6.015   0.664  0.1477 -0.4504  0.1941
 4811TIP3    H135992   5.579   6.104   0.694 -0.4995  0.4390 -2.5589
 4811TIP3    H235993   5.516   5.966   0.682  0.4591 -0.4962  1.5871
 4812TIP3   OH235994   6.127   2.682   0.479  0.8338  0.3694  0.0944
 4812TIP3    H135995   6.063   2.624   0.520  1.4133  0.3796  1.0693
 4812TIP3    H235996   6.161   2.734   0.552  3.8068 -1.3942  0.1499
 4813TIP3   OH235997   3.489   0.182   1.372 -0.4180  0.0264  0.4716
 4813TIP3    H135998   3.477   0.270   1.408 -0.3140 -0.4164  1.6311
 4813TIP3    H235999   3.462   0.123   1.442  0.1876 -0.8853 -0.0305
 4814TIP3   OH236000   0.398   2.221   6.985 -0.0625 -0.1330  0.1561
 4814TIP3    H136001   0.411   2.190   7.074  0.1707  1.2396  0.6250
 4814TIP3    H236002   0.459   2.294   6.976 -1.4956  1.0466 -0.4468
 4815TIP3   OH236003   1.746   0.658   7.914 -0.0786  0.1351  0.3302
 4815TIP3    H136004   1.799   0.648   7.835  0.7566 -0.7885  0.9798
 4815TIP3    H236005   1.677   0.592   7.905  0.7681 -0.8757  0.9296
 4816TIP3   OH236006   5.877   5.871   1.828  0.3606 -0.4674 -0.9360
 4816TIP3    H136007   5.842   5.835   1.909  3.0568 -1.3415 -0.0443
 4816TIP3    H236008   5.816   5.940   1.804 -1.5781 -1.4993  0.7505
 4817TIP3   OH236009   6.010   1.463   6.104  0.2491  0.0488  0.2096
 4817TIP3    H136010   6.103   1.440   6.101  0.2296 -0.0138  0.0598
 4817TIP3    H236011   5.993   1.486   6.196  0.5766  0.7595  0.0978
 4818TIP3   OH236012   4.134   0.477   7.690 -0.2010 -0.5512  0.0604
 4818TIP3    H136013   4.088   0.546   7.641 -1.4243 -0.7260  0.9142
 4818TIP3    H236014   4.067   0.411   7.706  0.2319 -0.6217  1.7277
 4819TIP3   OH236015   2.805   3.336   8.128  0.2095 -0.0452  0.0901
 4819TIP3    H136016   2.808   3.422   8.172 -0.4908  0.2076 -0.3378
 4819TIP3    H236017   2.756   3.353   8.048 -0.8961 -1.0766  0.5221
 4820TIP3   OH236018   2.202   2.950   7.649  0.4895 -0.4532 -0.5424
 4820TIP3    H136019   2.257   3.006   7.595  0.8158 -1.1933 -0.9930
 4820TIP3    H236020   2.143   2.907   7.587  0.5509 -0.9558 -0.2605
 4821TIP3   OH236021   1.872   4.807   7.254 -0.2396  0.3145 -0.2052
 4821TIP3    H136022   1.915   4.723   7.269  1.2327  1.3402  1.9634
 4821TIP3    H236023   1.895   4.830   7.164  2.0703 -0.1634  0.1988
 4822TIP3   OH236024   0.185   1.858   8.566  0.1836 -0.3837  0.1857
 4822TIP3    H136025   0.226   1.815   8.642  3.4220 -1.0159 -1.7113
 4822TIP3    H236026   0.106   1.807   8.549  1.4140 -2.6610  0.8797
 4823TIP3   OH236027   1.686   6.611   7.430  0.4140  0.5416  0.3322
 4823TIP3    H136028   1.607   6.559   7.442  0.0403  1.1206  0.4188
 4823TIP3    H236029   1.758   6.552   7.455  0.2039 -0.7391 -1.8651
 4824TIP3   OH236030   0.521   5.765   1.038  0.0715  0.2711 -0.4762
 4824TIP3    H136031   0.467   5.686   1.050  1.0620 -0.1457  1.7556
 4824TIP3    H236032   0.591   5.738   0.979 -0.8158  0.1503 -1.5070
 4825TIP3   OH236033   3.571   2.128   0.657  0.8639  0.5887  0.0204
 4825TIP3    H136034   3.502   2.070   0.691  0.2843  2.3478  2.0416
 4825TIP3    H236035   3.583   2.099   0.566 -0.4636 -1.6588  0.4715
 4826TIP3   OH236036   0.703   4.668   8.488  0.3782 -0.1083 -0.0349
 4826TIP3    H136037   0.780   4.724   8.495  1.1093 -0.9841 -0.8032
 4826TIP3    H236038   0.629   4.729   8.485  1.1110  0.7923 -0.2822
 4827TIP3   OH236039   1.294   1.520   1.971 -0.2716  0.2612 -0.4048
 4827TIP3    H136040   1.340   1.463   2.033  0.0166  1.1171  0.1903
 4827TIP3    H236041   1.357   1.533   1.900 -0.8539 -1.2853 -1.2574
 4828TIP3   OH236042   2.608   4.624   6.584  0.4242  0.2623 -0.1082
 4828TIP3    H136043   2.644   4.554   6.530  1.7052  2.3301 -2.1475
 4828TIP3    H236044   2.678   4.648   6.644 -1.2812 -2.6468  3.4855
 4829TIP3   OH236045   4.988   1.742   1.026  0.0274  0.1674  0.2758
 4829TIP3    H136046   5.060   1.696   1.069 -0.0834 -0.7506 -0.4733
 4829TIP3    H236047   5.000   1.834   1.049  0.0151 -0.2761  2.1695
 4830TIP3   OH236048   1.714   6.590   8.378  0.5774 -0.3066 -0.2633
 4830TIP3    H136049   1.657   6.561   8.450  0.3367 -0.2276 -0.4230
 4830TIP3    H236050   1.794   6.539   8.390  0.0037 -1.3841 -0.7970
 4831TIP3   OH236051   2.762   6.632   7.341 -0.1235 -0.3286 -0.2376
 4831TIP3    H136052   2.810   6.600   7.265 -2.1394 -3.1275 -0.5031
 4831TIP3    H236053   2.828   6.640   7.410  1.4066  0.3346 -1.7354
 4832TIP3   OH236054   1.015   1.491   6.896 -0.8381  0.7266  0.5319
 4832TIP3    H136055   0.987   1.442   6.973 -1.3466 -3.5807 -2.0287
 4832TIP3    H236056   1.110   1.478   6.894 -0.9549 -0.1479 -0.0635
 4833TIP3   OH236057   1.249   0.883   5.977  0.0023  0.1000  0.1342
 4833TIP3    H136058   1.193   0.908   6.051  1.4676  0.0977  1.2790
 4833TIP3    H236059   1.257   0.788   5.984  1.2836  0.2382  0.8490
 4834TIP3   OH236060   0.822   0.142   0.545 -0.4384  0.1812 -0.2142
 4834TIP3    H136061   0.785   0.066   0.499 -0.1032  0.3044 -0.6880
 4834TIP3    H236062   0.819   0.117   0.638 -2.5832  0.5615 -0.1287
 4835TIP3   OH236063   4.503   0.110   7.636  0.1915  0.0830 -0.3588
 4835TIP3    H136064   4.587   0.073   7.663  0.3563  0.6705 -0.0515
 4835TIP3    H236065   4.525   0.195   7.598 -0.1619 -0.2082 -1.2433
 4836TIP3   OH236066   4.461   2.150   8.645  0.0900  0.0359  0.1075
 4836TIP3    H136067   4.503   2.088   8.585  1.6073  0.6607  0.4794
 4836TIP3    H236068   4.467   2.109   8.731  0.0213  0.1677  0.1765
 4837TIP3   OH236069   5.478   0.939   2.141  0.5720  0.4678 -0.3610
 4837TIP3    H136070   5.474   0.908   2.050 -0.6823 -0.9374  0.1278
 4837TIP3    H236071   5.522   1.024   2.135 -0.3375  0.8669 -2.4028
 4838TIP3   OH236072   5.334   2.829   8.253  1.2302  0.4991 -0.2851
 4838TIP3    H136073   5.338   2.739   8.287  0.9998  0.0261 -1.4768
 4838TIP3    H236074   5.274   2.825   8.179 -0.0583  1.9904  0.6334
 4839TIP3   OH236075   3.392   0.984   1.947 -0.1621  0.0925 -0.0722
 4839TIP3    H136076   3.338   1.060   1.970  0.9392  0.7765  0.2934
 4839TIP3    H236077   3.397   0.933   2.028  0.0043  0.1915 -0.0204
 4840TIP3   OH236078   5.131   3.352   1.085 -0.0308  0.1207  0.0042
 4840TIP3    H136079   5.057   3.343   1.026  0.2829  0.5766 -0.4631
 4840TIP3    H236080   5.175   3.432   1.057  2.4752 -1.7312 -1.7994
 4841TIP3   OH236081   5.357   6.145   1.133 -0.1301  0.0674 -0.2628
 4841TIP3    H136082   5.294   6.151   1.206  0.1606 -1.2271  0.1260
 4841TIP3    H236083   5.422   6.213   1.152 -0.7858  0.6456 -0.0432
 4842TIP3   OH236084   6.378   2.420   6.939 -0.2598  0.6195 -0.1247
 4842TIP3    H136085   6.340   2.403   6.853  0.9070  1.1869 -0.7841
 4842TIP3    H236086   6.472   2.405   6.926  0.4011  3.7651  0.1609
 4843TIP3   OH236087   2.938   1.780   1.130 -0.4912  0.0173  0.5054
 4843TIP3    H136088   2.845   1.803   1.138 -0.4523  0.1791  0.4978
 4843TIP3    H236089   2.984   1.862   1.145 -0.3638  0.0206  0.1115
 4844TIP3   OH236090   4.961   4.190   1.255  0.2012  0.3466 -0.0518
 4844TIP3    H136091   4.968   4.240   1.336  0.5400  1.8374 -0.9622
 4844TIP3    H236092   4.870   4.202   1.227 -0.7186 -2.3574  1.3993
 4845TIP3   OH236093   3.019   2.984   7.382 -0.3173 -0.4591  0.0820
 4845TIP3    H136094   2.965   2.933   7.444  0.3418  0.1810  1.2244
 4845TIP3    H236095   3.036   2.923   7.310 -0.2257 -1.5944  1.0284
 4846TIP3   OH236096   5.129   2.439   8.386  0.0994  0.3423  0.0066
 4846TIP3    H136097   5.095   2.526   8.366 -0.3348 -0.2942 -2.2262
 4846TIP3    H236098   5.050   2.386   8.400  0.2186 -0.3869 -1.8760
 4847TIP3   OH236099   0.880   5.756   8.660  0.4121  0.1370  0.4965
 4847TIP3    H136100   0.806   5.805   8.625 -0.2622 -1.2562 -0.1230
 4847TIP3    H236101   0.839   5.685   8.710  1.3508  0.1128  1.2576
 4848TIP3   OH236102   0.262   3.797   7.084 -0.0254  0.5369  0.2270
 4848TIP3    H136103   0.246   3.865   7.019  0.4566 -0.0567 -0.5274
 4848TIP3    H236104   0.303   3.725   7.035 -0.1785 -0.1495  1.0739
 4849TIP3   OH236105   4.876   3.063   1.044 -0.3843  0.8848 -0.2875
 4849TIP3    H136106   4.941   3.078   0.976 -0.1646 -0.1795 -0.3251
 4849TIP3    H236107   4.857   3.150   1.079  0.0650  1.3496 -1.1870
 4850TIP3   OH236108   0.020   2.302   8.124  0.3358 -0.4414 -0.0283
 4850TIP3    H136109  -0.013   2.310   8.035 -1.2229  0.7986  0.6235
 4850TIP3    H236110   0.108   2.339   8.120  0.4245 -0.7227 -1.1108
 4851TIP3   OH236111   3.931   4.194   8.399 -0.4299  0.2408  0.2835
 4851TIP3    H136112   3.942   4.124   8.463 -0.0407  0.4873  0.4883
 4851TIP3    H236113   3.977   4.162   8.321 -0.3520  0.2203  0.3384
 4852TIP3   OH236114   6.789   4.202   8.519  0.1364 -0.3681  0.0204
 4852TIP3    H136115   6.876   4.191   8.481 -0.5639  0.1175 -1.8204
 4852TIP3    H236116   6.729   4.193   8.445 -1.5001 -2.0528  1.4495
 4853TIP3   OH236117   1.813   6.049   6.301 -0.2647 -0.2970 -0.3011
 4853TIP3    H136118   1.738   6.057   6.242  1.2157  0.6213 -2.1365
 4853TIP3    H236119   1.825   6.137   6.336  0.5455 -0.2119 -0.7801
 4854TIP3   OH236120   2.153   4.781   8.481  0.5406  0.0963  0.6476
 4854TIP3    H136121   2.107   4.844   8.535 -0.3195 -1.4014  1.7210
 4854TIP3    H236122   2.137   4.810   8.391 -1.0235  0.5970  1.0645
 4855TIP3   OH236123   4.726   6.092   8.768  0.0552  0.4618  0.1190
 4855TIP3    H136124   4.673   6.090   8.847  1.6395 -0.7987  1.2047
 4855TIP3    H236125   4.801   6.147   8.791 -0.3406  1.5628 -1.1196
 4856TIP3   OH236126   0.958   6.776   0.212 -0.4273  0.1898  0.5873
 4856TIP3    H136127   0.898   6.851   0.215  0.2685  0.7538  0.6313
 4856TIP3    H236128   1.021   6.798   0.143 -0.2137 -0.3557  0.6019
 4857TIP3   OH236129   0.059   1.098   1.804  0.4127 -0.4735  0.2716
 4857TIP3    H136130  -0.008   1.093   1.734  1.1838 -0.2165 -0.5038
 4857TIP3    H236131   0.054   1.189   1.834  1.0683 -0.1831 -0.4643
 4858TIP3   OH236132   0.828   3.958   0.673  0.1461  0.2832 -0.0572
 4858TIP3    H136133   0.743   4.001   0.660 -0.0247 -0.7932 -3.7819
 4858TIP3    H236134   0.811   3.890   0.737 -1.2671  1.3448  0.7555
 4859TIP3   OH236135   2.039   0.059   8.723 -0.1676  0.4741 -0.1941
 4859TIP3    H136136   2.022   0.153   8.724 -1.2130  0.3287 -1.4573
 4859TIP3    H236137   2.033   0.035   8.631  0.7476 -0.7282  0.0359
 4860TIP3   OH236138   5.522   0.956   0.714 -0.0836  0.3967 -0.5876
 4860TIP3    H136139   5.514   1.051   0.726 -0.8174  0.4388 -1.3826
 4860TIP3    H236140   5.435   0.922   0.732 -0.2006  0.0380 -1.7931
 4861TIP3   OH236141   3.240   6.468   6.735 -0.0826 -0.1177 -0.4146
 4861TIP3    H136142   3.292   6.412   6.794 -1.2059  0.6922  1.4532
 4861TIP3    H236143   3.189   6.406   6.683 -0.1234 -0.8925  0.5078
 4862TIP3   OH236144   0.127   1.267   0.060 -0.5962 -0.0449 -0.6892
 4862TIP3    H136145   0.104   1.175   0.072 -0.4410  0.1868  1.7498
 4862TIP3    H236146   0.217   1.264   0.027  0.4578 -0.8116  1.9817
 4863TIP3   OH236147   0.824   6.339   6.671 -0.1065 -0.0832 -0.4744
 4863TIP3    H136148   0.882   6.272   6.636  0.3067 -1.0273  1.8440
 4863TIP3    H236149   0.744   6.331   6.619  1.7199  1.2906 -3.8022
 4864TIP3   OH236150   3.739   0.425   0.450 -0.4053 -0.6590  0.5797
 4864TIP3    H136151   3.677   0.444   0.520 -2.2134  0.3335 -1.1883
 4864TIP3    H236152   3.808   0.490   0.461 -2.4535  1.9115 -0.5497
 4865TIP3   OH236153   1.869   1.911   1.830 -0.6051 -0.4304  0.8335
 4865TIP3    H136154   1.832   1.924   1.743  0.6399  0.7173  0.4368
 4865TIP3    H236155   1.818   1.840   1.868 -2.7055  0.5962  0.0595
 4866TIP3   OH236156   4.714   0.444   8.678 -0.3813  0.6137 -0.6136
 4866TIP3    H136157   4.726   0.531   8.717 -0.4466  0.7758 -0.9577
 4866TIP3    H236158   4.670   0.460   8.595  0.9349  0.3861 -1.3766
 4867TIP3   OH236159   0.546   0.801   0.393  0.7646 -0.1685 -0.5556
 4867TIP3    H136160   0.499   0.739   0.338  1.3424 -1.0615 -0.0846
 4867TIP3    H236161   0.491   0.811   0.470  0.7994 -0.3327 -0.5073
 4868TIP3   OH236162   2.741   4.732   1.431  0.2753 -0.3914 -0.0337
 4868TIP3    H136163   2.807   4.781   1.381  0.3742 -0.3983  0.0901
 4868TIP3    H236164   2.662   4.737   1.377 -0.0581  0.9138  0.5238
 4869TIP3   OH236165   0.513   0.705   0.944  0.4955  0.0759 -0.0781
 4869TIP3    H136166   0.469   0.738   1.023 -2.1698 -0.3124 -1.2828
 4869TIP3    H236167   0.556   0.624   0.972  1.4125  1.0233  1.3998
 4870TIP3   OH236168   6.130   5.518   8.503 -0.3104 -0.5510  0.5191
 4870TIP3    H136169   6.157   5.426   8.498 -0.2890 -0.6330  1.7631
 4870TIP3    H236170   6.038   5.517   8.480  0.1615 -0.5597 -1.6250
 4871TIP3   OH236171   5.893   2.640   8.567 -0.0860 -0.0464 -0.2806
 4871TIP3    H136172   5.857   2.571   8.510 -0.2415  0.6394 -1.0283
 4871TIP3    H236173   5.935   2.701   8.506  2.5791 -0.9153  0.5552
 4872TIP3   OH236174   3.292   0.013   8.673  0.2845 -0.4743 -0.1124
 4872TIP3    H136175   3.387   0.004   8.666  0.3018 -0.2227 -0.2368
 4872TIP3    H236176   3.258  -0.076   8.667  0.4790 -0.5151 -0.6393
 4873TIP3   OH236177   5.235   6.279   7.945 -0.4737  0.2254 -0.0058
 4873TIP3    H136178   5.205   6.326   8.023 -0.8322 -2.3272  1.5349
 4873TIP3    H236179   5.176   6.307   7.875 -1.6115  0.9156  1.1877
 4874TIP3   OH236180   0.813   4.262   1.486  0.1388  0.3336  0.0366
 4874TIP3    H136181   0.877   4.192   1.498 -0.4057 -0.3982 -1.1393
 4874TIP3    H236182   0.778   4.277   1.574  0.4714 -0.6759  0.3585
 4875TIP3   OH236183   0.374   5.541   1.024  0.2520  0.0327 -0.1213
 4875TIP3    H136184   0.344   5.589   0.947  1.0948  0.2576 -0.3215
 4875TIP3    H236185   0.349   5.450   1.006 -0.8014  0.2852 -0.0152
 4876TIP3   OH236186   1.675   3.701   2.194  0.0868 -0.1316  0.3542
 4876TIP3    H136187   1.763   3.709   2.157 -0.0062 -2.5733 -0.5575
 4876TIP3    H236188   1.626   3.651   2.129 -0.6207 -3.0670  2.9367
 4877TIP3   OH236189   0.269   0.430   1.708 -0.0188  0.3622  0.1724
 4877TIP3    H136190   0.194   0.370   1.708  1.7221 -1.9951 -0.9073
 4877TIP3    H236191   0.336   0.384   1.760  1.2600  1.5640 -0.3485
 4878TIP3   OH236192   2.646   6.519   8.763  0.1585 -0.5764  0.2858
 4878TIP3    H136193   2.739   6.526   8.741  0.4943 -0.8008  1.5579
 4878TIP3    H236194   2.606   6.475   8.688  1.4121 -2.1632  0.5065
 4879TIP3   OH236195   2.135   1.196   0.885 -0.3392  0.0303  0.0143
 4879TIP3    H136196   2.077   1.149   0.946  0.2561 -0.0078  0.5608
 4879TIP3    H236197   2.220   1.199   0.930  0.0677  0.1467 -0.7495
 4880TIP3   OH236198   6.161   5.793   7.134 -0.5411  0.7417 -0.4262
 4880TIP3    H136199   6.105   5.838   7.071 -0.9544  0.3802 -0.3225
 4880TIP3    H236200   6.221   5.860   7.165 -0.7017  1.0540 -0.7878
 4881TIP3   OH236201   0.645   5.411   8.023 -0.1008  0.8960 -0.7162
 4881TIP3    H136202   0.560   5.414   8.067  0.3928  0.1472  0.3270
 4881TIP3    H236203   0.707   5.390   8.092  0.7832  0.2276 -1.6796
 4882TIP3   OH236204   2.117   5.039   1.974  0.2740 -0.6141  0.5329
 4882TIP3    H136205   2.185   4.974   1.995  1.1666  0.9606  2.9117
 4882TIP3    H236206   2.089   5.072   2.059 -1.7472  0.5510 -0.5248
 4883TIP3   OH236207   1.509   0.930   7.266 -0.0459  0.4120  0.3154
 4883TIP3    H136208   1.602   0.952   7.273 -0.0113  0.1165  0.8543
 4883TIP3    H236209   1.507   0.836   7.252 -0.2704  0.3515  0.7275
 4884TIP3   OH236210   6.399   2.312   8.204  0.4682 -0.1889 -0.6183
 4884TIP3    H136211   6.469   2.253   8.179  1.0500  0.1533  0.1572
 4884TIP3    H236212   6.404   2.317   8.300 -0.8372 -0.4353 -0.5119
 4885TIP3   OH236213   3.586   4.204   0.877  0.2846 -0.0074 -0.4337
 4885TIP3    H136214   3.564   4.278   0.820 -3.3470  0.8061  1.7360
 4885TIP3    H236215   3.674   4.225   0.909  0.1866  2.3265 -1.4951
 4886TIP3   OH236216   0.337   1.784   7.899 -0.5365 -0.3359  0.4241
 4886TIP3    H136217   0.421   1.830   7.907 -0.8914  0.3057  0.5309
 4886TIP3    H236218   0.329   1.735   7.981  0.0449 -0.9373  0.1284
 4887TIP3   OH236219   0.869   4.158   7.727  0.5650  0.2288  0.6740
 4887TIP3    H136220   0.937   4.091   7.729  0.5530  0.2314  1.3392
 4887TIP3    H236221   0.811   4.130   7.656  0.9153 -0.1122  0.5173
 4888TIP3   OH236222   1.856   6.159   7.665 -0.1396 -0.1384 -0.0969
 4888TIP3    H136223   1.887   6.168   7.755 -0.7594  0.0839  0.0979
 4888TIP3    H236224   1.926   6.111   7.620  0.3992  0.1882  0.3791
 4889TIP3   OH236225   1.041   2.520   8.085  0.0888  0.1290 -0.1444
 4889TIP3    H136226   1.127   2.484   8.104  0.1657  0.2096 -0.3295
 4889TIP3    H236227   1.048   2.552   7.995 -0.5040 -0.9831 -0.6057
 4890TIP3   OH236228   3.281   4.006   1.395  0.4255 -0.7033  0.1888
 4890TIP3    H136229   3.274   4.018   1.301  0.4645  0.8967  0.3698
 4890TIP3    H236230   3.217   4.067   1.432  1.2409 -0.4486  1.2281
 4891TIP3   OH236231   5.272   0.790   1.924 -0.3572 -0.0982  0.2971
 4891TIP3    H136232   5.236   0.769   1.838 -1.9832  0.6964  0.7318
 4891TIP3    H236233   5.331   0.864   1.909 -1.6399  0.9038  0.0045
 4892TIP3   OH236234   6.459   1.314   6.674 -0.2106 -0.0600 -0.0685
 4892TIP3    H136235   6.403   1.332   6.599  0.7065  0.4456 -0.6576
 4892TIP3    H236236   6.541   1.283   6.636 -0.1111 -0.8771  0.7743
 4893TIP3   OH236237   0.544   0.326   7.660  0.0073  0.3192  0.0086
 4893TIP3    H136238   0.470   0.312   7.601  0.7296  0.7935 -1.0376
 4893TIP3    H236239   0.549   0.246   7.712 -1.0929  0.1919 -0.0613
 4894TIP3   OH236240   5.925   3.965   8.575 -0.2866  0.2641  0.1462
 4894TIP3    H136241   6.007   3.981   8.529 -0.1225 -2.7307 -0.8784
 4894TIP3    H236242   5.928   4.022   8.651  1.5524  2.0823 -1.1824
 4895TIP3   OH236243   6.530   0.454   0.472 -0.1867  0.1548 -0.5266
 4895TIP3    H136244   6.564   0.391   0.408  0.2512 -0.7232  0.5336
 4895TIP3    H236245   6.534   0.407   0.556 -1.6736  0.9204  0.0021
 4896TIP3   OH236246   5.371   1.852   0.399 -0.4080  0.0382 -0.5415
 4896TIP3    H136247   5.418   1.884   0.323 -0.5455  1.5777 -0.0105
 4896TIP3    H236248   5.388   1.916   0.468 -2.2610  0.0067  0.0219
 4897TIP3   OH236249   6.349   0.330   8.536 -0.1059 -0.3044 -0.3417
 4897TIP3    H136250   6.356   0.238   8.511 -1.1108 -0.0944 -1.5247
 4897TIP3    H236251   6.282   0.331   8.604 -1.4349 -0.2854 -1.5916
 4898TIP3   OH236252   1.192   4.989   1.137  0.2261 -0.0671 -0.4180
 4898TIP3    H136253   1.271   4.983   1.084  1.0855 -0.0552  0.8279
 4898TIP3    H236254   1.189   4.907   1.186 -0.6700 -0.1738 -0.6329
 4899TIP3   OH236255   0.028   0.095   0.103 -0.1830  0.2572  0.0808
 4899TIP3    H136256   0.052   0.165   0.043 -1.1744  0.0272 -0.6289
 4899TIP3    H236257  -0.058   0.065   0.071 -1.4223  1.0376  2.4176
 4900TIP3   OH236258   4.198   6.285   6.814  0.2685  0.0808 -0.0904
 4900TIP3    H136259   4.119   6.272   6.867 -0.6306 -0.7897 -1.5803
 4900TIP3    H236260   4.177   6.244   6.730  2.6132 -0.8934 -0.2660
 4901TIP3   OH236261   1.548   5.492   7.834  0.5476 -0.0204  0.5210
 4901TIP3    H136262   1.537   5.476   7.741  1.2102  0.4639  0.3559
 4901TIP3    H236263   1.617   5.432   7.862 -1.5464 -2.2456  1.3290
 4902TIP3   OH236264   5.885   4.942   1.537  0.4603 -0.3035  0.1806
 4902TIP3    H136265   5.794   4.971   1.524  0.1041 -0.7002  1.6172
 4902TIP3    H236266   5.916   4.921   1.449  0.0009  2.2008 -0.6770
 4903TIP3   OH236267   0.034   4.559   2.123  0.1834 -0.3944 -0.3308
 4903TIP3    H136268   0.022   4.524   2.211 -0.8854 -1.2314 -0.7921
 4903TIP3    H236269   0.050   4.653   2.137  0.6213 -0.6157  0.7757
 4904TIP3   OH236270   1.611   4.582   6.796  0.3917  0.6175  0.4580
 4904TIP3    H136271   1.585   4.605   6.885  0.2391  0.1010  0.5487
 4904TIP3    H236272   1.676   4.648   6.772 -0.2520  1.3242  0.6072
 4905TIP3   OH236273   6.468   5.622   1.090 -0.0214 -0.2599  0.9538
 4905TIP3    H136274   6.394   5.678   1.114  0.3865  1.4807 -1.4794
 4905TIP3    H236275   6.545   5.679   1.101  0.5051 -0.6178 -0.6526
 4906TIP3   OH236276   4.746   6.784   6.459 -0.5253 -0.4910 -0.1155
 4906TIP3    H136277   4.750   6.840   6.382  0.2278  0.0004  0.2617
 4906TIP3    H236278   4.761   6.695   6.426 -0.2043 -0.2829 -0.5387
 4907TIP3   OH236279   4.048   1.144   8.043 -0.0715  0.3864 -0.3828
 4907TIP3    H136280   4.118   1.089   8.007  0.5061  0.7766  0.1129
 4907TIP3    H236281   4.088   1.231   8.049  0.1721  0.1633  2.0041
 4908TIP3   OH236282   5.157   1.571   8.758 -0.7604 -0.2096  0.0285
 4908TIP3    H136283   5.105   1.647   8.782 -0.0163  0.0684  0.8301
 4908TIP3    H236284   5.093   1.502   8.743 -1.6925  1.2659 -3.6973
 4909TIP3   OH236285   4.768   5.469   7.789  0.5721  0.0339  0.0637
 4909TIP3    H136286   4.718   5.418   7.852  0.3743  1.7711  1.3954
 4909TIP3    H236287   4.752   5.425   7.705  0.8076 -2.3200  1.1652
 4910TIP3   OH236288   3.472   1.752   8.578 -0.0557 -0.1285 -0.6830
 4910TIP3    H136289   3.377   1.761   8.574  0.0128  0.7102 -0.6744
 4910TIP3    H236290   3.504   1.841   8.591  0.7141 -0.4464 -0.3029
 4911TIP3   OH236291   6.629   2.687   0.468 -0.2177  0.1902 -0.6072
 4911TIP3    H136292   6.589   2.717   0.550  0.5200  1.2211 -0.5999
 4911TIP3    H236293   6.628   2.592   0.475 -1.3079  0.2220  0.0341
 4912TIP3   OH236294   2.349   0.321   2.039 -0.4728  0.2336 -0.1777
 4912TIP3    H136295   2.301   0.312   1.957 -0.1315  0.5844 -0.4171
 4912TIP3    H236296   2.431   0.273   2.025 -0.9683 -0.8243  0.4165
 4913TIP3   OH236297   4.268   4.761   0.147  0.1197 -0.0737 -0.2172
 4913TIP3    H136298   4.268   4.670   0.176  0.5485 -0.2769 -0.8387
 4913TIP3    H236299   4.193   4.768   0.088  0.8285 -0.3497 -1.1570
 4914TIP3   OH236300   2.242   1.703   7.693  0.2413  0.6073 -0.1381
 4914TIP3    H136301   2.151   1.733   7.684  0.0009 -0.2106 -0.5777
 4914TIP3    H236302   2.294   1.782   7.687 -0.3796  0.9660 -1.1083
 4915TIP3   OH236303   0.442   3.292   8.549 -0.2515  0.2367  0.3729
 4915TIP3    H136304   0.413   3.266   8.461  0.6219 -0.0871  0.1787
 4915TIP3    H236305   0.370   3.347   8.581 -0.9904 -0.3747 -0.1827
 4916TIP3   OH236306   3.818   1.343   8.363 -0.5706 -0.6633  0.4997
 4916TIP3    H136307   3.741   1.375   8.411 -0.4816 -0.5339  0.5535
 4916TIP3    H236308   3.862   1.421   8.332 -2.0295 -0.7440 -2.0340
 4917TIP3   OH236309   1.376   5.007   7.096  0.6865  0.0591  0.3961
 4917TIP3    H136310   1.470   5.015   7.080  0.8026 -3.1155 -1.3746
 4917TIP3    H236311   1.370   4.979   7.187  1.5211 -0.3790  0.3312
 4918TIP3   OH236312   0.049   4.094   1.391  0.1631  0.9003 -0.3495
 4918TIP3    H136313  -0.010   4.166   1.412 -0.0411  0.7642 -0.4590
 4918TIP3    H236314  -0.008   4.021   1.369  0.2920 -0.2545  2.7437
 4919TIP3   OH236315   4.542   5.763   7.207  0.4377  0.3102  0.3186
 4919TIP3    H136316   4.473   5.722   7.259  0.3310 -0.6312 -0.5354
 4919TIP3    H236317   4.507   5.849   7.183 -0.9687 -0.6184 -1.1301
 4920TIP3   OH236318   4.967   0.951   1.471 -0.4274 -0.1694 -0.1370
 4920TIP3    H136319   4.964   0.937   1.376  0.6482 -0.2183 -0.1732
 4920TIP3    H236320   4.880   0.925   1.502 -1.1146  0.7273 -1.2159
 4921TIP3   OH236321   4.392   0.796   0.202  0.0934 -0.4222  0.0576
 4921TIP3    H136322   4.476   0.762   0.232  0.5338 -0.4597 -1.1972
 4921TIP3    H236323   4.345   0.818   0.283  1.6879  0.5242  0.7652
 4922TIP3   OH236324   3.957   6.187   7.250 -0.1177  0.0674 -0.6884
 4922TIP3    H136325   4.009   6.213   7.175 -0.5341  0.9202 -0.7016
 4922TIP3    H236326   3.873   6.161   7.214 -0.4063  0.7243 -0.5109
 4923TIP3   OH236327   3.602   1.643   8.211 -0.2393  0.8403 -0.1428
 4923TIP3    H136328   3.566   1.731   8.223 -2.5920 -0.0087 -0.2923
 4923TIP3    H236329   3.533   1.585   8.245  1.2147 -0.9594 -0.0969
 4924TIP3   OH236330   6.142   5.072   7.689 -0.2968  0.5909  0.1696
 4924TIP3    H136331   6.119   5.059   7.781  2.0701  1.9723  1.0381
 4924TIP3    H236332   6.233   5.042   7.682 -0.7992 -0.7349 -2.0858
 4925TIP3   OH236333   4.311   0.435   7.907 -0.6174  0.8970  0.3638
 4925TIP3    H136334   4.281   0.517   7.945 -3.0289  0.0709  0.3850
 4925TIP3    H236335   4.275   0.433   7.819 -0.4486 -0.0455  0.2985
 4926TIP3   OH236336   6.529   3.755   7.207 -0.0760 -0.2644 -0.1760
 4926TIP3    H136337   6.617   3.784   7.229 -0.1230 -0.6369  0.5182
 4926TIP3    H236338   6.490   3.729   7.291  0.1790 -2.9205 -0.7847
 4927TIP3   OH236339   5.234   0.077   1.385  0.1018  1.1103  0.1860
 4927TIP3    H136340   5.226   0.126   1.303 -1.1371  0.3221 -0.2024
 4927TIP3    H236341   5.218   0.142   1.453  0.2630  1.6014 -0.2371
 4928TIP3   OH236342   3.831   1.403   8.727  0.0943 -0.2667 -0.1854
 4928TIP3    H136343   3.817   1.445   8.812  1.6282  0.3213 -0.1952
 4928TIP3    H236344   3.819   1.473   8.663 -0.9021 -0.6731 -0.4498
 4929TIP3   OH236345   2.726   3.265   6.847 -0.1891 -0.1098  0.4946
 4929TIP3    H136346   2.814   3.231   6.863  0.0566 -1.5078 -3.0148
 4929TIP3    H236347   2.738   3.331   6.780 -1.8394 -0.6083 -0.3307
 4930TIP3   OH236348   5.164   0.707   1.236  0.5649 -0.1070 -0.0051
 4930TIP3    H136349   5.240   0.747   1.194 -0.8747 -0.0160 -2.7467
 4930TIP3    H236350   5.099   0.777   1.241  0.4295 -0.2999  1.9058
 4931TIP3   OH236351   3.040   6.695   6.687  0.0978 -0.0394  0.1608
 4931TIP3    H136352   3.068   6.658   6.604 -1.2615 -0.2632 -0.2279
 4931TIP3    H236353   3.060   6.788   6.679  1.4847 -0.3146  0.2557
 4932TIP3   OH236354   1.289   4.278   7.322  0.1416  0.3816  0.2867
 4932TIP3    H136355   1.317   4.308   7.235 -0.6100 -1.8709 -0.8241
 4932TIP3    H236356   1.355   4.311   7.382  0.6267  2.0932 -1.1242
 4933TIP3   OH236357   0.431   6.005   8.838  0.0167 -0.2013 -0.3492
 4933TIP3    H136358   0.445   5.996   8.932  0.8283  0.9973 -0.3283
 4933TIP3    H236359   0.372   6.080   8.829 -0.2402 -0.4554 -0.7746
 4934TIP3   OH236360   1.434   2.271   1.215  0.1268  0.2921 -0.0145
 4934TIP3    H136361   1.433   2.269   1.119 -1.0936 -0.4235 -0.0132
 4934TIP3    H236362   1.510   2.217   1.239  0.7601  0.9190 -0.5724
 4935TIP3   OH236363   5.510   1.362   1.439  0.5554 -0.4027  0.1004
 4935TIP3    H136364   5.532   1.295   1.374 -2.0161 -0.2983 -0.9797
 4935TIP3    H236365   5.497   1.314   1.520  2.5807 -0.6805  0.3179
 4936TIP3   OH236366   0.988   3.794   7.300 -0.5142  0.3995 -0.5700
 4936TIP3    H136367   1.063   3.782   7.243 -0.8945  1.0884 -1.2366
 4936TIP3    H236368   1.016   3.861   7.362  0.3748 -1.2835  0.9492
 4937TIP3   OH236369   4.552   4.519   8.269  0.1983  0.1459 -0.0561
 4937TIP3    H136370   4.609   4.553   8.200 -2.1128 -0.7743 -2.6008
 4937TIP3    H236371   4.506   4.445   8.228 -1.0537 -0.6757  2.6131
 4938TIP3   OH236372   2.596   2.565   7.607  0.3229 -0.5510  0.3924
 4938TIP3    H136373   2.597   2.569   7.703 -2.5854 -1.2159  0.5341
 4938TIP3    H236374   2.505   2.546   7.585  0.8944 -0.2788 -2.5396
 4939TIP3   OH236375   4.429   6.024   1.512 -0.3726  0.2086 -0.8604
 4939TIP3    H136376   4.365   5.953   1.516  1.6122 -1.6660 -0.5162
 4939TIP3    H236377   4.445   6.036   1.418 -0.3228 -0.1816 -0.9025
 4940TIP3   OH236378   4.268   0.729   7.450  0.0981 -0.2460  0.3084
 4940TIP3    H136379   4.182   0.696   7.424 -0.3218  1.5781 -0.8766
 4940TIP3    H236380   4.330   0.687   7.390  0.0779 -1.6166  1.2098
 4941TIP3   OH236381   1.421   3.033   0.474  0.2229 -0.2266  0.4341
 4941TIP3    H136382   1.378   3.066   0.553 -0.8021  0.1737 -0.2761
 4941TIP3    H236383   1.367   2.960   0.446  0.8550 -0.6726  0.3556
 4942TIP3   OH236384   2.640   4.456   7.713 -0.0693  0.4570 -0.3543
 4942TIP3    H136385   2.604   4.415   7.635  1.5345  1.3360 -1.6059
 4942TIP3    H236386   2.585   4.533   7.728 -0.0695  0.5703 -0.9356
 4943TIP3   OH236387   3.356   4.241   8.269 -0.3094 -0.0726 -0.2383
 4943TIP3    H136388   3.350   4.312   8.334 -1.1563 -0.0524 -0.3291
 4943TIP3    H236389   3.411   4.175   8.310 -0.2250  0.2659  0.1978
 4944TIP3   OH236390   2.642   6.633   1.773 -0.4934 -0.1428  0.1013
 4944TIP3    H136391   2.557   6.630   1.729 -0.9410  0.2664  0.9118
 4944TIP3    H236392   2.626   6.684   1.852  1.4632  3.9626 -1.8338
 4945TIP3   OH236393   4.671   6.462   0.967 -0.0144  0.2040  0.4468
 4945TIP3    H136394   4.580   6.431   0.972 -0.0545  0.0210 -0.9889
 4945TIP3    H236395   4.713   6.424   1.043 -0.5136 -1.9403 -0.2768
 4946TIP3   OH236396   1.047   2.863   6.313  0.5274  0.4004  0.4072
 4946TIP3    H136397   1.125   2.826   6.271  0.8594  1.1672  0.3296
 4946TIP3    H236398   1.047   2.955   6.286  1.7382  1.4363  3.4480
 4947TIP3   OH236399   0.357   1.684   7.398 -0.5489 -0.7508 -0.1795
 4947TIP3    H136400   0.424   1.708   7.334 -0.7413  1.1002  0.2748
 4947TIP3    H236401   0.293   1.633   7.348 -1.4583  1.8683 -1.8779
 4948TIP3   OH236402   6.543   3.848   8.252  0.0687  0.2675 -0.3828
 4948TIP3    H136403   6.592   3.848   8.334 -1.3647 -0.9861  0.5335
 4948TIP3    H236404   6.451   3.852   8.280 -0.5475 -2.0050 -1.7927
 4949TIP3   OH236405   1.272   2.845   8.455  0.2441  0.1910 -0.0982
 4949TIP3    H136406   1.249   2.890   8.536 -1.5075  1.7319 -1.3756
 4949TIP3    H236407   1.242   2.904   8.385  2.4586 -0.6601 -1.9086
 4950TIP3   OH236408   2.693   0.865   1.573  0.2493 -0.3627 -0.1363
 4950TIP3    H136409   2.662   0.858   1.664  0.1834 -0.7189 -0.1832
 4950TIP3    H236410   2.788   0.861   1.580  0.7215  4.8822  0.4237
 4951TIP3   OH236411   0.977   1.434   2.239  0.3277  0.3585  0.5432
 4951TIP3    H136412   0.988   1.504   2.175  0.9914 -0.2648 -0.0492
 4951TIP3    H236413   0.900   1.459   2.290 -0.8058  0.4270 -1.1183
 4952TIP3   OH236414   4.687   4.900   1.467  0.4963  0.6050  0.3074
 4952TIP3    H136415   4.627   4.877   1.396  0.3125  0.8993  0.3681
 4952TIP3    H236416   4.631   4.935   1.535  0.5293 -0.7736  1.0818
 4953TIP3   OH236417   4.630   3.821   8.629  0.3506  0.3460  0.9437
 4953TIP3    H136418   4.576   3.743   8.620 -0.4840  1.0556 -0.6239
 4953TIP3    H236419   4.715   3.796   8.592  0.3200 -0.0341  1.1244
 4954TIP3   OH236420   2.351   1.310   1.289  0.3873 -0.0811 -0.5532
 4954TIP3    H136421   2.280   1.259   1.326  0.4337 -0.3682 -0.8520
 4954TIP3    H236422   2.405   1.246   1.242  0.0151  0.3393 -1.6060
 4955TIP3   OH236423   4.668   1.543   1.508  0.0186  0.3149 -0.3312
 4955TIP3    H136424   4.692   1.525   1.417 -1.0358 -1.0342 -0.3749
 4955TIP3    H236425   4.573   1.550   1.507  0.1253  2.6659  0.3025
 4956TIP3   OH236426   1.425   0.693   0.568 -0.3938  0.0111  0.3322
 4956TIP3    H136427   1.350   0.639   0.594 -1.9171  1.7457 -0.2126
 4956TIP3    H236428   1.398   0.782   0.588  1.6924  0.6844  0.3939
 4957TIP3   OH236429   1.911   3.925   7.664  0.2280 -0.4476  0.3762
 4957TIP3    H136430   2.006   3.927   7.678  0.5279 -2.7077 -0.9135
 4957TIP3    H236431   1.896   3.994   7.599  1.1954 -0.9055 -0.3637
 4958TIP3   OH236432   1.335   6.617   1.582 -0.0248 -0.2121 -0.6349
 4958TIP3    H136433   1.299   6.681   1.642  1.9091 -0.9462  1.4606
 4958TIP3    H236434   1.263   6.556   1.565 -0.0591 -1.5806  3.2821
 4959TIP3   OH236435   3.182   6.185   8.488 -0.0589  0.1286 -0.1973
 4959TIP3    H136436   3.241   6.260   8.479 -0.3991  0.4069 -0.1363
 4959TIP3    H236437   3.238   6.115   8.522 -0.1522  0.9678  1.8834
 4960TIP3   OH236438   5.788   0.828   1.196  0.1646  0.1627  0.2734
 4960TIP3    H136439   5.870   0.819   1.148  0.1308 -0.0077  0.2475
 4960TIP3    H236440   5.799   0.908   1.247  0.6976 -0.3279  0.9593
 4961TIP3   OH236441   4.879   4.092   8.822  0.0171 -0.3305 -0.1767
 4961TIP3    H136442   4.927   4.170   8.796 -1.1024 -0.0158 -1.4048
 4961TIP3    H236443   4.939   4.020   8.806  1.0993  0.2460  1.0560
 4962TIP3   OH236444   5.791   1.501   1.371  0.0608  0.2069 -0.3737
 4962TIP3    H136445   5.765   1.414   1.401  1.3028  0.0189  0.2473
 4962TIP3    H236446   5.877   1.488   1.331  0.3792  1.1803 -0.0445
 4963TIP3   OH236447   0.287   4.878   0.867 -0.1494 -0.6629  0.0918
 4963TIP3    H136448   0.305   4.958   0.916 -1.5597 -0.3351  0.1225
 4963TIP3    H236449   0.372   4.835   0.860  0.5659  0.6291  0.4283
 4964TIP3   OH236450   2.324   0.033   8.775 -0.2678 -0.0184  0.4861
 4964TIP3    H136451   2.320   0.081   8.693 -1.1183 -3.3311 -1.5923
 4964TIP3    H236452   2.235   0.004   8.791 -0.0963  0.3998  2.5864
 4965TIP3   OH236453   6.743   2.256   1.527 -0.5236  0.5399  0.0957
 4965TIP3    H136454   6.775   2.315   1.459 -0.2790 -2.0891 -2.2308
 4965TIP3    H236455   6.683   2.197   1.482 -0.3706 -1.3262  2.1492
 4966TIP3   OH236456   2.007   0.857   7.910  0.0574  0.4348 -0.4829
 4966TIP3    H136457   2.066   0.918   7.954 -0.5118 -0.1077  1.0828
 4966TIP3    H236458   1.942   0.913   7.867  0.4659  0.9615 -0.4174
 4967TIP3   OH236459   6.208   6.709   7.883  0.3700 -0.7479 -0.3594
 4967TIP3    H136460   6.205   6.695   7.788 -1.4943 -1.0819 -0.2950
 4967TIP3    H236461   6.205   6.804   7.893  2.4856 -0.6154 -0.6371
 4968TIP3   OH236462   4.043   0.568   1.893  0.1938 -0.2108  0.0470
 4968TIP3    H136463   4.005   0.510   1.827  1.8365 -0.6612 -0.5329
 4968TIP3    H236464   4.010   0.655   1.871  1.0340 -0.2896 -1.6353
 4969TIP3   OH236465   5.874   2.823   0.589 -0.0167  0.3286  0.3575
 4969TIP3    H136466   5.796   2.768   0.591 -0.0691  0.4077  0.6500
 4969TIP3    H236467   5.874   2.867   0.674  0.5629  0.0286  0.5147
 4970TIP3   OH236468   5.439   5.893   6.576  0.2059 -0.1889 -0.2306
 4970TIP3    H136469   5.477   5.938   6.500 -1.0489  0.0379 -0.7473
 4970TIP3    H236470   5.378   5.831   6.538 -3.1542  2.3536  0.5753
 4971TIP3   OH236471   4.958   6.704   7.037 -0.2127 -0.1667 -0.7909
 4971TIP3    H136472   4.899   6.722   7.110 -0.0701 -1.1385 -0.4163
 4971TIP3    H236473   4.947   6.611   7.020  2.1187 -0.6713  0.1263
 4972TIP3   OH236474   4.497   0.992   7.973 -0.1454  0.3132 -0.5578
 4972TIP3    H136475   4.561   0.951   7.914  0.8283  0.8255  0.1231
 4972TIP3    H236476   4.542   1.069   8.008 -0.5063 -0.2463  1.2401
 4973TIP3   OH236477   0.374   0.177   0.111 -0.1163 -0.9642  0.4154
 4973TIP3    H136478   0.336   0.243   0.053  1.2944 -0.1088  0.4333
 4973TIP3    H236479   0.364   0.095   0.063  1.6663 -0.1845 -1.4498
 4974TIP3   OH236480   5.942   5.024   1.786  0.3431  0.0431  0.1724
 4974TIP3    H136481   5.960   5.117   1.802 -1.3894  0.2611  1.0561
 4974TIP3    H236482   5.932   5.017   1.691 -0.4857  0.9567  0.1817
 4975TIP3   OH236483   4.412   1.829   0.406 -0.1678 -0.9030 -0.0452
 4975TIP3    H136484   4.331   1.876   0.425 -0.5944 -1.3885 -0.6108
 4975TIP3    H236485   4.481   1.894   0.415 -0.6351 -0.4554  0.3248
 4976TIP3   OH236486   6.162   6.678   1.705 -0.1792  0.7897  0.2910
 4976TIP3    H136487   6.123   6.658   1.790 -1.6659 -0.1410 -0.5532
 4976TIP3    H236488   6.091   6.719   1.655  0.2462  0.1251 -0.9179
 4977TIP3   OH236489   5.417   4.937   0.987  0.3393 -0.2370 -0.5482
 4977TIP3    H136490   5.377   5.011   0.941  1.5249 -0.1899 -1.5563
 4977TIP3    H236491   5.463   4.888   0.919  0.6040 -1.2158  0.3019
 4978TIP3   OH236492   1.380   1.351   0.301  0.5296  0.1108 -0.6359
 4978TIP3    H136493   1.454   1.367   0.242 -0.0511  0.1952 -1.3473
 4978TIP3    H236494   1.315   1.306   0.247  0.7038 -1.4944  0.3974
 4979TIP3   OH236495   4.073   3.634   7.429 -0.1331  0.4689  0.8455
 4979TIP3    H136496   3.979   3.643   7.442 -0.6067 -2.7788  0.5955
 4979TIP3    H236497   4.101   3.576   7.500  1.3737  0.1734  0.0440
 4980TIP3   OH236498   2.153   2.468   8.822  0.0062  0.1440  0.0271
 4980TIP3    H136499   2.130   2.430   8.738 -1.9545 -0.3946  0.7654
 4980TIP3    H236500   2.198   2.397   8.869  0.3292  0.1741 -0.2314
 4981TIP3   OH236501   0.949   4.796   7.841 -0.5281 -0.0131  0.1022
 4981TIP3    H136502   0.863   4.835   7.856 -1.4657 -1.2757 -1.6626
 4981TIP3    H236503   0.999   4.864   7.795 -0.8078  0.4800  0.5212
 4982TIP3   OH236504   6.167   0.574   7.540  0.2782 -0.0920 -0.1330
 4982TIP3    H136505   6.229   0.630   7.492  2.2182 -1.3832  0.7211
 4982TIP3    H236506   6.146   0.504   7.478 -0.0896  0.1779 -0.3159
 4983TIP3   OH236507   4.234   0.410   0.756  0.1211  0.4075  0.2722
 4983TIP3    H136508   4.185   0.487   0.785 -2.6557 -1.5228  1.2226
 4983TIP3    H236509   4.302   0.397   0.822 -0.4253  1.1255  0.9884
 4984TIP3   OH236510   5.087   3.463   8.080 -0.1788 -0.1737 -0.3186
 4984TIP3    H136511   5.096   3.550   8.040 -0.4427 -0.6445 -1.4478
 4984TIP3    H236512   5.073   3.481   8.173  2.0631  0.9107 -0.1140
 4985TIP3   OH236513   5.368   1.982   0.640 -0.2029  0.3123  0.3030
 4985TIP3    H136514   5.458   2.015   0.641 -0.2913  0.5688 -0.2003
 4985TIP3    H236515   5.358   1.940   0.725 -0.0871  1.5684  0.9600
 4986TIP3   OH236516   5.547   6.078   7.488 -0.1122 -0.5455 -0.6040
 4986TIP3    H136517   5.609   6.150   7.479 -0.2661 -0.3441 -0.0730
 4986TIP3    H236518   5.472   6.104   7.433 -0.6743  0.2692  0.5161
 4987TIP3   OH236519   5.399   3.254   1.343 -0.4663  0.6798 -0.4904
 4987TIP3    H136520   5.442   3.340   1.340 -1.9308  1.4746  0.0770
 4987TIP3    H236521   5.306   3.275   1.345 -0.8559 -0.9560 -0.5889
 4988TIP3   OH236522   1.371   0.768   2.326  0.2631 -0.2344  0.1426
 4988TIP3    H136523   1.364   0.857   2.293 -0.9257  0.1586  1.3736
 4988TIP3    H236524   1.374   0.714   2.247 -1.3555  0.7504 -0.6496
 4989TIP3   OH236525   3.968   1.865   8.120  0.2179  0.3098  0.2853
 4989TIP3    H136526   3.980   1.827   8.206  0.2637  0.4806  0.3551
 4989TIP3    H236527   3.920   1.947   8.136 -1.3865 -0.5321 -0.0248
 4990TIP3   OH236528   4.705   0.249   7.495 -0.0526 -0.1479  0.1742
 4990TIP3    H136529   4.674   0.241   7.405 -3.6750 -0.3364  1.2822
 4990TIP3    H236530   4.800   0.235   7.490 -0.2544 -0.9604 -3.4478
 4991TIP3   OH236531   0.137   5.346   8.096 -0.0437  0.2674  0.1491
 4991TIP3    H136532   0.063   5.348   8.156 -0.5852  1.3033 -0.5336
 4991TIP3    H236533   0.098   5.344   8.009  0.7371  0.0155 -0.2081
 4992TIP3   OH236534   2.054   3.442   2.276  0.2338 -0.0550 -0.8988
 4992TIP3    H136535   2.135   3.446   2.225  1.4428 -0.1400  0.9536
 4992TIP3    H236536   2.061   3.513   2.339 -0.7248 -0.6311 -0.1123
 4993TIP3   OH236537   6.503   5.074   7.995  0.2484 -0.2224 -0.0865
 4993TIP3    H136538   6.569   5.102   7.932 -1.6222 -0.2354 -2.1583
 4993TIP3    H236539   6.552   5.062   8.077  2.2251  2.9775 -0.6134
 4994TIP3   OH236540   1.856   1.654   7.944  0.0576  0.4333 -0.3050
 4994TIP3    H136541   1.905   1.676   7.865  2.1169  1.8573  1.2721
 4994TIP3    H236542   1.917   1.601   7.996 -0.6001  1.0057  1.0986
 4995TIP3   OH236543   0.736   0.800   0.086 -0.4799  0.0365 -0.0880
 4995TIP3    H136544   0.752   0.840   0.000 -2.4937  0.5745 -0.2844
 4995TIP3    H236545   0.677   0.727   0.067 -0.4955 -0.1856  0.7766
 4996TIP3   OH236546   4.983   0.170   7.467 -0.3014 -0.3527  0.1689
 4996TIP3    H136547   5.022   0.231   7.405 -1.1141  1.0551  0.9902
 4996TIP3    H236548   5.022   0.085   7.446  0.9347  0.4651 -0.9378
 4997TIP3   OH236549   3.378   5.831   2.086 -0.2498 -0.1812  0.7097
 4997TIP3    H136550   3.373   5.915   2.039 -0.5583 -0.7642 -0.3398
 4997TIP3    H236551   3.472   5.814   2.094 -0.0871 -1.3374 -2.1661
 4998TIP3   OH236552   4.915   5.631   0.438 -0.2825  0.0039 -0.0781
 4998TIP3    H136553   4.911   5.536   0.449 -1.7413 -0.0551 -0.8780
 4998TIP3    H236554   4.879   5.666   0.520  0.9556 -0.0875  0.5294
 4999TIP3   OH236555   4.235   5.584   1.453 -0.2337  0.0827 -0.1311
 4999TIP3    H136556   4.249   5.678   1.459  1.4032 -0.0988 -0.6897
 4999TIP3    H236557   4.155   5.575   1.402  1.3299  1.1706 -2.9788
 5000TIP3   OH236558   4.804   0.224   0.793  0.1087 -0.7056  0.3186
 5000TIP3    H136559   4.774   0.218   0.884 -0.0982  2.5598  0.5896
 5000TIP3    H236560   4.737   0.276   0.749  0.8442 -1.1477 -1.4182
 5001TIP3   OH236561   4.982   0.617   0.294 -1.1317 -0.0911 -0.2933
 5001TIP3    H136562   4.898   0.619   0.340 -1.6518 -3.1400 -0.8764
 5001TIP3    H236563   4.959   0.601   0.203  0.0585  1.4366 -0.9039
 5002TIP3   OH236564   2.184   4.783   0.523 -0.0382 -0.3445  0.3376
 5002TIP3    H136565   2.195   4.714   0.458 -1.0410 -2.1897  2.0029
 5002TIP3    H236566   2.128   4.743   0.590  0.9312  1.4388  2.3217
 5003TIP3   OH236567   6.514   6.176   1.667  0.3408  0.3719  0.1973
 5003TIP3    H136568   6.427   6.189   1.631 -0.7049 -1.6159  1.7471
 5003TIP3    H236569   6.539   6.261   1.704 -3.0388  0.0706  3.8449
 5004TIP3   OH236570   5.867   4.611   0.747  0.4917 -0.0166 -0.4664
 5004TIP3    H136571   5.884   4.702   0.721  2.2351  0.1273  0.9099
 5004TIP3    H236572   5.777   4.612   0.779  0.8000  1.5096  0.4836
 5005TIP3   OH236573   5.794   5.793   0.936  0.1453  0.4904 -0.2992
 5005TIP3    H136574   5.823   5.833   0.854  0.9006 -0.3380 -0.4594
 5005TIP3    H236575   5.762   5.707   0.911  0.7630  0.0681  0.3072
 5006TIP3   OH236576   4.787   0.052   8.305 -0.5880 -0.8662  0.2117
 5006TIP3    H136577   4.742  -0.032   8.313 -1.1560 -0.4975  0.9753
 5006TIP3    H236578   4.721   0.110   8.265 -1.0040 -0.1825  1.8253
 5007TIP3   OH236579   5.031   6.627   7.821 -0.3934  0.1586  0.0784
 5007TIP3    H136580   4.985   6.703   7.787 -0.2924 -0.0254 -0.4969
 5007TIP3    H236581   4.967   6.582   7.877 -1.2102 -0.5277 -1.3354
 5008TIP3   OH236582   1.315   4.492   1.503 -0.0361 -0.1714  0.0679
 5008TIP3    H136583   1.240   4.432   1.499  0.0581 -0.2356 -1.9861
 5008TIP3    H236584   1.369   4.467   1.428 -0.1342  2.6174 -1.0337
 5009TIP3   OH236585   2.310   3.896   1.183  0.1638  0.2608 -0.1067
 5009TIP3    H136586   2.338   3.837   1.253 -0.4746 -2.4421 -1.9679
 5009TIP3    H236587   2.221   3.868   1.162  1.0183 -0.5101 -3.3336
 5010TIP3   OH236588   3.829   2.466   6.284  0.0999 -0.0133  0.0597
 5010TIP3    H136589   3.801   2.375   6.291 -1.7024  0.2029 -2.7354
 5010TIP3    H236590   3.887   2.468   6.207  0.4135  1.1486  0.2934
 5011TIP3   OH236591   4.250   4.440   7.261 -0.1372  0.2260  0.2939
 5011TIP3    H136592   4.250   4.525   7.216  0.9523  0.6201  0.9990
 5011TIP3    H236593   4.246   4.462   7.354  3.2836 -0.2778  0.6967
 5012TIP3   OH236594   4.570   0.599   7.493  0.3778 -0.4920  0.5249
 5012TIP3    H136595   4.507   0.532   7.520 -0.4621  0.7774  1.8039
 5012TIP3    H236596   4.636   0.599   7.562  1.2898 -1.1329 -0.3212
 5013TIP3   OH236597   1.656   0.941   0.467  0.4043 -0.4389 -0.5273
 5013TIP3    H136598   1.610   0.874   0.416  1.7833 -0.2908 -2.0271
 5013TIP3    H236599   1.599   1.018   0.464 -1.5959 -1.6668  1.8909
 5014TIP3   OH236600   2.676   4.025   0.355 -0.2199 -0.3244 -0.0391
 5014TIP3    H136601   2.648   4.019   0.447 -3.1618  0.1870 -0.8075
 5014TIP3    H236602   2.765   4.060   0.360  0.4134 -1.9183  2.6485
 5015TIP3   OH236603   6.559   1.713   0.086  0.3264 -0.8485  0.0753
 5015TIP3    H136604   6.489   1.777   0.098  2.3497  1.2673  1.5470
 5015TIP3    H236605   6.616   1.752   0.020  0.9905 -1.7208  0.1080
 5016TIP3   OH236606   5.038   1.320   0.187 -0.0250 -0.1836 -0.5590
 5016TIP3    H136607   5.048   1.225   0.193  0.2964 -0.4715 -3.8348
 5016TIP3    H236608   4.948   1.333   0.158 -1.1274  0.8190  2.8450
 5017TIP3   OH236609   4.953   0.045   1.484  0.1582  0.0465 -0.1650
 5017TIP3    H136610   4.920   0.016   1.569  0.7292  0.6892  0.2865
 5017TIP3    H236611   5.038   0.002   1.476 -0.0054 -0.2151 -0.5318
 5018TIP3   OH236612   3.145   2.873   8.404  0.5888  0.4442 -0.6319
 5018TIP3    H136613   3.117   2.816   8.333  0.8863 -1.1976  0.4971
 5018TIP3    H236614   3.233   2.842   8.427 -0.1327 -0.2166  1.5132
 5019TIP3   OH236615   5.225   6.802   8.502  0.3655  0.3561 -0.1202
 5019TIP3    H136616   5.283   6.874   8.476 -1.4173  1.9635  0.1617
 5019TIP3    H236617   5.159   6.799   8.433  1.1017 -1.9175 -0.8076
 5020TIP3   OH236618   4.987   3.223   7.871 -0.5053 -0.6718 -0.0737
 5020TIP3    H136619   4.894   3.203   7.870 -1.8197  4.1773  1.1411
 5020TIP3    H236620   5.004   3.259   7.958  2.9555 -2.5205  0.2344
 5021TIP3   OH236621   5.595   3.415   8.160 -0.5821  0.5158  0.2953
 5021TIP3    H136622   5.590   3.385   8.251 -0.8010 -0.3676 -0.0062
 5021TIP3    H236623   5.506   3.443   8.139 -1.0224 -1.2417 -0.3023
 5022TIP3   OH236624   0.522   2.142   1.088 -0.2312 -0.2649  0.0214
 5022TIP3    H136625   0.483   2.198   1.156  0.7959  1.4401 -0.7139
 5022TIP3    H236626   0.528   2.056   1.128 -1.7957  0.1481  1.2571
 5023TIP3   OH236627   3.810   6.607   8.333  0.2284  0.4004 -0.1108
 5023TIP3    H136628   3.870   6.643   8.399 -1.7067  0.5380  1.7074
 5023TIP3    H236629   3.733   6.665   8.337 -0.2482 -0.0495 -1.9965
 5024TIP3   OH236630   2.524   2.470   0.778 -0.3937 -0.2189 -0.0680
 5024TIP3    H136631   2.578   2.513   0.844 -0.0383 -0.7527 -0.0056
 5024TIP3    H236632   2.448   2.437   0.826 -0.4420 -0.0585 -0.0356
 5025TIP3   OH236633   2.994   4.021   1.245 -0.3692  0.6044  0.7161
 5025TIP3    H136634   3.081   4.035   1.207 -0.7214  0.2741 -0.2205
 5025TIP3    H236635   2.940   4.089   1.206 -0.6551  0.4952  0.9206
 5026TIP3   OH236636   5.356   0.292   1.539 -0.2411 -0.3082 -0.3681
 5026TIP3    H136637   5.328   0.342   1.615 -0.0631 -0.0793 -0.4531
 5026TIP3    H236638   5.360   0.356   1.468  0.6872 -0.2915 -0.3148
 5027TIP3   OH236639   2.785   4.925   6.316  0.4252 -0.0111  0.7225
 5027TIP3    H136640   2.837   4.905   6.238  0.4945 -0.0464  0.7774
 5027TIP3    H236641   2.807   4.855   6.377 -0.3180 -0.4946  0.4440
 5028TIP3   OH236642   6.338   5.012   0.248  0.3718  0.0274  0.0282
 5028TIP3    H136643   6.365   5.026   0.339  0.6792  0.5152 -0.1350
 5028TIP3    H236644   6.244   5.027   0.248  0.4679  0.6754  0.1481
 5029TIP3   OH236645   3.141   1.615   0.287  0.2328  0.0772 -0.2776
 5029TIP3    H136646   3.197   1.541   0.313  1.7139  0.5155 -2.0528
 5029TIP3    H236647   3.052   1.582   0.301  0.8605 -1.6787 -0.0600
 5030TIP3   OH236648   2.774   3.653   7.239 -0.2881  0.5365 -0.0721
 5030TIP3    H136649   2.771   3.749   7.230  1.7948  0.9330  2.3030
 5030TIP3    H236650   2.861   3.630   7.204 -0.1393 -0.2646  0.8186
 5031TIP3   OH236651   2.538   2.705   8.554  0.3354  0.4666  0.5935
 5031TIP3    H136652   2.537   2.610   8.560  0.3686  0.3934 -0.3068
 5031TIP3    H236653   2.562   2.735   8.641  0.5149 -0.3549  0.8347
 5032TIP3   OH236654   3.705   6.137   1.368 -0.5890  0.5590 -0.3561
 5032TIP3    H136655   3.690   6.175   1.282 -0.1906  0.0080 -0.6734
 5032TIP3    H236656   3.797   6.112   1.368 -0.5015  0.8461  0.3479
 5033TIP3   OH236657   0.665   5.282   1.813 -0.4283  0.0879 -0.8380
 5033TIP3    H136658   0.639   5.291   1.905 -0.6888  1.4416 -1.0290
 5033TIP3    H236659   0.687   5.189   1.804 -1.0400 -0.2091  0.4238
 5034TIP3   OH236660   4.342   4.462   1.411 -0.0311 -0.4005  0.1392
 5034TIP3    H136661   4.276   4.489   1.475 -0.8107 -2.4693  0.2853
 5034TIP3    H236662   4.308   4.495   1.328  0.1606  0.8834  0.5366
 5035TIP3   OH236663   0.001   4.335   0.029  0.3131  0.3374 -0.1009
 5035TIP3    H136664  -0.068   4.354   0.092  1.4312 -0.2750  1.3745
 5035TIP3    H236665  -0.041   4.285  -0.041 -0.3206 -2.0842  1.9073
 5036TIP3   OH236666   2.679   5.063   1.337 -0.5159 -0.0870 -0.2449
 5036TIP3    H136667   2.623   5.025   1.405  1.2445 -1.6702  0.4194
 5036TIP3    H236668   2.642   5.030   1.255 -1.7198  0.5447  0.0241
 5037TIP3   OH236669   0.246   5.780   0.111  0.0256  0.3331 -0.0362
 5037TIP3    H136670   0.233   5.825   0.195  1.5205 -1.7844  1.4549
 5037TIP3    H236671   0.341   5.779   0.100 -0.0565 -1.0103 -0.7990
 5038TIP3   OH236672   3.867   1.547   7.639 -0.5037  0.0142 -0.2299
 5038TIP3    H136673   3.898   1.637   7.653 -2.4520  1.0476 -1.9809
 5038TIP3    H236674   3.860   1.539   7.544  1.9119 -2.9067 -0.2950
 5039TIP3   OH236675   2.334   3.001   1.998  0.5022  0.8248 -0.5980
 5039TIP3    H136676   2.387   3.069   1.955  1.3421  1.0470  0.7182
 5039TIP3    H236677   2.245   3.035   1.995  0.8675  1.8692 -0.2157
 5040TIP3   OH236678   3.803   0.140   0.667 -0.2030  0.2545 -0.1692
 5040TIP3    H136679   3.858   0.216   0.684 -0.4704  0.8001 -1.5705
 5040TIP3    H236680   3.715   0.177   0.654 -0.8566 -0.5589  1.6649
 5041TIP3   OH236681   3.999   6.726   7.566 -0.0839 -0.0467 -0.3804
 5041TIP3    H136682   4.090   6.752   7.557  0.3538 -1.4734 -0.3363
 5041TIP3    H236683   3.996   6.673   7.646 -0.4053 -2.0989 -1.6657
 5042TIP3   OH236684   2.164   4.671   7.388  0.0182 -0.3105  0.0322
 5042TIP3    H136685   2.091   4.611   7.399 -2.5885  2.5746 -0.1870
 5042TIP3    H236686   2.183   4.669   7.294 -0.7943 -0.0294 -0.1461
 5043TIP3   OH236687   2.596   4.059   0.629 -0.1622  0.4045  0.3154
 5043TIP3    H136688   2.608   4.018   0.714 -1.0028  0.0414  0.2682
 5043TIP3    H236689   2.505   4.089   0.629 -0.8322 -1.4282 -1.2224
 5044TIP3   OH236690   1.848   2.079   8.480 -0.3243 -0.1669 -1.0946
 5044TIP3    H136691   1.861   2.108   8.389 -1.0103 -1.1470 -1.5327
 5044TIP3    H236692   1.753   2.082   8.492 -0.3128 -0.9510 -0.7345
 5045TIP3   OH236693   0.962   4.296   6.830 -0.8675 -0.3666  0.0734
 5045TIP3    H136694   0.960   4.352   6.907  1.1746  1.2935 -0.9754
 5045TIP3    H236695   0.927   4.351   6.759  1.6004 -0.1702 -1.0796
 5046TIP3   OH236696   0.854   1.318   7.350  0.1092  0.0113 -0.1634
 5046TIP3    H136697   0.819   1.407   7.351 -1.6873 -0.6656  0.3021
 5046TIP3    H236698   0.832   1.285   7.263  0.1889 -0.1971 -0.1045
 5047TIP3   OH236699   4.145   1.869   1.673  0.0859  0.1389 -0.1682
 5047TIP3    H136700   4.157   1.774   1.667  1.5173  0.2710  0.3043
 5047TIP3    H236701   4.067   1.886   1.620 -0.9949 -1.4526  0.7942
 5048TIP3   OH236702   3.396   3.768   1.400  0.0571 -0.2679 -0.0648
 5048TIP3    H136703   3.368   3.859   1.390  0.9158  0.1487  1.1374
 5048TIP3    H236704   3.322   3.726   1.444 -0.0098  0.0342  0.1149
 5049TIP3   OH236705   5.975   6.490   7.667  0.1866 -0.0675  0.2509
 5049TIP3    H136706   6.032   6.564   7.645 -1.4825  1.1571 -0.1379
 5049TIP3    H236707   5.911   6.526   7.728 -3.2229  0.0782 -3.0268
 5050TIP3   OH236708   1.936   2.974   1.116 -0.1449 -0.0243 -0.2932
 5050TIP3    H136709   1.975   3.044   1.063 -0.4242  0.0272 -0.4309
 5050TIP3    H236710   1.885   3.019   1.183 -0.6195 -0.0936 -0.6012
 5051TIP3   OH236711   0.113   0.399   7.509 -0.2187 -0.0483 -0.4302
 5051TIP3    H136712   0.077   0.444   7.585  1.3057 -2.7702  2.1091
 5051TIP3    H236713   0.053   0.326   7.494  0.6876 -0.8114 -0.3961
 5052TIP3   OH236714   5.705   2.666   6.789 -0.1783  0.4753 -0.5278
 5052TIP3    H136715   5.718   2.671   6.694  2.1255  0.0161 -0.3093
 5052TIP3    H236716   5.757   2.739   6.824  1.6834 -1.2112  0.4829
 5053TIP3   OH236717   0.200   1.615   7.131 -0.2121 -0.3414  0.3103
 5053TIP3    H136718   0.105   1.620   7.136 -0.4640 -3.6459  4.2200
 5053TIP3    H236719   0.229   1.706   7.136 -3.1356  0.7340 -0.1040
 5054TIP3   OH236720   0.550   5.737   0.233 -0.1470  0.2925 -0.4451
 5054TIP3    H136721   0.644   5.738   0.213  0.1328  0.4062  0.7585
 5054TIP3    H236722   0.529   5.829   0.251 -0.3527  0.1828 -0.1287
 5055TIP3   OH236723   4.711   5.882   7.809  0.2263  0.0399  0.4514
 5055TIP3    H136724   4.785   5.822   7.801 -0.6522 -0.8218 -1.9914
 5055TIP3    H236725   4.647   5.833   7.861  0.2595 -0.3744  0.1106
 5056TIP3   OH236726   0.226   5.146   8.586 -0.0667  0.3490  0.7793
 5056TIP3    H136727   0.206   5.105   8.670 -1.2088  1.1643  0.9371
 5056TIP3    H236728   0.179   5.230   8.589  0.8066  0.8912 -0.2172
 5057TIP3   OH236729   3.218   5.974   1.096  0.1374 -0.2655  0.4045
 5057TIP3    H136730   3.150   6.041   1.088  0.7128  0.5149  1.7644
 5057TIP3    H236731   3.276   6.006   1.164  1.2388 -1.4794  0.0826
 5058TIP3   OH236732   5.840   5.540   2.469  0.2141 -0.2134  0.4321
 5058TIP3    H136733   5.908   5.563   2.534  0.7954  0.7818 -0.5000
 5058TIP3    H236734   5.822   5.447   2.486  0.7208 -0.1122  1.6783
 5059TIP3   OH236735   3.717   0.547   1.942  0.2080 -0.2755 -0.5507
 5059TIP3    H136736   3.673   0.466   1.916 -1.0632  0.3341 -0.3327
 5059TIP3    H236737   3.663   0.582   2.013  1.6407 -0.0597  0.4887
 5060TIP3   OH236738   6.486   0.264   1.580 -0.1263 -0.1278 -0.5515
 5060TIP3    H136739   6.515   0.206   1.651 -0.8520  0.8957  0.6421
 5060TIP3    H236740   6.410   0.220   1.542 -1.6237  0.6336  1.3413
 5061TIP3   OH236741   1.729   2.928   7.797  0.4201  0.6513 -0.6242
 5061TIP3    H136742   1.707   2.871   7.724 -1.1546  0.5973 -0.1550
 5061TIP3    H236743   1.776   3.001   7.757  1.6148 -0.4815 -1.3574
 5062TIP3   OH236744   4.592   0.314   7.953 -0.3895  0.2574  0.0032
 5062TIP3    H136745   4.633   0.277   8.031  1.1326  0.4134 -0.6877
 5062TIP3    H236746   4.503   0.279   7.954  0.1402 -1.1695  0.8653
 5063TIP3   OH236747   3.242   1.973   1.755 -0.4882 -0.3694  0.2060
 5063TIP3    H136748   3.256   2.043   1.819  1.3914 -0.0164 -0.5072
 5063TIP3    H236749   3.147   1.972   1.740 -0.5885  2.0156  0.2838
 5064TIP3   OH236750   3.335   2.352   7.153 -0.1984 -0.6401  0.2472
 5064TIP3    H136751   3.345   2.285   7.085  0.5646  0.2720 -0.5719
 5064TIP3    H236752   3.416   2.404   7.148 -1.0376  0.7384  0.4043
 5065TIP3   OH236753   4.319   0.531   8.330  0.2832  1.1057  0.3266
 5065TIP3    H136754   4.227   0.558   8.329 -0.5425 -1.2507  2.5940
 5065TIP3    H236755   4.325   0.463   8.264 -0.0048  0.2260  1.1856
 5066TIP3   OH236756   4.984   5.397   0.213  0.3046 -0.3295 -0.4111
 5066TIP3    H136757   5.052   5.456   0.181  0.6104 -0.0478  0.7162
 5066TIP3    H236758   4.901   5.440   0.190  0.5262  0.5047  0.3462
 5067TIP3   OH236759   0.541   0.604   0.008 -0.2015  0.3137  0.0005
 5067TIP3    H136760   0.448   0.619   0.027 -0.0309  0.6510  0.5900
 5067TIP3    H236761   0.552   0.631  -0.083 -0.3401  1.8257  0.4108
 5068TIP3   OH236762   1.587   1.800   1.595  0.0649  0.3461  0.0912
 5068TIP3    H136763   1.531   1.817   1.519 -0.3611  1.0654  0.5526
 5068TIP3    H236764   1.607   1.887   1.629  0.2694  0.0275  0.7926
 5069TIP3   OH236765   2.136   0.161   8.139  0.1598  0.1858 -0.2926
 5069TIP3    H136766   2.134   0.076   8.096  0.6423  0.8907 -1.8056
 5069TIP3    H236767   2.214   0.204   8.103  1.2566  0.4085  2.2068
 5070TIP3   OH236768   2.690   5.850   0.996  0.0198  0.1352  0.1591
 5070TIP3    H136769   2.708   5.944   0.994  0.0560  0.1555  1.2742
 5070TIP3    H236770   2.634   5.835   0.919 -2.3115  1.5673  1.4488
 5071TIP3   OH236771   3.069   1.332   8.276 -0.1679  0.1416 -0.3419
 5071TIP3    H136772   2.996   1.281   8.241  1.5284 -1.3022 -1.9571
 5071TIP3    H236773   3.099   1.281   8.352  0.7224 -0.6627 -1.2015
 5072TIP3   OH236774   4.290   0.570   6.782 -0.2933 -0.1375 -0.4753
 5072TIP3    H136775   4.249   0.551   6.866 -0.2157  1.0498 -0.1394
 5072TIP3    H236776   4.252   0.507   6.721  0.5796 -1.8405  0.6845
 5073TIP3   OH236777   1.553   0.361   8.455 -0.5627 -0.0897  0.1727
 5073TIP3    H136778   1.478   0.304   8.474 -0.4628 -0.8198 -1.4658
 5073TIP3    H236779   1.524   0.416   8.383  0.0670  0.4811  0.3463
 5074TIP3   OH236780   6.029   0.709   0.673  0.2947 -0.8133 -0.0211
 5074TIP3    H136781   5.994   0.665   0.596  1.9505  0.5970 -1.6829
 5074TIP3    H236782   6.104   0.656   0.700 -0.4401 -1.4497  0.8214
 5075TIP3   OH236783   1.806   5.463   7.376  0.5689  0.1140  0.0280
 5075TIP3    H136784   1.813   5.516   7.297  0.5480 -0.0998 -0.1184
 5075TIP3    H236785   1.810   5.373   7.345  0.0641  0.0227  0.2217
 5076TIP3   OH236786   2.884   3.538   7.524  0.6896  0.1408  0.0641
 5076TIP3    H136787   2.961   3.565   7.475  0.2134 -0.0539 -0.8059
 5076TIP3    H236788   2.865   3.612   7.582 -0.2841  1.5265 -1.9085
 5077TIP3   OH236789   5.142   5.566   6.986  0.1059  0.0552  0.0350
 5077TIP3    H136790   5.224   5.577   6.939 -1.2359  0.6738 -2.3124
 5077TIP3    H236791   5.106   5.654   6.994 -1.4455 -0.4136 -1.1967
 5078TIP3   OH236792   5.658   5.093   1.166  0.2211 -0.5318 -0.0636
 5078TIP3    H136793   5.662   5.013   1.219 -0.1028 -1.1111 -0.8997
 5078TIP3    H236794   5.568   5.124   1.176  0.6551  0.4303  1.2353
 5079TIP3   OH236795   6.732   5.364   0.838  0.3882  0.0835  0.0610
 5079TIP3    H136796   6.802   5.409   0.885  1.4735 -0.0482 -1.3508
 5079TIP3    H236797   6.776   5.293   0.791 -0.7007 -0.0888 -0.7552
 5080TIP3   OH236798   4.184   4.568   0.530  0.5796  0.2788 -0.5830
 5080TIP3    H136799   4.107   4.622   0.518 -0.6377 -1.4865 -1.1365
 5080TIP3    H236800   4.239   4.617   0.591 -2.3546  0.2386  2.3406
 5081TIP3   OH236801   2.579   0.580   0.130 -0.0532  0.5926 -0.3219
 5081TIP3    H136802   2.642   0.619   0.191  0.1540  1.1305 -0.8782
 5081TIP3    H236803   2.604   0.487   0.128 -0.0477  0.5726  0.3919
 5082TIP3   OH236804   5.007   4.735   8.375 -0.2991 -0.4659  0.3103
 5082TIP3    H136805   5.003   4.658   8.317 -1.1257 -0.3073  0.1342
 5082TIP3    H236806   4.925   4.731   8.424  0.4671 -0.6837  1.6007
 5083TIP3   OH236807   1.406   3.122   1.236 -0.4089  0.5273  0.3458
 5083TIP3    H136808   1.371   3.196   1.186  0.7373  0.7108 -0.2104
 5083TIP3    H236809   1.340   3.053   1.225  0.8093 -0.2879 -3.4829
 5084TIP3   OH236810   5.440   5.106   7.675 -0.2382  0.0045 -0.3847
 5084TIP3    H136811   5.390   5.162   7.734  1.3923 -1.4722  2.7075
 5084TIP3    H236812   5.525   5.150   7.666 -0.0021 -0.4561 -0.4705
 5085TIP3   OH236813   1.413   0.504   8.265 -0.5419 -0.1501 -0.1941
 5085TIP3    H136814   1.447   0.520   8.177 -1.0030  0.4239 -0.2747
 5085TIP3    H236815   1.322   0.476   8.252 -0.5251 -0.3483  0.0866
 5086TIP3   OH236816   4.641   4.885   7.479  0.0957 -0.4239  0.7154
 5086TIP3    H136817   4.654   4.876   7.384 -0.1343  0.6576  0.5694
 5086TIP3    H236818   4.690   4.813   7.517  0.0037 -1.0086 -0.2431
 5087TIP3   OH236819   3.121   0.220   7.389  0.3736  0.0436 -0.1170
 5087TIP3    H136820   3.180   0.225   7.464  0.6392 -0.4065 -0.2943
 5087TIP3    H236821   3.085   0.308   7.382 -1.5573 -0.4762  2.0656
 5088TIP3   OH236822   4.171   0.544   7.047  0.3411  0.6953  0.3207
 5088TIP3    H136823   4.160   0.451   7.065 -1.3485  0.7712 -0.1101
 5088TIP3    H236824   4.242   0.572   7.104  0.8980 -0.8596  0.4213
 5089TIP3   OH236825   3.005   2.191   8.360  0.5940 -0.2076  0.3618
 5089TIP3    H136826   3.091   2.231   8.376  1.2033 -1.2349 -0.2503
 5089TIP3    H236827   3.017   2.140   8.279 -0.8426  0.3532 -0.2311
 5090TIP3   OH236828   3.451   0.527   8.546  0.4280  0.4233  0.5455
 5090TIP3    H136829   3.390   0.560   8.481  0.0435  0.2701  0.8262
 5090TIP3    H236830   3.522   0.592   8.547 -0.3905  1.3310  1.1941
 5091TIP3   OH236831   0.256   0.987   0.391  0.3544 -0.3418  0.3485
 5091TIP3    H136832   0.271   1.037   0.471  0.4524  1.1629 -0.5746
 5091TIP3    H236833   0.168   0.950   0.402  0.0004  0.5872  0.7907
 5092TIP3   OH236834   1.787   5.471   8.337 -0.5446  0.0476  0.0457
 5092TIP3    H136835   1.750   5.556   8.362  1.9770  1.0596  0.5800
 5092TIP3    H236836   1.869   5.465   8.386  0.2762 -1.8602 -1.4354
 5093TIP3   OH236837   1.383   0.050   1.100  0.3497  0.4798  0.9580
 5093TIP3    H136838   1.343  -0.027   1.141 -0.3345  0.6931  0.7046
 5093TIP3    H236839   1.309   0.098   1.062  0.7432  1.3380  1.2414
 5094TIP3   OH236840   0.197   1.014   8.658 -0.2302 -0.1877  0.1079
 5094TIP3    H136841   0.124   1.041   8.603  1.7629 -0.6955 -3.0976
 5094TIP3    H236842   0.272   1.063   8.625  1.1292 -0.4452  2.5377
 5095TIP3   OH236843   4.971   0.853   8.254  0.7636  0.0881 -0.0643
 5095TIP3    H136844   5.031   0.791   8.296  1.2005 -1.3823 -2.6345
 5095TIP3    H236845   4.892   0.850   8.307  1.7670 -0.5121  1.4727
 5096TIP3   OH236846   6.613   4.063   0.696 -0.0162 -0.1134 -0.0415
 5096TIP3    H136847   6.575   4.055   0.783 -0.8917 -2.1630 -0.5464
 5096TIP3    H236848   6.540   4.092   0.641 -0.1243 -1.2260 -0.5043
 5097TIP3   OH236849   3.022   3.895   0.428 -0.1721 -0.0744  0.1219
 5097TIP3    H136850   2.984   3.967   0.377 -0.4717  0.6042  1.2766
 5097TIP3    H236851   3.085   3.855   0.368 -0.8746  0.3804 -0.9578
 5098TIP3   OH236852   0.934   0.697   2.246 -0.2295  0.1711 -0.5020
 5098TIP3    H136853   1.001   0.681   2.313 -0.6573  0.4019 -0.0091
 5098TIP3    H236854   0.983   0.700   2.164  0.6164  1.9737  0.0087
 5099TIP3   OH236855   0.245   0.281   0.365 -0.0108  0.0753  0.6310
 5099TIP3    H136856   0.332   0.257   0.397 -0.9813 -0.5149  3.0325
 5099TIP3    H236857   0.228   0.218   0.294  2.1841  1.3701 -1.1766
 5100TIP3   OH236858   0.528   5.380   6.317  0.0675 -0.0654  0.1561
 5100TIP3    H136859   0.489   5.458   6.276  1.3220  0.5142  0.0102
 5100TIP3    H236860   0.455   5.320   6.328 -0.7273  0.6772 -0.8082
 5101TIP3   OH236861   6.161   4.267   0.141  0.1124 -0.1380 -0.1279
 5101TIP3    H136862   6.226   4.335   0.158  0.7598 -1.3137  2.5964
 5101TIP3    H236863   6.081   4.299   0.183 -0.0576 -0.3338 -0.3003
 5102TIP3   OH236864   1.612   2.554   0.968  0.0654  0.1461 -0.2812
 5102TIP3    H136865   1.579   2.470   0.938 -1.8344  0.5338  0.6208
 5102TIP3    H236866   1.651   2.536   1.053 -1.4072  0.3575  0.4563
 5103TIP3   OH236867   4.968   2.563   0.302 -0.4087  0.5488  0.1379
 5103TIP3    H136868   4.977   2.587   0.210 -0.4112  0.1132  0.0220
 5103TIP3    H236869   5.029   2.491   0.314 -0.4991  0.5232  0.4454
 5104TIP3   OH236870   1.062   4.404   1.465  0.4696  0.5249  0.0831
 5104TIP3    H136871   0.988   4.459   1.493 -2.4596 -2.1139 -1.8095
 5104TIP3    H236872   1.043   4.318   1.503  1.5450 -0.6888 -1.9863
 5105TIP3   OH236873   3.271   5.227   8.358 -0.1008 -0.6212 -0.3090
 5105TIP3    H136874   3.346   5.237   8.417  0.3006 -0.9553 -0.7546
 5105TIP3    H236875   3.307   5.181   8.282 -0.7088 -0.5749 -0.6259
 5106TIP3   OH236876   5.127   4.843   2.374  0.2480  0.2695  0.6543
 5106TIP3    H136877   5.193   4.901   2.337  1.2270 -0.2571  1.5117
 5106TIP3    H236878   5.165   4.813   2.456 -0.2503 -1.5508  0.2580
 5107TIP3   OH236879   1.456   6.462   8.414 -0.0868 -0.2317  0.0338
 5107TIP3    H136880   1.500   6.398   8.358  0.9031 -0.8651  1.4761
 5107TIP3    H236881   1.394   6.410   8.466 -0.9849  0.3443 -0.4311
 5108TIP3   OH236882   2.080   0.793   7.228 -0.5917  0.2096  0.1967
 5108TIP3    H136883   2.138   0.839   7.168 -1.3566  0.8566 -0.0602
 5108TIP3    H236884   2.128   0.792   7.311 -0.1046  0.5070 -0.0758
 5109TIP3   OH236885   1.954   3.447   7.848  0.5145 -0.0883  0.1500
 5109TIP3    H136886   2.027   3.388   7.831  1.2254  1.1830 -1.4396
 5109TIP3    H236887   1.965   3.519   7.785 -0.4760  1.6041  1.8021
 5110TIP3   OH236888   1.153   2.383   1.249 -0.0692  0.2317 -0.1719
 5110TIP3    H136889   1.093   2.325   1.201 -0.2569  0.9563 -0.8502
 5110TIP3    H236890   1.240   2.359   1.217 -0.1097  0.0719 -0.1653
 5111TIP3   OH236891   5.788   5.440   6.719 -0.2534  0.1437 -0.4204
 5111TIP3    H136892   5.739   5.481   6.649  0.2634  1.7673  0.1293
 5111TIP3    H236893   5.784   5.346   6.700  0.4164  0.5664 -2.9526
 5112TIP3   OH236894   5.768   6.193   6.490  1.2485  0.2741  0.3722
 5112TIP3    H136895   5.843   6.217   6.434  0.6283  2.5638  0.4597
 5112TIP3    H236896   5.717   6.273   6.498 -0.2736 -0.7833  1.8270
 5113TIP3   OH236897   4.847   4.635   7.182 -0.4187 -0.7880 -0.3391
 5113TIP3    H136898   4.879   4.609   7.095 -1.3416 -0.9247 -0.6472
 5113TIP3    H236899   4.857   4.557   7.236  0.2095 -0.6873 -0.2987
 5114TIP3   OH236900   3.539   1.006   0.547 -0.5587  0.2815  0.1252
 5114TIP3    H136901   3.631   0.987   0.527 -0.8854 -1.3077 -0.0001
 5114TIP3    H236902   3.490   0.945   0.492 -1.7102  1.1677  0.1295
 5115TIP3   OH236903   5.312   4.247   7.685 -0.1963 -0.4105 -0.1437
 5115TIP3    H136904   5.374   4.244   7.757  2.7519 -0.1333 -2.4423
 5115TIP3    H236905   5.356   4.200   7.614 -2.8985 -0.6604 -1.7909
 5116TIP3   OH236906   0.788   6.239   1.956  0.3084 -0.8191  0.2856
 5116TIP3    H136907   0.783   6.147   1.982 -0.4275 -1.0014 -0.4500
 5116TIP3    H236908   0.753   6.287   2.031 -0.3229 -1.2256  0.2564
 5117TIP3   OH236909   5.093   5.180   8.337 -0.2087  0.3760  0.4863
 5117TIP3    H136910   5.133   5.230   8.266 -0.0037 -0.4178  0.0275
 5117TIP3    H236911   5.162   5.122   8.367 -0.3555  0.5695  1.2127
 5118TIP3   OH236912   4.766   2.622   8.702  0.5800 -0.3326  0.1237
 5118TIP3    H136913   4.755   2.554   8.769 -1.2175  1.4851  1.8199
 5118TIP3    H236914   4.692   2.681   8.716  1.4744  1.4005 -1.9713
 5119TIP3   OH236915   0.760   5.544   1.613 -0.0697 -0.4333 -0.5175
 5119TIP3    H136916   0.688   5.607   1.622  0.5788  0.2450  0.0426
 5119TIP3    H236917   0.718   5.463   1.583 -0.7388  0.6620 -2.6855
 5120TIP3   OH236918   2.722   6.296   8.155  0.3426 -0.1133 -0.7774
 5120TIP3    H136919   2.656   6.227   8.148  0.2148  0.1203 -2.1842
 5120TIP3    H236920   2.739   6.303   8.248 -0.5236 -1.2164 -0.5098
 5121TIP3   OH236921   6.483   5.995   6.528 -0.8130 -0.2554  0.0764
 5121TIP3    H136922   6.555   6.057   6.533  0.8283 -2.0754  0.3282
 5121TIP3    H236923   6.467   5.985   6.434 -2.2816  1.7744  0.0579
 5122TIP3   OH236924   2.356   5.282   0.545 -0.0437  0.8071 -0.7789
 5122TIP3    H136925   2.447   5.305   0.528 -0.0875  0.9147 -0.8753
 5122TIP3    H236926   2.311   5.366   0.554  0.0105  0.7483  0.0868
 5123TIP3   OH236927   2.583   5.224   6.379  0.2644  0.3747 -0.2373
 5123TIP3    H136928   2.506   5.260   6.424  1.5841  1.9747  0.8680
 5123TIP3    H236929   2.548   5.152   6.327 -1.5198 -1.2237  2.8462
 5124TIP3   OH236930   1.092   3.526   6.914 -0.3843  0.3833 -0.5970
 5124TIP3    H136931   1.114   3.601   6.968  1.6835 -0.4875 -0.1354
 5124TIP3    H236932   1.051   3.464   6.974  0.3746  0.0880 -0.3734
 5125TIP3   OH236933   3.461   4.805   7.886 -0.0343  0.0520  0.0655
 5125TIP3    H136934   3.528   4.860   7.845 -1.7067  1.2652 -1.1778
 5125TIP3    H236935   3.477   4.718   7.849  0.0141  0.6226 -1.3246
 5126TIP3   OH236936   1.055   3.278   0.738  0.7095 -0.3367 -0.0953
 5126TIP3    H136937   0.968   3.268   0.701  1.3226 -0.4160 -1.5688
 5126TIP3    H236938   1.051   3.230   0.821 -0.8404  0.2778  0.2327
 5127TIP3   OH236939   5.790   2.478   6.999 -0.1697 -0.5244 -0.1836
 5127TIP3    H136940   5.830   2.403   6.956  1.8141 -0.5904  1.6271
 5127TIP3    H236941   5.750   2.528   6.927  2.1863 -1.0730 -2.0191
 5128TIP3   OH236942   4.932   2.348   2.608 -0.4959  0.2435  0.4508
 5128TIP3    H136943   4.868   2.285   2.639  0.4499 -0.5789  0.7870
 5128TIP3    H236944   4.880   2.426   2.585 -1.4752  0.0758  1.9338
 5129TIP3   OH236945   6.524   1.899   1.041 -0.3023 -0.0551 -0.5008
 5129TIP3    H136946   6.588   1.839   1.079  0.5588  1.5961  0.7628
 5129TIP3    H236947   6.533   1.887   0.946  2.4167  0.6062 -0.4088
 5130TIP3   OH236948   4.159   4.369   0.079 -0.2547  0.2686 -0.0868
 5130TIP3    H136949   4.216   4.301   0.042  1.0681  2.1590 -1.7601
 5130TIP3    H236950   4.070   4.341   0.056  0.2609 -0.8555 -0.7883
 5131TIP3   OH236951   5.069   1.041   0.273 -0.0908  0.3840  0.7607
 5131TIP3    H136952   5.021   1.016   0.353  0.0576  0.0657  0.7507
 5131TIP3    H236953   5.156   1.064   0.304  0.5627 -1.5595  0.4879
 5132TIP3   OH236954   2.959   2.144   0.922  0.3830  0.7502 -0.4114
 5132TIP3    H136955   2.867   2.125   0.942  0.5971  1.3773  1.2566
 5132TIP3    H236956   2.966   2.239   0.927  1.2124  0.6782 -0.0865
 5133TIP3   OH236957   4.151   4.008   7.141  0.0993  0.4980  0.2181
 5133TIP3    H136958   4.206   3.962   7.077  0.7362  1.2534  0.1960
 5133TIP3    H236959   4.063   3.977   7.124  0.5647 -1.0554  0.5169
 5134TIP3   OH236960   4.028   4.486   6.395  0.0829 -0.2499  0.2672
 5134TIP3    H136961   3.953   4.479   6.454 -1.5978  1.1620 -1.5733
 5134TIP3    H236962   4.018   4.572   6.353  2.4843 -0.2170 -0.3993
 5135TIP3   OH236963   0.354   4.430   8.800 -0.5556  0.3520  0.3798
 5135TIP3    H136964   0.354   4.337   8.821  0.6301 -0.1273 -1.5367
 5135TIP3    H236965   0.380   4.473   8.882  0.6048 -1.1307  0.8267
 5136TIP3   OH236966   0.951   2.676   0.093  0.5830 -0.1560 -0.5271
 5136TIP3    H136967   1.045   2.685   0.078  0.6091  0.2111 -0.1749
 5136TIP3    H236968   0.937   2.582   0.101  1.1815 -0.1478  0.9792
 5137TIP3   OH236969   6.311   5.632   0.589  0.1485 -0.0413 -0.2097
 5137TIP3    H136970   6.256   5.555   0.575  0.8360 -0.2494 -1.9972
 5137TIP3    H236971   6.400   5.601   0.577  0.5622  0.6818  0.8185
 5138TIP3   OH236972   0.536   1.751   7.219  0.3017 -0.1974  0.4593
 5138TIP3    H136973   0.494   1.790   7.143 -0.1843 -1.9038 -0.1814
 5138TIP3    H236974   0.630   1.755   7.200  0.3195  1.2497  0.7323
 5139TIP3   OH236975   3.047   1.196   6.673 -0.0227  0.4107  0.5251
 5139TIP3    H136976   3.081   1.162   6.756 -0.5233  1.5209  1.2049
 5139TIP3    H236977   3.062   1.290   6.677 -0.1834  0.4995 -0.5888
 5140TIP3   OH236978   1.007   4.340   7.997 -0.8032 -0.6451  0.1754
 5140TIP3    H136979   1.037   4.256   7.963 -1.9557 -0.8490 -0.3836
 5140TIP3    H236980   0.913   4.341   7.980 -0.6357  1.2908 -0.9737
 5141TIP3   OH236981   6.588   2.298   0.890  0.1461 -0.1658  0.2558
 5141TIP3    H136982   6.555   2.247   0.816  2.2333 -0.0439 -0.8089
 5141TIP3    H236983   6.682   2.304   0.876  0.5151  0.5282  2.5312
 5142TIP3   OH236984   6.478   0.644   1.834  0.0934  0.1902 -0.0576
 5142TIP3    H136985   6.459   0.683   1.749 -1.8241  1.0713  0.7095
 5142TIP3    H236986   6.424   0.693   1.895  2.1468  0.2219  1.8456
 5143TIP3   OH236987   6.519   0.966   7.505 -0.3091  0.0429  0.7223
 5143TIP3    H136988   6.609   0.990   7.487 -0.0679 -0.4104  1.2849
 5143TIP3    H236989   6.467   1.012   7.439  0.3899 -0.2945 -0.0698
 5144TIP3   OH236990   0.913   0.855   7.632 -0.5781  0.0673  0.0652
 5144TIP3    H136991   0.841   0.797   7.658 -0.4480  0.3885  1.1709
 5144TIP3    H236992   0.938   0.824   7.545 -1.1284 -0.9401  0.2497
 5145TIP3   OH236993   4.821   2.448   1.322 -0.0469 -0.0423  0.4904
 5145TIP3    H136994   4.754   2.386   1.351 -1.3492  0.3134 -1.5932
 5145TIP3    H236995   4.824   2.514   1.391 -0.6342 -0.9453  1.4097
 5146TIP3   OH236996   5.262   1.408   6.449 -0.4091  1.0767 -1.0312
 5146TIP3    H136997   5.342   1.355   6.439  1.0253  3.1808 -1.4699
 5146TIP3    H236998   5.235   1.427   6.359 -1.2807  0.5848 -0.8782
 5147TIP3   OH236999   3.448   6.167   7.675 -0.0404 -0.7434  0.3186
 5147TIP3    H137000   3.434   6.101   7.608 -2.1408 -1.5872  1.5068
 5147TIP3    H237001   3.379   6.152   7.739  1.0071  0.9542  1.9580
 5148TIP3   OH237002   4.125   2.446   7.300 -0.2649  0.6315  0.0156
 5148TIP3    H137003   4.098   2.476   7.387  0.1956  0.5737  0.1804
 5148TIP3    H237004   4.162   2.359   7.315 -0.4730  0.4930 -0.2827
 5149TIP3   OH237005   3.295   3.930   6.560 -0.3562 -0.1724 -0.5609
 5149TIP3    H137006   3.249   4.013   6.551 -0.6426 -0.4187 -1.5151
 5149TIP3    H237007   3.290   3.910   6.654 -1.7864  0.0481 -0.5607
 5150TIP3   OH237008   0.704   5.819   0.554  0.2098  0.4426  0.4876
 5150TIP3    H137009   0.750   5.782   0.479 -0.2920 -0.9450  0.8263
 5150TIP3    H237010   0.773   5.847   0.614  0.6188 -0.0984  0.2766
 5151TIP3   OH237011   0.412   1.001   7.084  0.1919 -0.1548 -0.2318
 5151TIP3    H137012   0.493   0.967   7.049  0.5624  0.9729 -0.5187
 5151TIP3    H237013   0.417   1.096   7.069 -1.3898 -0.1227 -0.7170
 5152TIP3   OH237014   1.059   6.077   8.045  0.1565 -0.2408  0.2229
 5152TIP3    H137015   1.153   6.087   8.028 -0.2548 -0.0011 -2.1085
 5152TIP3    H237016   1.018   6.077   7.959 -2.0280 -0.1834  1.1968
 5153TIP3   OH237017   0.591   5.492   6.789  0.0783 -0.5760 -0.1498
 5153TIP3    H137018   0.570   5.511   6.697 -1.1037  0.7532  0.3581
 5153TIP3    H237019   0.687   5.493   6.792  0.1289 -0.0042 -1.2648
 5154TIP3   OH237020   1.108   0.882   1.500 -0.0695 -0.1234  0.1117
 5154TIP3    H137021   1.046   0.855   1.432 -1.0531  0.8872  0.5723
 5154TIP3    H237022   1.052   0.915   1.571  0.9886  1.7684  0.1387
 5155TIP3   OH237023   3.695   1.391   7.809 -0.1176 -0.2355 -0.4250
 5155TIP3    H137024   3.726   1.301   7.797  1.1397  0.2920 -1.4018
 5155TIP3    H237025   3.771   1.445   7.788 -0.8125  1.0638  0.2830
 5156TIP3   OH237026   6.340   1.500   7.999 -0.1007 -0.1940  0.1984
 5156TIP3    H137027   6.273   1.452   8.047 -0.0050 -0.9495 -0.4140
 5156TIP3    H237028   6.381   1.435   7.943  0.4612  0.4735 -0.1790
 5157TIP3   OH237029   3.756   3.602   2.349  0.4713 -0.3071 -0.1273
 5157TIP3    H137030   3.726   3.667   2.413  1.1200 -0.3359  0.2095
 5157TIP3    H237031   3.721   3.519   2.382 -1.0928 -0.0402 -1.0173
 5158TIP3   OH237032   5.566   6.269   1.887  0.4557 -0.2179  0.0995
 5158TIP3    H137033   5.505   6.217   1.939 -0.1402 -0.1745 -0.5302
 5158TIP3    H237034   5.518   6.286   1.805  1.0495  0.4144 -0.1241
 5159TIP3   OH237035   4.350   6.504   0.935  0.4376 -0.0484  0.7175
 5159TIP3    H137036   4.347   6.494   0.840 -0.6546  0.7814  0.6465
 5159TIP3    H237037   4.290   6.576   0.953  1.2262  0.3267  1.9680
 5160TIP3   OH237038   0.491   2.669   2.102  0.0969  0.8488  0.1872
 5160TIP3    H137039   0.443   2.586   2.107  1.1206  0.1848 -0.5791
 5160TIP3    H237040   0.564   2.658   2.164  0.6377  0.8957 -0.4366
 5161TIP3   OH237041   5.454   6.375   1.670 -0.0703  0.1499 -0.2211
 5161TIP3    H137042   5.501   6.369   1.587  0.1441  2.7235 -0.3489
 5161TIP3    H237043   5.467   6.465   1.699  1.4960 -1.1058  3.6297
 5162TIP3   OH237044   1.780   0.057   8.278 -0.5720  0.1951 -0.5398
 5162TIP3    H137045   1.802  -0.022   8.327 -2.5764 -0.4088 -0.5177
 5162TIP3    H237046   1.790   0.129   8.341  0.1907 -0.1669 -0.2438
 5163TIP3   OH237047   0.408   3.279   1.337 -0.7095  0.7447 -0.3672
 5163TIP3    H137048   0.443   3.368   1.334  1.8398 -0.1945 -1.6819
 5163TIP3    H237049   0.339   3.279   1.271  0.8131  1.2107 -2.0389
 5164TIP3   OH237050   3.830   1.618   1.717 -0.5655 -0.0358  0.2398
 5164TIP3    H137051   3.899   1.680   1.740  0.4938 -0.8848 -0.5143
 5164TIP3    H237052   3.749   1.669   1.717  0.4066  1.6220 -1.4147
 5165TIP3   OH237053   0.645   0.458   1.653 -0.1392  0.3013 -0.2637
 5165TIP3    H137054   0.589   0.422   1.722 -0.2957  0.3289 -0.3759
 5165TIP3    H237055   0.710   0.510   1.700 -0.5185  0.6881 -0.1603
 5166TIP3   OH237056   2.441   3.413   1.541 -0.0963  0.3748  0.4296
 5166TIP3    H137057   2.435   3.509   1.541 -1.1023  0.3192  0.4715
 5166TIP3    H237058   2.454   3.390   1.449 -1.6969  0.4728  0.1414
 5167TIP3   OH237059   2.182   1.362   0.101  0.0355  0.1569 -0.1749
 5167TIP3    H137060   2.262   1.310   0.108  0.4693  0.9599  1.1624
 5167TIP3    H237061   2.128   1.314   0.039  0.5302 -1.7274  0.7821
 5168TIP3   OH237062   4.294   2.108   0.283 -0.1655 -0.0046 -0.7855
 5168TIP3    H137063   4.255   2.177   0.230  1.2889  1.1930 -0.3763
 5168TIP3    H237064   4.221   2.068   0.330 -1.2257  0.2084 -2.2031
 5169TIP3   OH237065   4.099   3.605   6.958 -0.6170 -0.7991  0.0275
 5169TIP3    H137066   4.063   3.687   6.926  0.7026  0.1191  0.7694
 5169TIP3    H237067   4.110   3.551   6.880 -1.7319 -0.3715 -0.4419
 5170TIP3   OH237068   4.379   5.374   1.559 -0.0054  0.3825 -0.0765
 5170TIP3    H137069   4.329   5.441   1.513  0.5793 -0.1372 -1.5330
 5170TIP3    H237070   4.317   5.304   1.575  0.0016  0.1780 -0.9320
 5171TIP3   OH237071   6.109   3.910   2.173 -0.0845  0.3581  0.6192
 5171TIP3    H137072   6.203   3.896   2.177 -0.5068 -3.8702  0.7637
 5171TIP3    H237073   6.085   3.936   2.262  0.8710  0.9764  0.7037
 5172TIP3   OH237074   5.452   5.390   0.320  0.1603  0.4803  0.1943
 5172TIP3    H137075   5.500   5.307   0.329 -1.2942 -0.4525 -0.2847
 5172TIP3    H237076   5.404   5.381   0.238  0.2269  1.9604 -0.0308
 5173TIP3   OH237077   0.783   0.502   8.453 -0.2553 -0.3611 -0.0917
 5173TIP3    H137078   0.848   0.502   8.523  0.0329  0.9933 -0.3224
 5173TIP3    H237079   0.833   0.490   8.372 -0.1010  1.7664 -0.3717
 5174TIP3   OH237080   4.006   2.535   7.886 -0.2732 -0.3502  0.1271
 5174TIP3    H137081   3.935   2.598   7.898 -1.3580 -1.4644 -0.2874
 5174TIP3    H237082   4.084   2.590   7.875 -1.0285  0.9013  0.6972
 5175TIP3   OH237083   3.638   0.609   7.533 -0.1556 -0.4380 -0.2263
 5175TIP3    H137084   3.628   0.514   7.539 -2.6767 -0.2320 -0.1142
 5175TIP3    H237085   3.613   0.642   7.619 -0.7885  0.3850 -0.7036
 5176TIP3   OH237086   5.422   0.277   7.355 -0.5405 -0.4140 -0.7856
 5176TIP3    H137087   5.440   0.356   7.304  0.7491  0.1393  0.4684
 5176TIP3    H237088   5.349   0.301   7.413 -0.9401 -0.5376 -1.2299
 5177TIP3   OH237089   4.806   6.756   0.121  0.0195  0.2521 -1.0475
 5177TIP3    H137090   4.710   6.750   0.116 -0.3131  2.5932  0.6576
 5177TIP3    H237091   4.826   6.748   0.214  1.3214  1.3323 -1.1995
 5178TIP3   OH237092   2.486   0.927   7.546 -0.1257 -0.6039 -0.4118
 5178TIP3    H137093   2.441   0.992   7.491  0.7794 -0.3229 -0.8417
 5178TIP3    H237094   2.431   0.919   7.623  0.3549  1.6430  0.2593
 5179TIP3   OH237095   2.527   0.009   8.494  0.1620  0.0522 -0.7518
 5179TIP3    H137096   2.444  -0.040   8.490  1.0474 -1.4585 -2.2050
 5179TIP3    H237097   2.504   0.097   8.465 -0.9249 -0.3808 -1.2704
 5180TIP3   OH237098   3.426   0.761   0.431  0.2488  0.1634 -0.1043
 5180TIP3    H137099   3.411   0.704   0.506 -0.5109  0.1137 -0.2903
 5180TIP3    H237100   3.358   0.736   0.368 -0.4548  1.6644  0.0225
 5181TIP3   OH237101   0.937   2.647   0.795  0.4412 -0.1157 -0.3998
 5181TIP3    H137102   0.920   2.623   0.886 -0.5803 -1.0536 -0.8120
 5181TIP3    H237103   0.964   2.739   0.799 -0.7425  0.2121  0.7358
 5182TIP3   OH237104   4.357   3.708   1.043  0.0693  0.0439 -0.0218
 5182TIP3    H137105   4.394   3.789   1.076  0.2498 -0.3300  0.7231
 5182TIP3    H237106   4.405   3.639   1.088 -0.7375 -0.4655  0.0960
 5183TIP3   OH237107   2.255   1.456   0.435 -0.1329  0.0245 -0.4787
 5183TIP3    H137108   2.235   1.374   0.479  0.8030  1.3092  2.6684
 5183TIP3    H237109   2.316   1.500   0.495 -0.3964  2.8807 -2.1557
 5184TIP3   OH237110   3.063   0.139   0.332 -0.3416  0.0729  0.2271
 5184TIP3    H137111   3.035   0.194   0.259 -1.3571  0.9222  1.2228
 5184TIP3    H237112   3.127   0.079   0.294  1.5573  2.5354 -0.7098
 5185TIP3   OH237113   4.308   0.312   8.174  0.5898  0.0153 -0.1295
 5185TIP3    H137114   4.288   0.342   8.085 -1.7828  1.4024  0.7917
 5185TIP3    H237115   4.280   0.221   8.174 -1.9016  0.7243 -0.1285
 5186TIP3   OH237116   4.915   4.960   1.588 -1.1536  0.2403  0.0169
 5186TIP3    H137117   4.909   4.932   1.679 -0.3236 -0.3044 -0.0809
 5186TIP3    H237118   4.830   4.940   1.550 -0.8302 -1.5148  0.1371
 5187TIP3   OH237119   2.071   0.801   1.590  0.6626  0.0086  0.1588
 5187TIP3    H137120   2.049   0.828   1.679 -1.6057  1.0656 -0.6394
 5187TIP3    H237121   2.000   0.742   1.564  0.3190  1.0511 -1.4846
 5188TIP3   OH237122   6.579   5.576   1.674  0.5434 -0.3059  0.3156
 5188TIP3    H137123   6.542   5.588   1.761  1.7240 -1.2840  0.9821
 5188TIP3    H237124   6.541   5.647   1.622 -5.1352 -3.1254 -0.1326
 5189TIP3   OH237125   3.911   0.347   8.517  0.3013  0.4807  0.1469
 5189TIP3    H137126   3.936   0.336   8.426 -1.0232 -2.3934  0.0019
 5189TIP3    H237127   3.817   0.363   8.515  0.2102  0.1527  0.9813
 5190TIP3   OH237128   1.663   0.385   0.438  0.0873  0.3037  0.0596
 5190TIP3    H137129   1.693   0.475   0.440 -1.2667  0.7827 -0.0819
 5190TIP3    H237130   1.667   0.356   0.529  1.1854  0.2605  0.0089
 5191TIP3   OH237131   4.787   2.363   1.870 -0.2571  0.1110  0.0615
 5191TIP3    H137132   4.754   2.292   1.926 -1.3715  0.4499 -0.1283
 5191TIP3    H237133   4.709   2.415   1.850  0.4701  1.1328 -0.1770
 5192TIP3   OH237134   4.617   2.696   7.457  0.4088  1.4562  0.0372
 5192TIP3    H137135   4.535   2.712   7.412  0.7954  0.8889 -0.9016
 5192TIP3    H237136   4.594   2.693   7.550 -0.9851 -0.7115 -0.3225
 5193TIP3   OH237137   4.239   1.388   0.455  0.3877 -0.8907 -0.0321
 5193TIP3    H137138   4.220   1.323   0.522  1.7811 -1.6710 -0.3608
 5193TIP3    H237139   4.249   1.470   0.504  0.7885 -1.3415  0.6587
 5194TIP3   OH237140   3.402   6.100   6.536  0.8294 -0.0310 -0.8782
 5194TIP3    H137141   3.318   6.119   6.578 -1.1955 -0.7603 -4.2604
 5194TIP3    H237142   3.466   6.101   6.608 -2.0479  0.4678  1.8551
 5195TIP3   OH237143   4.796   2.012   1.180 -0.0683 -0.2569  0.7813
 5195TIP3    H137144   4.865   1.979   1.238  1.8324 -0.1665 -1.2871
 5195TIP3    H237145   4.768   1.935   1.131  0.0903  0.1056  0.1185
 5196TIP3   OH237146   5.478   3.059   1.511 -0.4024  0.6045 -0.0550
 5196TIP3    H137147   5.457   3.123   1.443 -0.8590 -1.3090 -1.8217
 5196TIP3    H237148   5.400   3.004   1.515  0.2573 -0.2850  0.8746
 5197TIP3   OH237149   4.494   6.216   7.902  0.1235 -0.5518 -0.2537
 5197TIP3    H137150   4.537   6.172   7.976  0.8677 -2.7828 -1.9189
 5197TIP3    H237151   4.548   6.293   7.885  1.4070 -1.3871 -0.0438
 5198TIP3   OH237152   3.696   4.919   0.238  0.3776  0.1580  0.0352
 5198TIP3    H137153   3.679   5.004   0.198  0.3844 -0.1534 -0.6450
 5198TIP3    H237154   3.718   4.939   0.329  0.0513  0.8521 -0.0370
 5199TIP3   OH237155   1.035   5.533   0.375  0.2295 -0.4040 -0.0539
 5199TIP3    H137156   0.992   5.491   0.300  0.1734  3.6020 -2.6238
 5199TIP3    H237157   1.124   5.551   0.344  1.3359 -1.6117  2.2264
 5200TIP3   OH237158   4.798   6.653   6.170 -0.2357  0.5159  0.2711
 5200TIP3    H137159   4.842   6.611   6.245  2.5841  0.5194 -1.2256
 5200TIP3    H237160   4.773   6.580   6.113  2.6561  0.5838 -1.2782
 5201TIP3   OH237161   5.015   5.808   6.887  0.1616  0.0536  0.4779
 5201TIP3    H137162   4.919   5.809   6.888  0.1164 -1.5379  0.0801
 5201TIP3    H237163   5.037   5.774   6.800  0.9688 -3.6498  1.9799
 5202TIP3   OH237164   0.569   2.967   8.098 -0.2387  0.1798  0.3016
 5202TIP3    H137165   0.631   2.963   8.025  0.7964  0.5747  1.1345
 5202TIP3    H237166   0.484   2.949   8.058  0.5701 -1.8212 -0.6340
 5203TIP3   OH237167   5.256   6.274   8.814 -0.4195 -0.1646 -0.1729
 5203TIP3    H137168   5.264   6.369   8.818 -1.0658 -0.1219  0.2898
 5203TIP3    H237169   5.299   6.249   8.732  1.1192  0.3606  0.4410
 5204TIP3   OH237170   1.440   4.683   7.263 -0.1336  0.5397  0.1281
 5204TIP3    H137171   1.350   4.689   7.232  0.2513  2.1732 -0.8127
 5204TIP3    H237172   1.436   4.623   7.337 -1.8361 -0.0911 -0.4237
 5205TIP3   OH237173   3.533   1.926   6.987 -0.3071 -0.0235  0.1898
 5205TIP3    H137174   3.595   1.928   7.059 -1.9364 -0.5998  1.6772
 5205TIP3    H237175   3.521   1.833   6.968 -1.1290  0.0439  0.3224
 5206TIP3   OH237176   5.318   1.075   0.374  0.2038  0.1009 -0.4672
 5206TIP3    H137177   5.356   1.163   0.383  1.9714 -0.5472 -1.0629
 5206TIP3    H237178   5.394   1.016   0.374 -0.8720 -1.3565 -1.0512
 5207TIP3   OH237179   2.292   5.073   8.274  0.1762 -0.0500  0.3040
 5207TIP3    H137180   2.374   5.073   8.225  0.0279  1.3753  0.0065
 5207TIP3    H237181   2.270   4.980   8.284  1.1549 -0.4196 -0.7215
 5208TIP3   OH237182   0.939   3.138   8.781  0.2465  0.2271  0.2761
 5208TIP3    H137183   0.883   3.214   8.800 -0.5057 -0.3259  0.3333
 5208TIP3    H237184   1.021   3.176   8.750  0.4096  1.1098  1.6704
 5209TIP3   OH237185   6.416   4.088   0.909  0.7265 -0.2399 -0.2369
 5209TIP3    H137186   6.338   4.144   0.904 -0.3195 -1.6844 -0.7141
 5209TIP3    H237187   6.403   4.038   0.990  1.2375 -0.4003 -0.2554
 5210TIP3   OH237188   5.826   6.351   7.031 -0.0338 -0.0867 -0.3134
 5210TIP3    H137189   5.917   6.320   7.034  0.4113  1.0776 -0.9257
 5210TIP3    H237190   5.791   6.313   6.950  0.5508  1.0388 -1.1320
 5211TIP3   OH237191   6.667   3.777   6.860 -0.6317 -0.3159  0.1336
 5211TIP3    H137192   6.590   3.798   6.807 -1.5969 -1.9143  0.8464
 5211TIP3    H237193   6.676   3.851   6.920 -1.1532  0.2241 -0.4366
 5212TIP3   OH237194   3.835   0.455   7.748  0.2711 -0.1280  0.0083
 5212TIP3    H137195   3.884   0.373   7.761 -0.1629 -0.4220 -0.1885
 5212TIP3    H237196   3.819   0.487   7.837  1.2770  0.2501  0.0640
 5213TIP3   OH237197   3.903   4.378   0.696  0.6412 -0.3995  0.3572
 5213TIP3    H137198   3.840   4.419   0.637  1.0448  0.8224  0.7442
 5213TIP3    H237199   3.956   4.451   0.729  2.0390 -1.3558  0.3105
 5214TIP3   OH237200   1.758   4.331   8.745  0.8177  0.7516 -0.0683
 5214TIP3    H137201   1.772   4.421   8.717  3.3705  0.5285  0.2469
 5214TIP3    H237202   1.845   4.292   8.745 -0.0921 -1.4462  0.7591
 5215TIP3   OH237203   5.834   1.323   7.108 -0.6929 -0.0067 -0.2489
 5215TIP3    H137204   5.739   1.326   7.100 -0.8586  1.1132  1.6115
 5215TIP3    H237205   5.851   1.263   7.181  0.0037  0.2792 -0.1623
 5216TIP3   OH237206   4.546   0.816   7.334 -0.2726  0.4782  0.0470
 5216TIP3    H137207   4.623   0.864   7.367 -0.4332  1.3474 -0.7981
 5216TIP3    H237208   4.554   0.729   7.372  1.0189  0.6275  0.1603
 5217TIP3   OH237209   5.933   1.568   7.121  0.4091 -0.1393 -0.8662
 5217TIP3    H137210   5.865   1.633   7.100 -0.1622 -0.0501  1.0328
 5217TIP3    H237211   5.886   1.485   7.126  0.3464 -0.0363  0.7231
 5218TIP3   OH237212   3.913   0.720   8.805  0.1684 -0.6091 -0.7597
 5218TIP3    H137213   3.918   0.808   8.844 -0.4112 -1.2801  0.9244
 5218TIP3    H237214   4.004   0.694   8.793  0.3482  0.0755 -0.9718
 5219TIP3   OH237215   4.456   5.296   0.129  0.1732 -0.0141 -0.0592
 5219TIP3    H137216   4.536   5.301   0.076 -1.3056  3.4717 -2.3278
 5219TIP3    H237217   4.475   5.349   0.206  0.8719 -1.4306  0.7752
 5220TIP3   OH237218   4.207   5.875   7.556 -0.4082  0.0680 -0.2662
 5220TIP3    H137219   4.131   5.825   7.587  1.2575 -1.9582  0.8254
 5220TIP3    H237220   4.239   5.920   7.635 -0.3196  0.7106 -0.6638
 5221TIP3   OH237221   3.051   5.786   0.749 -0.0492 -0.0174  0.5225
 5221TIP3    H137222   3.132   5.742   0.721  1.1941  1.2100  1.9762
 5221TIP3    H237223   2.983   5.720   0.737  1.2327 -1.2622 -0.3299
 5222TIP3   OH237224   5.773   0.468   0.778  0.0142 -0.7196 -0.0752
 5222TIP3    H137225   5.783   0.550   0.827 -0.7414 -0.1562 -0.8539
 5222TIP3    H237226   5.680   0.449   0.781 -0.1969 -0.1740 -2.0713
 5223TIP3   OH237227   5.289   2.564   6.950 -0.4007  0.4545  0.0379
 5223TIP3    H137228   5.197   2.537   6.952 -0.4320  0.6020  1.0273
 5223TIP3    H237229   5.308   2.592   7.040  0.6894  0.1670 -0.0908
 5224TIP3   OH237230   3.005   4.531   6.311 -0.0037  0.1235 -1.0223
 5224TIP3    H137231   2.977   4.462   6.252 -1.1767 -0.6525  0.3644
 5224TIP3    H237232   3.038   4.485   6.388 -1.6618  1.0637  0.3139
 5225TIP3   OH237233   3.926   0.748   1.185 -0.1755  0.1773 -1.1946
 5225TIP3    H137234   4.002   0.716   1.235 -0.2079 -0.0714 -1.3026
 5225TIP3    H237235   3.928   0.843   1.197  1.3660  0.4121 -2.8562
 5226TIP3   OH237236   4.234   4.663   7.071 -0.3831  0.0368 -0.0599
 5226TIP3    H137237   4.157   4.652   7.015 -0.5953 -0.4465  0.3175
 5226TIP3    H237238   4.307   4.631   7.018 -0.9005 -2.8634  0.7806
 5227TIP3   OH237239   6.516   2.169   0.345 -0.0427  0.0222 -0.0559
 5227TIP3    H137240   6.575   2.103   0.308  0.0488  0.8755 -1.5200
 5227TIP3    H237241   6.429   2.131   0.335  0.1310 -0.6478  0.8305
 5228TIP3   OH237242   1.886   0.889   8.795  0.2049 -0.1012 -0.4360
 5228TIP3    H137243   1.875   0.968   8.742  0.1288 -0.5742 -1.1463
 5228TIP3    H237244   1.908   0.921   8.883  1.2878  0.6812 -0.9753
 5229TIP3   OH237245   4.913   4.732   1.144  0.0157  0.3071 -0.8029
 5229TIP3    H137246   4.856   4.809   1.153  0.0224  0.5805 -2.6324
 5229TIP3    H237247   5.001   4.765   1.160 -0.0711  0.4903 -0.7033
 5230TIP3   OH237248   4.394   5.973   7.793  0.0238  0.1146  0.3571
 5230TIP3    H137249   4.442   5.907   7.742 -0.9572 -0.6594  0.3843
 5230TIP3    H237250   4.444   6.053   7.782  0.2571 -0.2090 -1.2154
 5231TIP3   OH237251   1.066   3.405   0.168 -0.4080  0.8444  0.0321
 5231TIP3    H137252   1.024   3.446   0.243  0.5546  2.8005 -0.4139
 5231TIP3    H237253   1.001   3.408   0.098 -2.0000 -2.6868  1.1514
 5232TIP3   OH237254   0.220   5.121   6.859 -0.3684 -0.5005  0.0028
 5232TIP3    H137255   0.258   5.196   6.812 -2.7640  1.2835  0.7223
 5232TIP3    H237256   0.153   5.087   6.800 -1.3789 -0.0991  0.8913
 5233TIP3   OH237257   4.656   5.713   8.214 -0.3592 -0.1600 -0.7177
 5233TIP3    H137258   4.734   5.698   8.267 -0.6640 -0.0615 -0.2409
 5233TIP3    H237259   4.593   5.648   8.245 -1.4427  1.5356  0.8570
 5234TIP3   OH237260   0.601   4.498   1.562  0.0436  0.0968 -0.2211
 5234TIP3    H137261   0.670   4.525   1.501  0.8226  1.1901  1.0798
 5234TIP3    H237262   0.641   4.429   1.615  0.3013  0.9802  0.7763
 5235TIP3   OH237263   2.032   2.350   8.604  0.3015  0.5608  0.3974
 5235TIP3    H137264   1.939   2.355   8.624  0.0523 -0.7157 -0.3468
 5235TIP3    H237265   2.041   2.394   8.520  0.0990 -0.6149 -0.2629
 5236TIP3   OH237266   3.217   4.531   7.660  0.2131 -0.5356 -0.0493
 5236TIP3    H137267   3.307   4.520   7.689 -0.3144 -1.7821  1.2445
 5236TIP3    H237268   3.181   4.598   7.717  0.4741  0.4694 -1.0181
 5237TIP3   OH237269   4.329   4.280   6.109  0.2681 -0.3454 -0.5994
 5237TIP3    H137270   4.355   4.362   6.066  1.0731 -0.6178 -0.6432
 5237TIP3    H237271   4.245   4.258   6.069 -0.1368  0.6460 -0.3335
 5238TIP3   OH237272   3.895   2.993   0.002 -0.2402  0.0153 -0.3569
 5238TIP3    H137273   3.975   3.044  -0.007 -1.3230  2.8312  3.2426
 5238TIP3    H237274   3.922   2.913   0.047  0.7795  0.0661 -0.8627
 5239TIP3   OH237275   1.666   6.352   0.103  0.3071 -0.2240  0.2667
 5239TIP3    H137276   1.717   6.273   0.123 -0.5111 -0.8519 -0.0607
 5239TIP3    H237277   1.711   6.391   0.028  2.6307  1.4374  2.3528
 5240TIP3   OH237278   3.281   4.641   8.582  1.0041 -0.4116  0.0939
 5240TIP3    H137279   3.369   4.603   8.578  0.3895 -1.8465 -0.3902
 5240TIP3    H237280   3.241   4.617   8.499  1.0442  2.6125 -0.9304
 5241TIP3   OH237281   3.546   1.909   6.612  0.1753  0.4911  0.1813
 5241TIP3    H137282   3.586   1.993   6.633  0.9144  0.5840 -1.4615
 5241TIP3    H237283   3.536   1.910   6.517  3.1332 -2.4840 -0.3589
 5242TIP3   OH237284   1.945   2.243   1.706  0.0261  0.4204  0.5808
 5242TIP3    H137285   1.869   2.209   1.659 -0.4419 -2.2310  2.9832
 5242TIP3    H237286   2.013   2.251   1.639 -1.4870 -0.0463 -1.0963
 5243TIP3   OH237287   5.438   6.547   1.178 -0.7408 -0.4325  0.2269
 5243TIP3    H137288   5.394   6.632   1.181 -1.0896 -0.6044  0.0512
 5243TIP3    H237289   5.513   6.557   1.236 -0.5894  0.1053 -0.0480
 5244TIP3   OH237290   0.610   0.260   1.262  1.2396  0.1001 -0.0209
 5244TIP3    H137291   0.542   0.308   1.309  0.6872 -1.6171  1.0154
 5244TIP3    H237292   0.593   0.279   1.169 -0.4326  0.0069  0.2363
 5245TIP3   OH237293   3.100   5.968   7.338  0.0053  0.2346 -0.5749
 5245TIP3    H137294   3.190   5.954   7.311 -0.3047 -4.0251  0.0075
 5245TIP3    H237295   3.050   5.972   7.256  0.3857 -0.4615 -0.8405
 5246TIP3   OH237296   6.036   3.290   6.944  0.1315  0.1629 -0.3468
 5246TIP3    H137297   6.046   3.350   6.870  1.8826  0.8430  0.3680
 5246TIP3    H237298   6.075   3.338   7.018 -0.8196 -0.8245  0.8378
 5247TIP3   OH237299   1.992   6.740   1.936  0.0134 -0.1228  0.4786
 5247TIP3    H137300   2.081   6.713   1.959  0.5763 -0.4001 -1.8033
 5247TIP3    H237301   1.937   6.666   1.961  0.4651 -0.1622  1.4153
 5248TIP3   OH237302   5.339   1.306   7.153  0.1903 -0.1130 -0.0733
 5248TIP3    H137303   5.369   1.217   7.172  1.0486  0.1108 -0.3215
 5248TIP3    H237304   5.404   1.362   7.195  0.7358  0.3856 -1.5101
 5249TIP3   OH237305   6.763   1.976   8.077 -0.0229 -0.0438 -0.2699
 5249TIP3    H137306   6.847   2.008   8.043  0.6925 -0.7632  0.7559
 5249TIP3    H237307   6.754   2.017   8.163 -1.2886  0.9121 -0.8285
 5250TIP3   OH237308   4.811   5.424   8.565  0.2919  0.8451  0.3057
 5250TIP3    H137309   4.784   5.427   8.474  2.0323 -1.6844 -0.3984
 5250TIP3    H237310   4.905   5.405   8.562  0.7046  2.0132  2.6508
 5251TIP3   OH237311   5.079   2.760   2.078 -0.3164 -0.2057 -0.2262
 5251TIP3    H137312   5.013   2.815   2.036  1.1838  1.7512 -0.1778
 5251TIP3    H237313   5.030   2.706   2.140 -2.1249 -0.5732 -1.8907
 5252TIP3   OH237314   0.657   4.541   8.740  0.3944  0.0219  0.3037
 5252TIP3    H137315   0.693   4.559   8.653  2.1063  0.0392  0.9728
 5252TIP3    H237316   0.570   4.581   8.740  0.9434  1.2740 -0.9165
 5253TIP3   OH237317   4.163   5.406   7.638 -0.4567  0.1229 -0.5321
 5253TIP3    H137318   4.214   5.486   7.624 -1.6262  0.8883 -0.6436
 5253TIP3    H237319   4.211   5.337   7.593 -0.2140  1.0659 -1.7514
 5254TIP3   OH237320   6.748   5.120   1.284  0.1595  0.0030 -0.0612
 5254TIP3    H137321   6.795   5.070   1.218 -1.8142 -1.1603 -0.6841
 5254TIP3    H237322   6.695   5.183   1.235 -1.5785 -1.0915  0.3008
 5255TIP3   OH237323   1.282   5.568   1.393 -0.2095  0.6541 -0.8657
 5255TIP3    H137324   1.192   5.556   1.422 -0.2667  1.8435 -0.4711
 5255TIP3    H237325   1.278   5.644   1.335  0.4882  0.5085 -1.1151
 5256TIP3   OH237326   2.470   5.156   1.074  0.3218  0.5247 -0.0226
 5256TIP3    H137327   2.386   5.110   1.071  0.7904 -0.3575 -0.1785
 5256TIP3    H237328   2.466   5.210   1.153 -0.1606  0.0275  0.2976
 5257TIP3   OH237329   3.473   2.358   8.269  0.5185  0.1885  0.2395
 5257TIP3    H137330   3.486   2.453   8.273  1.5265  0.0665  0.1583
 5257TIP3    H237331   3.384   2.345   8.302  0.8845  1.0375  1.6606
 5258TIP3   OH237332   0.382   0.308   1.443 -0.2731  0.1588 -0.0844
 5258TIP3    H137333   0.345   0.226   1.477  1.7399 -0.9699 -0.5050
 5258TIP3    H237334   0.383   0.366   1.519 -0.0002 -0.8453  0.7097
 5259TIP3   OH237335   6.245   0.904   6.667 -0.4880  0.4247 -0.5959
 5259TIP3    H137336   6.295   0.935   6.591  0.5045 -0.7760 -0.4679
 5259TIP3    H237337   6.270   0.964   6.738  0.6951 -0.0650 -0.5761
 5260TIP3   OH237338   6.675   6.469   0.387  0.0814 -0.1484  0.0241
 5260TIP3    H137339   6.700   6.510   0.304 -0.8470  1.6811  0.5895
 5260TIP3    H237340   6.586   6.436   0.372  0.0180 -0.0626  0.2028
 5261TIP3   OH237341   5.299   4.209   7.234  0.4694  0.4110 -0.0748
 5261TIP3    H137342   5.238   4.136   7.222 -0.2400  0.9571  0.1581
 5261TIP3    H237343   5.360   4.202   7.160  2.2033 -2.1309  1.4251
 5262TIP3   OH237344   3.211   3.321   1.825  0.4849 -0.5569 -0.1381
 5262TIP3    H137345   3.142   3.285   1.770  0.0822  0.1626 -0.1048
 5262TIP3    H237346   3.195   3.283   1.912  0.3337 -0.6554 -0.2093
 5263TIP3   OH237347   3.524   5.066   0.458 -0.4614 -0.1852 -0.3358
 5263TIP3    H137348   3.606   5.099   0.495  0.1848 -1.0133 -0.9755
 5263TIP3    H237349   3.467   5.143   0.453  0.4922  0.5390 -0.4394
 5264TIP3   OH237350   1.854   0.635   7.656  0.1702  0.1104 -0.4585
 5264TIP3    H137351   1.924   0.571   7.660 -0.0270 -0.1369 -0.8927
 5264TIP3    H237352   1.843   0.654   7.563  1.7056  2.4356 -0.2525
 5265TIP3   OH237353   0.436   4.865   8.363 -0.1468  0.1689  0.8121
 5265TIP3    H137354   0.355   4.907   8.391 -0.1146  1.7610 -1.2411
 5265TIP3    H237355   0.409   4.779   8.330 -1.0297  0.7668 -0.0389
 5266TIP3   OH237356   4.780   3.889   0.538 -0.1180  0.3736  0.2505
 5266TIP3    H137357   4.740   3.964   0.495 -0.0648 -0.5257 -1.4858
 5266TIP3    H237358   4.723   3.815   0.515  1.5535 -0.6422 -0.8542
 5267TIP3   OH237359   5.715   2.831   6.377  0.1257 -0.3464  0.1425
 5267TIP3    H137360   5.645   2.766   6.376 -0.2340  0.0123 -1.8503
 5267TIP3    H237361   5.787   2.788   6.424 -0.8623 -1.3229  0.8081
 5268TIP3   OH237362   0.382   6.408   7.663 -0.3786  0.2408 -0.2072
 5268TIP3    H137363   0.387   6.483   7.603  0.0228  0.4177  0.0426
 5268TIP3    H237364   0.331   6.441   7.737  0.5239  0.5344  0.2884
 5269TIP3   OH237365   0.285   4.479   6.932 -0.5261 -0.0926  0.1301
 5269TIP3    H137366   0.213   4.542   6.931 -0.0312  0.5616  2.1537
 5269TIP3    H237367   0.279   4.437   7.017  0.4833 -1.2464 -0.3369
 5270TIP3   OH237368   1.260   0.680   7.335  0.0826 -0.5316  0.2610
 5270TIP3    H137369   1.341   0.650   7.295 -0.5697 -0.6323 -1.0494
 5270TIP3    H237370   1.228   0.605   7.385  0.4203 -0.7328  0.1755
 5271TIP3   OH237371   4.277   5.224   1.156  0.0647 -0.1780  0.2166
 5271TIP3    H137372   4.356   5.243   1.207 -0.3266 -0.3707  0.8966
 5271TIP3    H237373   4.262   5.131   1.167 -0.0037 -0.2304 -0.2877
 5272TIP3   OH237374   4.232   0.118   8.471 -0.0388  0.2376  0.4169
 5272TIP3    H137375   4.254   0.122   8.378 -1.9009  0.0101 -0.0839
 5272TIP3    H237376   4.316   0.116   8.516  0.9217 -0.6292 -1.3119
 5273TIP3   OH237377   2.939   3.946   0.691  0.3334  0.3395  0.3050
 5273TIP3    H137378   2.877   4.008   0.653  0.3270 -0.3246 -0.7895
 5273TIP3    H237379   2.989   3.913   0.617  0.3148 -1.0055  0.8669
 5274TIP3   OH237380   1.542   2.634   7.678 -0.3335  0.4480 -0.2827
 5274TIP3    H137381   1.623   2.669   7.641 -0.1951 -0.5700 -0.9785
 5274TIP3    H237382   1.543   2.541   7.656 -1.2090  0.2072  0.5829
 5275TIP3   OH237383   2.551   5.656   1.162  0.2131 -0.0746  0.1426
 5275TIP3    H137384   2.501   5.612   1.094  1.4489 -1.9532  0.3724
 5275TIP3    H237385   2.633   5.681   1.120  0.1487  0.6422  0.4231
 5276TIP3   OH237386   1.783   0.774   1.193  0.0902  0.2923 -0.0434
 5276TIP3    H137387   1.748   0.692   1.160  0.0525 -0.2562  1.2748
 5276TIP3    H237388   1.735   0.842   1.146 -0.4249 -0.4460 -0.5930
 5277TIP3   OH237389   5.265   4.651   8.146  0.0372  0.3108 -0.4296
 5277TIP3    H137390   5.199   4.587   8.176 -0.3754  0.5790 -0.7553
 5277TIP3    H237391   5.346   4.623   8.189 -0.0324 -0.7151 -0.9415
 5278TIP3   OH237392   1.223   0.936   0.262  0.0896  0.4164 -0.1082
 5278TIP3    H137393   1.227   0.855   0.212  0.4294 -0.6878  1.6315
 5278TIP3    H237394   1.146   0.926   0.318  1.6543  0.0625  2.0892
 5279TIP3   OH237395   0.337   4.439   7.546 -0.4791 -0.1893  0.8313
 5279TIP3    H137396   0.406   4.471   7.487 -0.2910 -1.0994  0.5323
 5279TIP3    H237397   0.379   4.436   7.632 -0.5460  0.4909  0.8938
 5280TIP3   OH237398   5.116   3.908   0.292  0.0471 -0.0590  0.4887
 5280TIP3    H137399   5.181   3.847   0.257 -0.8067 -0.3841 -0.5574
 5280TIP3    H237400   5.037   3.891   0.242 -0.1894  1.9875  0.0842
 5281TIP3   OH237401   3.949   1.853   1.488 -0.5089 -0.3061  0.5635
 5281TIP3    H137402   3.923   1.767   1.456 -0.3403 -0.2081  0.1532
 5281TIP3    H237403   3.932   1.912   1.414 -1.3261  0.1370  1.0862
 5282TIP3   OH237404   2.570   3.965   1.716 -0.0410 -0.2931 -0.6221
 5282TIP3    H137405   2.507   3.998   1.779  0.3680 -0.1108 -0.3016
 5282TIP3    H237406   2.518   3.915   1.653 -0.5671  0.3158 -0.6772
 5283TIP3   OH237407   6.532   4.094   0.190 -0.5019 -0.0410  0.2576
 5283TIP3    H137408   6.561   4.183   0.208  0.1979 -0.3079  0.4949
 5283TIP3    H237409   6.585   4.066   0.115 -1.1751 -0.0378 -0.2306
 5284TIP3   OH237410   5.585   1.841   1.779  0.1201  0.0798 -0.1384
 5284TIP3    H137411   5.543   1.775   1.834  0.4643  0.8434  1.0945
 5284TIP3    H237412   5.558   1.925   1.818  2.1201  0.6008  0.2520
 5285TIP3   OH237413   0.427   4.737   7.921 -0.0230 -0.2810  1.2247
 5285TIP3    H137414   0.347   4.778   7.952  0.9699  0.7725  2.5198
 5285TIP3    H237415   0.485   4.735   7.997  1.6954  0.3148  0.0096
 5286TIP3   OH237416   5.726   4.535   7.785 -0.0750  0.3301  0.5083
 5286TIP3    H137417   5.772   4.618   7.801  1.5445 -0.0105 -1.8272
 5286TIP3    H237418   5.728   4.526   7.689 -2.7495 -1.0439  0.4983
 5287TIP3   OH237419   0.940   3.223   6.860  0.0916  0.0774  0.3738
 5287TIP3    H137420   0.879   3.160   6.897  0.0357 -0.3433 -0.4285
 5287TIP3    H237421   0.940   3.295   6.923 -0.8915 -0.1103  0.6086
 5288TIP3   OH237422   2.156   5.914   1.497 -0.1677 -0.8946  0.5431
 5288TIP3    H137423   2.214   5.979   1.536 -1.2280 -1.8890  4.2296
 5288TIP3    H237424   2.208   5.833   1.495  0.5799 -0.4643 -2.4163
 5289TIP3   OH237425   2.802   6.506   2.113 -0.2440  0.5026  0.1036
 5289TIP3    H137426   2.742   6.456   2.168  0.1046  0.5469  0.5347
 5289TIP3    H237427   2.747   6.572   2.071 -0.7122 -0.2628 -0.5030
 5290TIP3   OH237428   2.429   5.703   0.818 -0.0294  0.5927  0.6032
 5290TIP3    H137429   2.414   5.715   0.724 -0.5365  0.9151  0.7218
 5290TIP3    H237430   2.493   5.632   0.823 -1.6962 -1.0263  0.0809
 5291TIP3   OH237431   5.321   4.920   0.051 -0.0477 -0.5751  0.3137
 5291TIP3    H137432   5.250   4.983   0.041  1.8068  1.7639  0.9827
 5291TIP3    H237433   5.365   4.945   0.132  1.4905 -2.0023 -0.0141
 5292TIP3   OH237434   5.068   1.862   1.617  0.3525  0.0443  0.3911
 5292TIP3    H137435   5.116   1.779   1.618 -0.4318 -0.5865 -2.4295
 5292TIP3    H237436   5.128   1.924   1.576 -0.0594  0.0838 -0.1711
 5293TIP3   OH237437   1.410   3.753   1.298 -0.2897 -0.3092 -0.0790
 5293TIP3    H137438   1.413   3.848   1.310 -1.8549 -0.2061 -0.2902
 5293TIP3    H237439   1.369   3.720   1.378 -1.3684 -0.6144 -0.7362
 5294TIP3   OH237440   2.662   1.256   7.936 -0.4500  0.7682  0.1654
 5294TIP3    H137441   2.724   1.322   7.905 -1.5935  2.4493  1.2879
 5294TIP3    H237442   2.579   1.280   7.895 -1.0478  0.5116  1.1876
 5295TIP3   OH237443   2.456   2.491   0.164 -0.2958  0.2504  0.0418
 5295TIP3    H137444   2.421   2.453   0.245  0.5331  0.9628  0.7516
 5295TIP3    H237445   2.397   2.458   0.096  0.4655 -2.4757  0.5556
 5296TIP3   OH237446   2.113   2.645   1.109  0.2124 -0.4362  0.3022
 5296TIP3    H137447   2.054   2.648   1.185  0.7043  1.5349  0.6667
 5296TIP3    H237448   2.173   2.718   1.123  0.8122 -0.5168 -1.6073
 5297TIP3   OH237449   4.857   6.505   6.856  0.5822 -0.0531 -0.5332
 5297TIP3    H137450   4.847   6.464   6.770 -1.5540 -1.2059  0.1911
 5297TIP3    H237451   4.820   6.593   6.844 -0.7885 -0.6109 -0.5432
 5298TIP3   OH237452   4.609   0.699   2.249  0.3990  0.2203  0.5731
 5298TIP3    H137453   4.670   0.663   2.185 -3.2766 -1.0909 -2.5599
 5298TIP3    H237454   4.555   0.624   2.275 -0.1679  1.3650  2.9837
 5299TIP3   OH237455   5.777   4.666   1.087  0.2843 -0.2789 -0.1800
 5299TIP3    H137456   5.714   4.676   1.016  2.4098  1.1009 -2.0109
 5299TIP3    H237457   5.824   4.586   1.066  2.7693  1.5187 -2.0434
 5300TIP3   OH237458   0.191   1.312   0.828 -0.3796 -0.9074 -0.4254
 5300TIP3    H137459   0.277   1.333   0.792 -1.2412  0.5943 -1.7092
 5300TIP3    H237460   0.134   1.383   0.799 -1.8229 -1.2308  1.3827
 5301TIP3   OH237461   0.335   1.300   2.243  0.1719 -0.0404  0.3856
 5301TIP3    H137462   0.249   1.288   2.203  0.3950 -2.1858  0.4165
 5301TIP3    H237463   0.379   1.215   2.233  2.0405  0.7875  0.9684
 5302TIP3   OH237464   0.314   3.102   6.512  0.0048 -0.2598  0.4555
 5302TIP3    H137465   0.291   3.073   6.424 -0.7927 -1.0675  0.9138
 5302TIP3    H237466   0.285   3.193   6.516  0.9935  0.1161 -0.4443
 5303TIP3   OH237467   6.204   0.322   0.196  0.1238  0.2737  0.5206
 5303TIP3    H137468   6.165   0.248   0.242  1.5094 -0.6952  0.2151
 5303TIP3    H237469   6.229   0.384   0.265  2.3100 -1.2197  1.1746
 5304TIP3   OH237470   4.706   5.578   1.033  0.2053 -0.6030 -0.4735
 5304TIP3    H137471   4.761   5.648   1.000 -1.1848  0.8363  0.1161
 5304TIP3    H237472   4.759   5.535   1.101 -0.3308  2.6807  2.2954
 5305TIP3   OH237473   6.522   5.873   0.576  0.1890  0.2030  0.3572
 5305TIP3    H137474   6.547   5.894   0.666 -0.3422  0.0429  0.5463
 5305TIP3    H237475   6.501   5.780   0.578  2.9907 -0.5342 -0.5822
 5306TIP3   OH237476   1.698   4.490   7.264  0.0334 -0.3597 -0.6901
 5306TIP3    H137477   1.793   4.479   7.269  0.0286 -0.8844 -1.5169
 5306TIP3    H237478   1.684   4.545   7.187 -0.3435 -0.5082 -0.7304
 5307TIP3   OH237479   2.375   3.986   1.967  0.5035 -0.7018  0.1103
 5307TIP3    H137480   2.335   3.909   2.006 -0.8570 -1.5188 -2.6036
 5307TIP3    H237481   2.469   3.971   1.975  0.2618 -2.3793  0.1399
 5308TIP3   OH237482   2.115   5.487   6.766 -0.3233  0.5388 -0.1052
 5308TIP3    H137483   2.139   5.559   6.708  0.4014  0.6174  0.2834
 5308TIP3    H237484   2.164   5.503   6.847  2.2583 -1.9549 -1.0109
 5309TIP3   OH237485   1.375   5.174   8.556 -0.0813  0.0095  0.0853
 5309TIP3    H137486   1.469   5.184   8.571 -0.0243  0.5233 -0.5855
 5309TIP3    H237487   1.334   5.229   8.622  0.1251  0.8808 -0.5006
 5310TIP3   OH237488   0.476   0.481   6.898 -0.4161 -0.2714 -0.6407
 5310TIP3    H137489   0.389   0.520   6.904  0.6582  2.3288 -0.5286
 5310TIP3    H237490   0.518   0.528   6.826  0.8636 -1.5761 -0.7961
 5311TIP3   OH237491   4.443   4.124   0.167 -0.2862 -0.4938  0.0518
 5311TIP3    H137492   4.371   4.138   0.106 -0.3605  0.5947  0.3656
 5311TIP3    H237493   4.466   4.032   0.156 -1.3617 -0.7228 -0.4434
 5312TIP3   OH237494   3.340   0.314   7.919 -0.5094 -0.2384  0.7178
 5312TIP3    H137495   3.327   0.278   8.007  0.7714  0.3000  1.1527
 5312TIP3    H237496   3.431   0.293   7.898 -0.3759  0.8716  0.1044
 5313TIP3   OH237497   3.103   6.362   8.103 -0.3688 -0.3020 -0.7336
 5313TIP3    H137498   3.081   6.305   8.177  0.6126 -1.3700 -1.2278
 5313TIP3    H237499   3.043   6.436   8.111 -1.5255 -1.2861  0.0758
 5314TIP3   OH237500   6.064   3.385   2.080 -0.6509  0.3333  0.1190
 5314TIP3    H137501   5.983   3.335   2.074 -0.5200 -0.1584  1.8456
 5314TIP3    H237502   6.037   3.476   2.066 -1.1453 -0.0183 -1.4032
 5315TIP3   OH237503   1.726   5.858   0.582 -0.5369  0.3555  0.2189
 5315TIP3    H137504   1.745   5.801   0.656  0.9228  1.3290  0.6299
 5315TIP3    H237505   1.640   5.896   0.603 -0.9155 -0.6551  0.5631
 5316TIP3   OH237506   1.593   3.359   2.549  0.4299 -0.1502 -0.3154
 5316TIP3    H137507   1.514   3.404   2.580 -0.0717 -0.7694 -0.6699
 5316TIP3    H237508   1.639   3.425   2.497 -1.1083 -0.4568 -2.1963
 5317TIP3   OH237509   4.588   1.779   8.801  0.5303 -0.9651  0.7343
 5317TIP3    H137510   4.601   1.825   8.884 -0.1116  1.2850 -0.3197
 5317TIP3    H237511   4.649   1.821   8.741 -0.9812 -0.5499 -0.5926
 5318TIP3   OH237512   2.007   0.980   1.029  0.1233 -0.0560  0.3447
 5318TIP3    H137513   2.065   0.972   0.953 -0.0586 -0.9660  0.2836
 5318TIP3    H237514   2.044   0.919   1.093 -0.2008  0.0905  0.6718
 5319TIP3   OH237515   5.676   3.948   8.444 -0.2398 -0.8670 -0.3749
 5319TIP3    H137516   5.650   4.031   8.402 -1.7913 -1.6206 -0.9895
 5319TIP3    H237517   5.761   3.967   8.483 -0.3049  0.8649 -0.9655
 5320TIP3   OH237518   5.059   0.768   1.677 -0.2326  0.2503  0.0014
 5320TIP3    H137519   5.071   0.683   1.636 -1.3043  0.5065 -0.9120
 5320TIP3    H237520   5.031   0.825   1.605 -1.6211  0.8554  0.9706
 5321TIP3   OH237521   1.505   0.627   7.223 -0.0691  0.1852 -0.6133
 5321TIP3    H137522   1.536   0.549   7.268  3.0608  1.3271 -0.5357
 5321TIP3    H237523   1.563   0.636   7.147 -1.6653  1.3380 -1.7779
 5322TIP3   OH237524   3.579   4.399   0.567 -0.3010 -0.1002 -0.0019
 5322TIP3    H137525   3.504   4.394   0.625 -0.3611 -2.2649 -0.1957
 5322TIP3    H237526   3.546   4.373   0.481  0.3904  0.2938 -0.4069
 5323TIP3   OH237527   5.278   5.675   6.501  0.4892  0.2372  0.0588
 5323TIP3    H137528   5.240   5.646   6.419  0.3585  0.8828 -0.1134
 5323TIP3    H237529   5.319   5.596   6.538 -0.6240 -0.3584  0.0429
 5324TIP3   OH237530   1.959   1.525   7.399 -0.2313  0.3265 -0.2927
 5324TIP3    H137531   2.013   1.516   7.321 -0.3796  1.3179 -0.5318
 5324TIP3    H237532   1.972   1.616   7.427 -0.9044  0.2569  0.2941
 5325TIP3   OH237533   1.407   5.654   7.227 -0.1837 -0.3963  0.2462
 5325TIP3    H137534   1.359   5.737   7.227  1.1876  0.5449 -2.7016
 5325TIP3    H237535   1.435   5.642   7.136  1.1390 -3.2589  0.9009
 5326TIP3   OH237536   3.074   3.852   6.429 -0.3584  0.6392  0.0900
 5326TIP3    H137537   3.155   3.894   6.456  0.2374  0.6689 -1.6133
 5326TIP3    H237538   3.092   3.758   6.431 -0.1622  0.6555 -0.5812
 5327TIP3   OH237539   3.798   3.409   1.089 -0.2764  0.1758  0.2227
 5327TIP3    H137540   3.880   3.362   1.103 -0.5459  0.0957  1.6292
 5327TIP3    H237541   3.800   3.480   1.153 -1.1619  0.3648  0.0524
 5328TIP3   OH237542   4.483   4.285   1.086  0.4513 -0.9746 -0.8469
 5328TIP3    H137543   4.407   4.229   1.100 -0.7193  0.4587 -1.1725
 5328TIP3    H237544   4.450   4.357   1.032  1.5009  0.7902  0.7386
 5329TIP3   OH237545   2.241   0.647   0.224  0.1375 -0.2346 -0.2824
 5329TIP3    H137546   2.157   0.638   0.179  0.4240  1.5152 -1.2643
 5329TIP3    H237547   2.294   0.574   0.193 -0.9086 -1.1943  0.1317
 5330TIP3   OH237548   3.153   2.332   8.819 -0.3011 -1.0484  0.3045
 5330TIP3    H137549   3.063   2.314   8.844 -0.9171  2.5923  1.1871
 5330TIP3    H237550   3.206   2.298   8.891 -1.2965  0.2219  1.6702
 5331TIP3   OH237551   0.456   1.877   1.775  0.0767 -0.0901 -0.2750
 5331TIP3    H137552   0.516   1.871   1.849 -0.8036 -0.4159  0.4411
 5331TIP3    H237553   0.392   1.944   1.801 -1.8282 -2.0709  0.5060
 5332TIP3   OH237554   0.499   5.066   8.568 -0.1498  0.2853  0.2949
 5332TIP3    H137555   0.546   5.136   8.613 -0.6474  0.5105  0.4798
 5332TIP3    H237556   0.408   5.095   8.568 -0.0643  0.7145 -1.6447
 5333TIP3   OH237557   3.051   1.828   1.408 -0.5319  0.1860  0.3624
 5333TIP3    H137558   3.110   1.866   1.344  1.2745 -0.0388  1.8147
 5333TIP3    H237559   3.059   1.733   1.395 -1.6253  0.1680 -0.3059
 5334TIP3   OH237560   1.927   6.095   0.656 -0.1952 -0.0576 -0.0518
 5334TIP3    H137561   2.005   6.097   0.711  0.3969  0.8075 -0.8967
 5334TIP3    H237562   1.960   6.094   0.566 -1.1517 -0.2420 -0.4132
 5335TIP3   OH237563   1.397   4.721   1.001 -0.4156 -0.0342 -0.6873
 5335TIP3    H137564   1.324   4.664   1.026  0.1908 -0.2189  0.8103
 5335TIP3    H237565   1.475   4.673   1.030  0.3124  0.1523 -2.2772
 5336TIP3   OH237566   1.146   3.083   8.298 -0.1541 -0.0157 -0.2226
 5336TIP3    H137567   1.112   3.150   8.239 -0.7322 -0.8790 -0.8891
 5336TIP3    H237568   1.241   3.099   8.299 -0.4803  2.6121  1.9069
 5337TIP3   OH237569   1.990   0.394   0.161  0.9834 -0.0999  0.5328
 5337TIP3    H137570   1.942   0.343   0.096  0.6610 -0.5829  1.1417
 5337TIP3    H237571   2.079   0.361   0.155  1.1138  0.3451 -0.1451
 5338TIP3   OH237572   5.705   3.694   0.407 -0.2751  0.4240  0.0279
 5338TIP3    H137573   5.649   3.719   0.480 -1.1080 -0.8258 -0.1559
 5338TIP3    H237574   5.674   3.747   0.333 -1.6337 -0.6723 -0.2194
 5339TIP3   OH237575   0.520   5.465   8.477 -0.1414 -0.2465 -0.0154
 5339TIP3    H137576   0.570   5.402   8.426 -0.6734 -1.0597  0.4554
 5339TIP3    H237577   0.462   5.507   8.413  0.2563 -0.1790 -0.3389
 5340TIP3   OH237578   2.608   4.522   2.376 -0.4111  0.9985 -0.2811
 5340TIP3    H137579   2.552   4.451   2.345 -0.2933  1.3872 -1.4552
 5340TIP3    H237580   2.577   4.599   2.329 -1.3626  2.0226  1.9131
 5341TIP3   OH237581   0.019   3.175   8.681  0.1001  0.4198  0.2917
 5341TIP3    H137582   0.073   3.144   8.609 -1.7119 -1.3756 -0.4153
 5341TIP3    H237583   0.034   3.270   8.684  1.4622  0.3038 -1.3627
 5342TIP3   OH237584   3.952   3.209   7.850  0.2867  0.4106  0.2317
 5342TIP3    H137585   3.910   3.275   7.905 -1.2315 -0.0662 -0.3276
 5342TIP3    H237586   3.950   3.129   7.902  2.0268  0.7283  0.8644
 5343TIP3   OH237587   3.873   4.821   6.705  0.3289  0.0142 -0.0875
 5343TIP3    H137588   3.942   4.817   6.638  1.1707 -0.1421  0.7592
 5343TIP3    H237589   3.810   4.885   6.672  0.6973 -0.1092 -1.0545
 5344TIP3   OH237590   3.739   5.369   8.332 -0.3172 -0.0383 -0.1558
 5344TIP3    H137591   3.791   5.390   8.254 -0.0139  2.0822  0.5272
 5344TIP3    H237592   3.652   5.402   8.312  0.1380  2.0027  0.9110
 5345TIP3   OH237593   0.705   3.074   8.404 -0.2633 -0.3569 -0.6157
 5345TIP3    H137594   0.764   3.101   8.474 -0.4719  0.6013 -0.8030
 5345TIP3    H237595   0.754   3.090   8.324 -0.4735 -0.3316 -0.7393
 5346TIP3   OH237596   3.946   4.309   7.344 -0.2844 -0.3110  0.5217
 5346TIP3    H137597   4.008   4.262   7.288  0.1053  0.4509  0.2956
 5346TIP3    H237598   3.870   4.252   7.349  0.6624 -1.5390  1.3149
 5347TIP3   OH237599   3.341   6.391   0.462 -0.4359 -0.3404  0.4030
 5347TIP3    H137600   3.266   6.451   0.460  0.4798  0.8246 -0.5961
 5347TIP3    H237601   3.335   6.343   0.379 -0.5274 -0.8178  0.6860
 5348TIP3   OH237602   5.001   0.505   8.009  0.0896 -0.6010  0.6402
 5348TIP3    H137603   4.969   0.419   8.036 -1.0401 -0.6391 -0.7123
 5348TIP3    H237604   4.952   0.525   7.929 -0.6198  1.8521  1.5986
 5349TIP3   OH237605   1.878   4.207   0.766 -0.2327 -0.7289  0.2777
 5349TIP3    H137606   1.922   4.123   0.776 -1.4516 -1.3555  0.5803
 5349TIP3    H237607   1.860   4.213   0.672  0.5520 -0.4275  0.1387
 5350TIP3   OH237608   0.005   5.206   0.274  0.1913  0.3761 -0.0382
 5350TIP3    H137609   0.055   5.153   0.336  0.9161  3.0054  1.7865
 5350TIP3    H237610   0.067   5.227   0.204  0.3429  0.0908  0.0110
 5351TIP3   OH237611   3.741   1.523   0.148 -0.1058 -0.6043 -0.0434
 5351TIP3    H137612   3.767   1.566   0.230  0.8198 -0.7052 -0.2759
 5351TIP3    H237613   3.707   1.438   0.176 -0.1199 -0.4999  0.2642
 5352TIP3   OH237614   2.782   3.723   0.802 -0.1077 -0.5005  0.1398
 5352TIP3    H137615   2.855   3.784   0.789 -1.0874  0.7683  0.4163
 5352TIP3    H237616   2.754   3.739   0.892 -1.4936 -0.1030 -0.3467
 5353TIP3   OH237617   4.002   1.992   1.910 -0.1961  0.4346 -0.3977
 5353TIP3    H137618   3.929   2.015   1.852 -1.4505 -0.0712  0.9213
 5353TIP3    H237619   3.963   1.934   1.975  1.1547  1.0414  0.9962
 5354TIP3   OH237620   3.420   3.969   7.937  0.2856 -0.4578 -0.3136
 5354TIP3    H137621   3.454   3.937   8.021  0.4731 -1.1757 -0.6566
 5354TIP3    H237622   3.410   4.063   7.950 -0.9952 -0.7371  0.9710
 5355TIP3   OH237623   6.439   3.238   0.713 -0.2188  0.4911 -0.0063
 5355TIP3    H137624   6.391   3.291   0.649 -0.3789  0.4395  0.0725
 5355TIP3    H237625   6.506   3.194   0.661 -0.6679  0.0582 -0.2223
 5356TIP3   OH237626   2.725   2.112   7.058  0.5675  0.1208  0.4852
 5356TIP3    H137627   2.804   2.064   7.035 -0.4227 -1.3657 -0.0042
 5356TIP3    H237628   2.744   2.152   7.142  1.5541 -0.8962  0.7655
 5357TIP3   OH237629   2.055   0.555   0.596 -0.0207  0.8027 -0.0946
 5357TIP3    H137630   2.061   0.488   0.528  1.2870 -1.4073  2.0244
 5357TIP3    H237631   2.007   0.513   0.667  2.4218  1.3499  2.0192
 5358TIP3   OH237632   0.250   6.242   0.896  0.2934  0.3713  0.2428
 5358TIP3    H137633   0.179   6.234   0.959 -1.4105  1.1278 -1.4755
 5358TIP3    H237634   0.297   6.159   0.902 -0.9035 -0.2646  1.2421
 5359TIP3   OH237635   6.027   4.364   6.175  0.0471 -0.1161 -0.7863
 5359TIP3    H137636   5.940   4.325   6.176 -0.4854  1.0333  0.5622
 5359TIP3    H237637   6.087   4.289   6.172 -0.9370 -1.0527  1.1935
 5360TIP3   OH237638   4.893   1.405   6.034 -1.0606 -0.4745  0.7586
 5360TIP3    H137639   4.829   1.407   5.963 -1.7634  0.0279  1.3826
 5360TIP3    H237640   4.857   1.464   6.101 -1.3790 -2.3340  2.3324
 5361TIP3   OH237641   1.664   5.421   0.049  0.2154  0.7419 -0.1401
 5361TIP3    H137642   1.655   5.471  -0.033  0.4937 -0.4926 -0.9430
 5361TIP3    H237643   1.754   5.390   0.048 -0.1436 -0.3457 -0.0011
 5362TIP3   OH237644   3.819   3.112   8.089  0.2840 -0.2011  0.2052
 5362TIP3    H137645   3.841   3.021   8.105 -1.9430 -0.7886  0.2181
 5362TIP3    H237646   3.740   3.128   8.140  0.6635  1.7701  0.2647
 5363TIP3   OH237647   4.406   6.373   7.232 -0.1065  0.5864 -0.0243
 5363TIP3    H137648   4.467   6.351   7.302 -3.9505  0.3775  3.6701
 5363TIP3    H237649   4.423   6.307   7.164  2.2991 -0.6958  1.6648
 5364TIP3   OH237650   2.486   5.369   7.463  0.1131 -0.2451 -0.3357
 5364TIP3    H137651   2.444   5.454   7.471  0.1509 -0.4099  2.3765
 5364TIP3    H237652   2.441   5.313   7.526  1.6255 -1.5828 -0.3694
 5365TIP3   OH237653   0.458   3.354   0.428  0.3246 -0.0375 -0.3424
 5365TIP3    H137654   0.490   3.275   0.471 -0.5176  0.3238  1.0082
 5365TIP3    H237655   0.537   3.407   0.414  0.5999  0.0207  1.1894
 5366TIP3   OH237656   1.905   1.002   6.093  0.5533  0.1315  0.1943
 5366TIP3    H137657   1.838   1.058   6.132 -0.2912  0.1035 -1.1332
 5366TIP3    H237658   1.858   0.923   6.067  1.3107 -0.3234  0.1717
 5367TIP3   OH237659   5.442   1.578   7.023 -0.0305  0.1295 -0.4306
 5367TIP3    H137660   5.459   1.484   7.032 -0.9853  0.0739  1.0743
 5367TIP3    H237661   5.509   1.609   6.961  2.3759 -0.9463  1.4744
 5368TIP3   OH237662   6.760   1.051   7.409 -0.1199 -0.7893  0.1578
 5368TIP3    H137663   6.783   1.009   7.326 -0.2873  0.1184 -0.3590
 5368TIP3    H237664   6.843   1.060   7.455  0.2374  0.2337 -0.6461
 5369TIP3   OH237665   1.828   3.942   1.290 -0.2795  0.0162  0.3179
 5369TIP3    H137666   1.917   3.964   1.265 -0.3081 -0.7303 -0.4911
 5369TIP3    H237667   1.773   3.992   1.230 -0.4310  0.9061  1.1751
 5370TIP3   OH237668   1.924   6.103   0.980 -0.3307  0.1138  0.3083
 5370TIP3    H137669   2.015   6.111   1.010  0.3958  0.9566 -1.8948
 5370TIP3    H237670   1.899   6.193   0.958 -1.6990 -0.1267  0.7903
 5371TIP3   OH237671   2.155   5.656   0.006 -0.0416 -0.8784  0.2272
 5371TIP3    H137672   2.233   5.641   0.060 -0.0667  0.7684  0.7738
 5371TIP3    H237673   2.162   5.747  -0.021 -1.8693 -0.6565  0.4165
 5372TIP3   OH237674   0.938   2.574   1.456 -0.0966 -0.2290  0.0972
 5372TIP3    H137675   0.882   2.597   1.382 -0.3229 -0.4536  0.1996
 5372TIP3    H237676   0.979   2.657   1.482 -0.1761 -0.1136 -0.1455
 5373TIP3   OH237677   3.159   1.290   0.433 -0.1521 -1.3595 -0.5403
 5373TIP3    H137678   3.074   1.284   0.388 -0.1176  0.7831 -1.0178
 5373TIP3    H237679   3.138   1.328   0.518  0.4935  2.0198 -1.7185
 5374TIP3   OH237680   6.606   4.361   0.226 -0.5246 -0.0955 -0.2167
 5374TIP3    H137681   6.538   4.428   0.226  1.6173  2.2865 -2.3434
 5374TIP3    H237682   6.659   4.379   0.304 -0.4785  0.0823 -0.2905
 5375TIP3   OH237683   3.419   3.287   6.809  0.1087 -0.2249 -0.4562
 5375TIP3    H137684   3.388   3.198   6.792 -0.1913 -0.4678  1.1685
 5375TIP3    H237685   3.503   3.292   6.763  0.6871 -1.7548  0.3423
 5376TIP3   OH237686   0.158   1.441   7.922  0.0383  0.1504  0.4808
 5376TIP3    H137687   0.102   1.504   7.968  0.4132  0.7268  0.1557
 5376TIP3    H237688   0.244   1.484   7.918  0.3133 -0.4163  0.3218
 5377TIP3   OH237689   4.676   2.543   0.360  0.2524 -0.3064 -0.2349
 5377TIP3    H137690   4.769   2.541   0.383  0.1456 -3.0739  0.2740
 5377TIP3    H237691   4.631   2.543   0.445 -0.1786 -0.8262 -0.4552
 5378TIP3   OH237692   2.112   1.850   8.111 -0.2267 -0.0347  0.0458
 5378TIP3    H137693   2.090   1.880   8.199 -0.0079  0.3515 -0.0293
 5378TIP3    H237694   2.106   1.755   8.116 -1.0975  0.0216  0.2450
 5379TIP3   OH237695   3.643   6.147   8.544 -0.3381 -0.1292  0.3696
 5379TIP3    H137696   3.738   6.145   8.558 -0.4964  0.8020  1.8523
 5379TIP3    H237697   3.631   6.213   8.476  0.1418 -1.1335 -0.7159
 5380TIP3   OH237698   1.970   2.648   0.532 -0.4124 -0.9673  0.2691
 5380TIP3    H137699   1.998   2.738   0.545 -2.2433  0.1995 -2.8434
 5380TIP3    H237700   1.896   2.637   0.592 -1.0047  0.0527 -0.2644
 5381TIP3   OH237701   6.198   1.640   2.150 -0.1992  0.1513 -0.2511
 5381TIP3    H137702   6.163   1.728   2.132  0.0303  0.2593 -0.1842
 5381TIP3    H237703   6.161   1.616   2.234  0.2788  0.4774  0.0597
 5382TIP3   OH237704   5.490   2.535   1.080  0.3661  0.5747  0.4915
 5382TIP3    H137705   5.470   2.587   1.158  0.9030  1.1580  0.2514
 5382TIP3    H237706   5.422   2.468   1.078 -0.9045  1.8054  0.3304
 5383TIP3   OH237707   1.814   0.728   1.465  0.2783  0.0642  0.1429
 5383TIP3    H137708   1.826   0.727   1.370 -0.1045 -1.5009  0.0776
 5383TIP3    H237709   1.719   0.729   1.477  0.3206  0.0075  0.5082
 5384TIP3   OH237710   0.332   0.794   1.132  0.6009 -0.1174 -0.2113
 5384TIP3    H137711   0.382   0.871   1.161  0.0707  0.4547 -0.7688
 5384TIP3    H237712   0.241   0.817   1.150  0.2341  0.2793 -2.2783
 5385TIP3   OH237713   0.781   3.407   1.620  0.2956 -0.1088  0.1534
 5385TIP3    H137714   0.737   3.326   1.646  1.0769 -0.3240  0.8857
 5385TIP3    H237715   0.721   3.449   1.559 -2.1429  0.9278  3.0473
 5386TIP3   OH237716   6.254   1.060   8.148 -0.0026 -0.0182  0.0363
 5386TIP3    H137717   6.201   1.139   8.148  0.3411  0.2444 -1.3646
 5386TIP3    H237718   6.341   1.088   8.179 -0.6188 -0.4526  2.3523
 5387TIP3   OH237719   2.106   3.840   0.576 -0.3173 -1.3271 -0.0695
 5387TIP3    H137720   2.017   3.814   0.600 -1.8812  0.4509 -3.2998
 5387TIP3    H237721   2.118   3.926   0.616 -0.0668 -1.5112  0.2599
 5388TIP3   OH237722   5.006   1.055   0.021 -0.4761  0.5810 -0.0297
 5388TIP3    H137723   4.953   1.129   0.050 -0.1528  0.5707  0.6179
 5388TIP3    H237724   5.041   1.018   0.102  1.7188  1.4982 -0.4932
 5389TIP3   OH237725   4.510   1.798   1.336  1.2218  0.1924 -1.0034
 5389TIP3    H137726   4.537   1.829   1.250  0.5917  0.2073 -1.1995
 5389TIP3    H237727   4.486   1.707   1.322 -0.8062  0.7335 -1.2751
 5390TIP3   OH237728   4.563   6.750   8.653 -0.4254 -0.4449  0.6185
 5390TIP3    H137729   4.545   6.844   8.659 -0.8887 -0.4407 -0.6155
 5390TIP3    H237730   4.517   6.713   8.729 -1.8316  0.1209  0.0844
 5391TIP3   OH237731   5.669   3.052   0.575 -0.5294  0.3721 -0.1419
 5391TIP3    H137732   5.638   2.971   0.616  0.1713  0.3353  0.3183
 5391TIP3    H237733   5.709   3.023   0.493 -1.4017  0.3866 -0.5816
 5392TIP3   OH237734   2.571   4.737   2.194 -0.1743  0.2454 -0.7051
 5392TIP3    H137735   2.483   4.708   2.219 -0.2118  0.8220 -0.1293
 5392TIP3    H237736   2.560   4.775   2.106 -0.5212  0.3900 -0.6018
 5393TIP3   OH237737   3.649   1.560   6.936 -0.0528 -0.0730  0.1367
 5393TIP3    H137738   3.568   1.561   6.988 -0.2803  0.2989 -0.2112
 5393TIP3    H237739   3.624   1.600   6.852  0.1969 -1.0670 -0.4317
 5394TIP3   OH237740   1.953   3.214   0.347  0.3163  0.1113 -0.5938
 5394TIP3    H137741   1.861   3.230   0.368  0.4253  1.3424 -1.0020
 5394TIP3    H237742   1.952   3.135   0.293 -0.2659 -1.2671  1.3226
 5395TIP3   OH237743   2.478   5.665   8.104  0.2692  0.0503 -0.5110
 5395TIP3    H137744   2.477   5.666   8.009 -1.7329 -0.1145 -0.5301
 5395TIP3    H237745   2.434   5.746   8.129 -2.6172 -1.5978  0.1768
 5396TIP3   OH237746   4.949   1.973   7.478  0.3228  0.4349  0.8491
 5396TIP3    H137747   4.872   1.925   7.448  1.3485  0.5173 -2.1691
 5396TIP3    H237748   5.023   1.913   7.462  1.3442  2.0000 -0.6081
 5397TIP3   OH237749   6.564   2.933   6.477  0.4200 -0.1937 -0.3673
 5397TIP3    H137750   6.518   3.005   6.520  1.0885  0.5757 -0.9223
 5397TIP3    H237751   6.631   2.975   6.423  0.6219 -1.2118 -0.9464
 5398TIP3   OH237752   1.687   4.055   7.021 -0.1436  0.4943  0.1176
 5398TIP3    H137753   1.594   4.079   7.022  0.2787  2.3454 -0.8995
 5398TIP3    H237754   1.714   4.070   6.930  0.6238 -2.3667 -0.2311
 5399TIP3   OH237755   4.511   0.761   7.028 -0.7271 -0.1386  0.4593
 5399TIP3    H137756   4.516   0.780   7.122  0.8868 -0.3070  0.4464
 5399TIP3    H237757   4.495   0.667   7.023 -0.4391 -0.1968  0.5799
 5400TIP3   OH237758   5.711   4.284   7.244 -0.1850 -0.0400 -0.4284
 5400TIP3    H137759   5.757   4.351   7.194 -1.3525  0.4159 -0.9190
 5400TIP3    H237760   5.781   4.227   7.278  0.6853  0.0786 -1.9233
 5401TIP3   OH237761   1.002   0.926   0.942 -0.2699 -0.3419  0.3579
 5401TIP3    H137762   0.926   0.890   0.988  0.5830 -1.8425  0.6885
 5401TIP3    H237763   0.970   0.945   0.854 -0.9901 -1.1858  0.4162
 5402TIP3   OH237764   4.830   5.171   0.308  0.0871 -0.3752 -0.1448
 5402TIP3    H137765   4.886   5.241   0.275 -0.6195  0.6609  0.7782
 5402TIP3    H237766   4.886   5.123   0.369 -0.0852  0.9427  1.1393
 5403TIP3   OH237767   4.299   0.681   7.784  0.0078  0.0087 -0.2506
 5403TIP3    H137768   4.216   0.713   7.749  0.5714 -0.4819 -2.1933
 5403TIP3    H237769   4.326   0.612   7.722  1.6779 -0.0960  0.5256
 5404TIP3   OH237770   4.562   3.114   0.057  0.3944  0.0970 -0.3084
 5404TIP3    H137771   4.647   3.124   0.015  0.2520  0.6669 -0.4617
 5404TIP3    H237772   4.501   3.097  -0.015  0.1656  0.9889 -0.3365
 5405TIP3   OH237773   0.542   4.048   8.472 -0.0220 -0.2374  0.1581
 5405TIP3    H137774   0.609   4.011   8.415  0.0228  1.6656 -1.0771
 5405TIP3    H237775   0.591   4.102   8.535 -0.2309 -0.7886  0.8097
 5406TIP3   OH237776   3.807   4.407   8.687 -0.1589  0.1038  0.1295
 5406TIP3    H137777   3.839   4.327   8.646 -0.0521  0.1442  0.1337
 5406TIP3    H237778   3.720   4.421   8.649  0.6139  1.0743 -1.3844
 5407TIP3   OH237779   4.799   5.776   0.249  0.1142 -0.2219 -0.3064
 5407TIP3    H137780   4.743   5.813   0.318 -0.6262  0.3480 -1.1926
 5407TIP3    H237781   4.857   5.715   0.295  1.2290  1.8577  1.1927
 5408TIP3   OH237782   0.790   1.995   8.481 -0.3600 -0.3510 -0.5142
 5408TIP3    H137783   0.862   2.058   8.481 -1.3941  0.9112  1.2009
 5408TIP3    H237784   0.819   1.926   8.540  0.1267 -0.7392 -1.1843
 5409TIP3   OH237785   0.666   1.550   8.201 -0.6055  0.0178  0.7033
 5409TIP3    H137786   0.703   1.483   8.258 -1.6557 -0.1682  1.2039
 5409TIP3    H237787   0.717   1.629   8.221 -0.6592 -0.1559  1.5837
 5410TIP3   OH237788   6.323   0.202   7.289  0.0965 -0.3448 -0.1002
 5410TIP3    H137789   6.398   0.244   7.246  0.2687  0.0922  0.6118
 5410TIP3    H237790   6.357   0.173   7.374  0.2051 -2.6514 -0.8471
 5411TIP3   OH237791   1.719   1.669   1.229 -0.2463  0.2765  0.2554
 5411TIP3    H137792   1.796   1.709   1.268 -0.2413 -0.5750  1.1513
 5411TIP3    H237793   1.752   1.588   1.189 -0.8327 -0.7117  1.6809
 5412TIP3   OH237794   2.852   3.274   0.444 -0.2316  0.3869  0.1251
 5412TIP3    H137795   2.860   3.320   0.528  0.4990  0.0467  0.2492
 5412TIP3    H237796   2.893   3.188   0.459 -3.8563 -1.4573  0.7200
 5413TIP3   OH237797   3.872   5.894   2.408  0.0667  0.0837  0.3805
 5413TIP3    H137798   3.850   5.835   2.336 -3.6587  0.9760  0.6068
 5413TIP3    H237799   3.906   5.972   2.364 -0.0390 -0.2195 -0.2628
 5414TIP3   OH237800   2.991   2.619   0.652 -0.4105  0.3786  0.9914
 5414TIP3    H137801   2.936   2.606   0.575  0.0661 -0.9799  0.8630
 5414TIP3    H237802   3.043   2.697   0.631  0.4816 -0.5707 -0.5383
 5415TIP3   OH237803   0.021   4.850   8.609 -0.1012  0.4355  0.1005
 5415TIP3    H137804  -0.017   4.907   8.675  1.2931 -1.2484  2.4878
 5415TIP3    H237805   0.019   4.762   8.648  1.0963 -0.5912 -1.9648
 5416TIP3   OH237806   3.274   3.582   8.523  0.0008  0.5467  0.2179
 5416TIP3    H137807   3.195   3.580   8.469 -0.1669  2.9696  0.2477
 5416TIP3    H237808   3.345   3.595   8.460  0.1135  0.5875  0.3534
 5417TIP3   OH237809   4.703   1.469   1.088  0.0273  0.6335 -0.2208
 5417TIP3    H137810   4.739   1.471   0.999  0.5348 -1.3764 -0.1036
 5417TIP3    H237811   4.609   1.472   1.076  0.0479 -0.8501 -0.9295
 5418TIP3   OH237812   4.219   6.080   0.854 -0.2018  0.2094  0.1302
 5418TIP3    H137813   4.147   6.110   0.799 -0.4594  0.3747  0.5503
 5418TIP3    H237814   4.181   6.011   0.908 -0.2302  0.7478  0.8228
 5419TIP3   OH237815   4.120   1.819   7.529  0.3154 -0.3407 -0.0393
 5419TIP3    H137816   4.033   1.824   7.568  0.3970  0.7303  0.0308
 5419TIP3    H237817   4.104   1.788   7.440 -0.2912  1.1515 -0.4745
 5420TIP3   OH237818   5.974   1.338   1.146  0.2827  0.2307  0.2588
 5420TIP3    H137819   5.914   1.369   1.077  0.3168 -0.9786 -0.3365
 5420TIP3    H237820   6.039   1.407   1.154 -1.9789  2.3578  2.0146
 5421TIP3   OH237821   2.624   2.845   8.131 -0.0571  0.0506  0.0621
 5421TIP3    H137822   2.544   2.796   8.112 -0.2691 -0.0984  1.2601
 5421TIP3    H237823   2.593   2.932   8.156  0.3056  0.7865 -1.8700
 5422TIP3   OH237824   1.655   5.032   6.982  0.1968  0.3592  0.0792
 5422TIP3    H137825   1.712   4.959   6.958 -0.1860 -0.4826  1.5864
 5422TIP3    H237826   1.715   5.103   7.006  0.5944  0.0112  0.1092
 5423TIP3   OH237827   3.912   4.216   0.916  0.1147 -0.3357 -0.8791
 5423TIP3    H137828   3.920   4.258   0.831 -1.5151  0.8418 -0.4945
 5423TIP3    H237829   3.956   4.275   0.977 -1.4231  0.4367 -0.4691
 5424TIP3   OH237830   0.436   6.587   7.393  0.3852  0.2267 -0.1878
 5424TIP3    H137831   0.482   6.671   7.392  0.9155 -0.0559  0.2138
 5424TIP3    H237832   0.485   6.532   7.332  0.3438  0.0504 -0.0645
 5425TIP3   OH237833   1.083   3.102   6.157  0.1469  0.3002  0.0101
 5425TIP3    H137834   1.114   3.186   6.191  0.2852  0.2900 -0.0863
 5425TIP3    H237835   1.139   3.086   6.081  0.5373 -0.1778  0.3897
 5426TIP3   OH237836   6.300   5.927   8.203  0.6010 -0.0222 -0.3308
 5426TIP3    H137837   6.331   5.886   8.122 -0.1485 -0.4064 -0.4329
 5426TIP3    H237838   6.205   5.913   8.202 -0.0812  3.5964 -1.4716
 5427TIP3   OH237839   4.962   2.628   6.939  0.1818 -0.5412 -0.6863
 5427TIP3    H137840   4.890   2.633   7.002  1.4418 -1.3767  0.8752
 5427TIP3    H237841   4.933   2.564   6.874 -0.1634 -1.5375  0.4087
 5428TIP3   OH237842   3.242   2.695   5.904 -0.8697  0.5244  0.8912
 5428TIP3    H137843   3.250   2.782   5.944  2.2214  0.7020  0.1609
 5428TIP3    H237844   3.276   2.635   5.970 -0.3350  0.2473  0.3794
 5429TIP3   OH237845   2.863   6.455   7.828 -0.0723  0.4974 -0.0917
 5429TIP3    H137846   2.800   6.474   7.759 -2.1435  0.1713  1.5935
 5429TIP3    H237847   2.850   6.526   7.892  0.8545  0.0900  0.5625
 5430TIP3   OH237848   3.872   5.938   8.777 -0.3861 -0.1108 -0.4257
 5430TIP3    H137849   3.873   5.856   8.728 -2.5097  0.1035 -0.9178
 5430TIP3    H237850   3.902   5.914   8.865 -0.2919 -1.2734 -0.7603
 5431TIP3   OH237851   0.216   3.693   1.817 -0.1413  0.1274 -0.3698
 5431TIP3    H137852   0.156   3.623   1.791 -1.1847 -0.4638  3.1807
 5431TIP3    H237853   0.283   3.650   1.869 -0.2869  1.6030  1.1159
 5432TIP3   OH237854   5.161   4.377   7.397  0.0711 -0.4162 -0.3160
 5432TIP3    H137855   5.106   4.312   7.440  0.6454 -0.9555 -0.3819
 5432TIP3    H237856   5.218   4.326   7.340 -0.0798  0.2242 -1.0509
 5433TIP3   OH237857   1.584   1.471   6.515  0.3421  0.2868  0.5159
 5433TIP3    H137858   1.652   1.466   6.582 -0.1541  1.3281  1.1280
 5433TIP3    H237859   1.589   1.388   6.468  3.5512  1.1484 -0.9538
 5434TIP3   OH237860   2.022   3.373   7.430  0.4557 -0.2941 -0.1534
 5434TIP3    H137861   1.996   3.439   7.365  1.0231  1.1291  1.0173
 5434TIP3    H237862   1.961   3.301   7.416 -2.3080  1.7224  0.5504
 5435TIP3   OH237863   2.360   1.293   7.362 -0.3302  0.2367  0.3331
 5435TIP3    H137864   2.362   1.305   7.457  1.0427  0.6970  0.2662
 5435TIP3    H237865   2.438   1.338   7.331 -0.9153  0.3366 -1.0516
 5436TIP3   OH237866   5.713   3.357   7.273  0.1174 -0.4153  0.2727
 5436TIP3    H137867   5.733   3.263   7.273  0.9328 -0.2546  0.0841
 5436TIP3    H237868   5.621   3.363   7.247  0.4686 -1.0891 -1.2302
 5437TIP3   OH237869   5.506   5.706   1.689 -0.3856  0.5741 -0.2044
 5437TIP3    H137870   5.477   5.623   1.653 -1.3796  0.7536  0.1368
 5437TIP3    H237871   5.600   5.709   1.671 -0.6382  0.1646 -1.7547
 5438TIP3   OH237872   1.218   0.607   6.034 -0.6893  0.0808 -0.0215
 5438TIP3    H137873   1.132   0.567   6.050 -0.0317 -0.9856  1.1101
 5438TIP3    H237874   1.279   0.551   6.083  0.5125  1.4504  0.1107
 5439TIP3   OH237875   0.474   2.695   7.124 -0.2211 -0.0298 -0.0893
 5439TIP3    H137876   0.402   2.712   7.185  1.1179 -0.5702  1.7350
 5439TIP3    H237877   0.480   2.774   7.071  0.5735  1.8947  2.6291
 5440TIP3   OH237878   5.224   5.111   2.616  0.6776  0.2980  0.4352
 5440TIP3    H137879   5.294   5.046   2.621 -0.0957 -0.4292  2.8603
 5440TIP3    H237880   5.246   5.163   2.539  2.7405 -1.1910 -0.0744
 5441TIP3   OH237881   5.691   1.415   8.431  0.1748 -0.6608  0.2186
 5441TIP3    H137882   5.674   1.412   8.525 -0.0520  1.0680  0.2507
 5441TIP3    H237883   5.774   1.368   8.421  0.9575  0.3831  1.4814
 5442TIP3   OH237884   6.743   2.190   8.601  0.0958  0.9468 -0.1569
 5442TIP3    H137885   6.704   2.166   8.685  1.7146  0.2996  0.4578
 5442TIP3    H237886   6.693   2.267   8.572 -1.4179  0.3257  0.6841
 5443TIP3   OH237887   6.428   0.194   0.085 -0.7899 -0.4918  0.4183
 5443TIP3    H137888   6.347   0.214   0.131 -0.6470 -0.2463  0.5682
 5443TIP3    H237889   6.481   0.147   0.149 -0.5953 -0.1600  0.5047
 5444TIP3   OH237890   3.847   5.306   8.029  0.3357  0.7624  0.6816
 5444TIP3    H137891   3.916   5.312   7.963  0.4474  0.2690  0.7483
 5444TIP3    H237892   3.767   5.288   7.979  0.3676  0.6916  0.6559
 5445TIP3   OH237893   0.689   1.514   6.614 -0.1673 -0.0043 -0.7427
 5445TIP3    H137894   0.594   1.503   6.622 -0.0641 -1.7004 -1.5601
 5445TIP3    H237895   0.702   1.542   6.524  0.0754  0.9565 -0.4219
 5446TIP3   OH237896   6.127   3.479   7.665  0.3378 -0.0390 -0.0622
 5446TIP3    H137897   6.069   3.462   7.592  0.4530 -0.5713 -0.0327
 5446TIP3    H237898   6.142   3.393   7.705 -0.3569  0.3339  1.0675
 5447TIP3   OH237899   5.916   0.629   7.637  0.5142 -0.1932  0.1505
 5447TIP3    H137900   6.007   0.608   7.618  0.4839 -0.6857  0.5398
 5447TIP3    H237901   5.868   0.548   7.621  0.0791  0.1644 -0.4270
 5448TIP3   OH237902   3.520   2.579   7.269 -0.2912  0.2324  0.2714
 5448TIP3    H137903   3.591   2.519   7.289 -0.7091  0.3602  2.3444
 5448TIP3    H237904   3.545   2.618   7.185  0.8163 -1.5436 -0.2804
 5449TIP3   OH237905   2.703   5.966   7.245  0.2416 -0.4174  0.2319
 5449TIP3    H137906   2.735   6.035   7.186  1.3780  0.3496  1.6562
 5449TIP3    H237907   2.610   5.984   7.254  0.4106  0.6152  0.1219
 5450TIP3   OH237908   6.493   1.643   1.277 -0.0756 -0.5303  0.4915
 5450TIP3    H137909   6.546   1.602   1.208 -0.0905 -1.0166  0.7652
 5450TIP3    H237910   6.456   1.569   1.326 -1.0801 -0.1967  0.2557
 5451TIP3   OH237911   5.357   0.197   7.678  0.0677  0.0101  0.0432
 5451TIP3    H137912   5.311   0.138   7.737 -2.4791  0.0228 -1.7790
 5451TIP3    H237913   5.333   0.285   7.708 -0.5116  0.0282 -0.4640
 5452TIP3   OH237914   3.211   5.933   2.286  0.4692  0.5172 -0.0128
 5452TIP3    H137915   3.263   5.904   2.211 -0.0296 -0.5114  0.0176
 5452TIP3    H237916   3.273   5.934   2.359  0.4099 -1.0208  0.0928
 5453TIP3   OH237917   5.739   0.690   1.570  0.3420 -0.8504 -0.6466
 5453TIP3    H137918   5.663   0.725   1.617  1.2599  2.0365 -1.1058
 5453TIP3    H237919   5.728   0.595   1.575 -3.7173 -0.6115 -1.4138
 5454TIP3   OH237920   6.117   2.885   0.291  0.0034  0.0152  0.0068
 5454TIP3    H137921   6.109   2.824   0.364 -0.3197  0.3702  0.2745
 5454TIP3    H237922   6.141   2.831   0.217  1.2813 -0.2184  0.5758
 5455TIP3   OH237923   6.226   0.755   1.948 -1.1324  0.4507 -0.5589
 5455TIP3    H137924   6.219   0.718   1.860  1.0133 -1.2299 -0.1343
 5455TIP3    H237925   6.148   0.725   1.993 -0.1930 -2.4837 -0.6874
 5456TIP3   OH237926   2.930   2.473   7.221 -0.1644 -0.7118 -0.3671
 5456TIP3    H137927   2.960   2.545   7.277 -1.7031  2.7527 -3.5842
 5456TIP3    H237928   2.858   2.433   7.270  1.1673 -0.6154  1.8070
 5457TIP3   OH237929   5.664   0.704   7.098 -0.7741 -0.0769  0.6656
 5457TIP3    H137930   5.609   0.671   7.027 -0.3083 -1.9212  1.1140
 5457TIP3    H237931   5.700   0.786   7.064 -1.0105 -0.6255 -0.9990
 5458TIP3   OH237932   4.983   5.919   1.189  0.0830 -0.0630 -0.4314
 5458TIP3    H137933   5.073   5.893   1.173  0.4736 -0.8626  2.4011
 5458TIP3    H237934   4.979   6.011   1.161  2.1146  0.3148  0.3500
 5459TIP3   OH237935   3.632   4.950   6.957  0.6357 -0.2650 -0.2519
 5459TIP3    H137936   3.687   5.005   7.012  1.0643 -0.2161 -0.7175
 5459TIP3    H237937   3.681   4.942   6.875 -0.7074  1.0248 -1.2484
 5460TIP3   OH237938   0.780   0.159   0.145 -0.3748  1.0967 -0.1058
 5460TIP3    H137939   0.696   0.138   0.186 -0.3748 -1.2003 -1.1358
 5460TIP3    H237940   0.758   0.216   0.071 -1.5273 -1.7848 -2.1834
 5461TIP3   OH237941   4.668   3.364   1.405 -0.2325  0.2432 -0.5610
 5461TIP3    H137942   4.592   3.393   1.454 -0.8897 -1.1804 -0.6917
 5461TIP3    H237943   4.742   3.376   1.465 -0.8362 -0.1664  0.2781
 5462TIP3   OH237944   6.674   6.179   6.512 -0.2932  0.2088 -0.0724
 5462TIP3    H137945   6.716   6.135   6.586 -1.7725  0.7890  1.1675
 5462TIP3    H237946   6.747   6.215   6.461  0.7885 -0.7972  0.6982
 5463TIP3   OH237947   4.124   3.923   1.076  0.7372 -0.0585  0.2168
 5463TIP3    H137948   4.036   3.959   1.075  1.1113  1.1105  2.4169
 5463TIP3    H237949   4.112   3.831   1.101  0.1991  0.5100  2.1981
 5464TIP3   OH237950   0.171   5.839   0.380 -0.1292  0.1157 -0.1939
 5464TIP3    H137951   0.183   5.745   0.393  0.5301  0.0381 -1.2825
 5464TIP3    H237952   0.076   5.850   0.370 -0.1228 -0.5926 -1.1700
 5465TIP3   OH237953   4.642   3.285   0.250 -0.1339  1.1892  0.0491
 5465TIP3    H137954   4.600   3.219   0.195 -2.4281 -0.5664  3.4793
 5465TIP3    H237955   4.581   3.359   0.251  0.0937  1.3802 -0.0751
 5466TIP3   OH237956   1.341   3.378   6.298 -0.0271  0.4491  0.0425
 5466TIP3    H137957   1.327   3.443   6.229 -0.1315  0.6821  0.2811
 5466TIP3    H237958   1.420   3.330   6.270  0.0822  0.7145 -0.1081
 5467TIP3   OH237959   1.145   3.575   1.431 -0.3481  0.2684  0.4448
 5467TIP3    H137960   1.104   3.586   1.346 -1.9050  0.8636  1.2372
 5467TIP3    H237961   1.113   3.490   1.462 -0.7762  0.6117  0.9540
 5468TIP3   OH237962   1.716   3.785   8.627 -0.0453 -0.1288  0.2816
 5468TIP3    H137963   1.732   3.879   8.623  0.2170 -0.1039  1.4017
 5468TIP3    H237964   1.729   3.754   8.538  1.9351  0.5846  0.2598
 5469TIP3   OH237965   6.523   3.166   8.051 -0.7098  0.3007 -0.5610
 5469TIP3    H137966   6.606   3.183   8.096 -1.5211  1.7214  0.5219
 5469TIP3    H237967   6.464   3.138   8.121 -0.7551 -2.4407 -1.5780
 5470TIP3   OH237968   6.147   6.411   1.629  0.3876  0.2541  0.3838
 5470TIP3    H137969   6.144   6.458   1.545  1.5324 -1.6193 -0.7656
 5470TIP3    H237970   6.187   6.474   1.689  1.6126  0.8873 -1.0255
 5471TIP3   OH237971   3.996   0.915   0.136  0.3065 -0.9619  0.0819
 5471TIP3    H137972   4.089   0.914   0.110  1.0466  0.0374  2.4076
 5471TIP3    H237973   3.996   0.955   0.223 -2.3306 -1.0244  0.1904
 5472TIP3   OH237974   6.055   6.407   8.144  0.4052  0.4660 -0.0406
 5472TIP3    H137975   6.115   6.480   8.160  1.3663  0.3685 -2.6793
 5472TIP3    H237976   6.111   6.336   8.113 -0.8973 -0.1335 -1.1191
 5473TIP3   OH237977   0.183   3.320   1.126  0.0993 -0.1354 -0.3424
 5473TIP3    H137978   0.101   3.367   1.110 -0.0412  0.5000  1.9623
 5473TIP3    H237979   0.156   3.236   1.162  0.3958  0.9930  2.7618
 5474TIP3   OH237980   1.166   0.602   8.047 -0.4369 -0.1569  0.6649
 5474TIP3    H137981   1.145   0.560   7.963  0.8614  0.2059  0.1454
 5474TIP3    H237982   1.106   0.560   8.110 -1.0907 -0.7820 -0.3418
 5475TIP3   OH237983   2.477   0.072   0.846  0.2551  0.5197 -0.0962
 5475TIP3    H137984   2.503  -0.010   0.889  1.5433  0.3655 -1.1076
 5475TIP3    H237985   2.549   0.092   0.787 -0.3598  2.0360 -0.3783
 5476TIP3   OH237986   6.057   2.084   1.631 -0.5687  0.2142  0.0294
 5476TIP3    H137987   6.085   2.006   1.679  0.9460  0.7823  0.1102
 5476TIP3    H237988   6.016   2.140   1.697  1.0563  0.7757  0.6025
 5477TIP3   OH237989   6.532   5.603   8.221  0.6931  0.1381 -0.2374
 5477TIP3    H137990   6.477   5.550   8.164  2.2536 -1.1255 -0.6552
 5477TIP3    H237991   6.515   5.570   8.309  1.1237 -0.5899 -0.4189
 5478TIP3   OH237992   3.884   3.651   7.688 -0.1459 -0.1765 -0.3044
 5478TIP3    H137993   3.836   3.602   7.622  0.7779 -1.9326  0.2493
 5478TIP3    H237994   3.971   3.612   7.688  0.6140  1.4358  0.2545
 5479TIP3   OH237995   1.901   0.124   0.768  0.2581  0.2311  0.1760
 5479TIP3    H137996   1.958   0.096   0.840 -1.0657  1.3606  1.7770
 5479TIP3    H237997   1.921   0.065   0.696  1.7557 -0.8799  1.4308
 5480TIP3   OH237998   5.341   4.848   7.654 -0.4079  0.2105 -0.2920
 5480TIP3    H137999   5.429   4.817   7.632 -0.1567  0.5827  0.1604
 5480TIP3    H238000   5.347   4.943   7.649 -0.3256  0.3230  1.3752
 5481TIP3   OH238001   2.589   6.307   1.212 -0.4234  0.1874  0.2699
 5481TIP3    H138002   2.603   6.213   1.210  0.1257  0.2522 -2.3592
 5481TIP3    H238003   2.505   6.320   1.168 -0.7933  0.9182  1.1498
 5482TIP3   OH238004   0.408   6.420   0.618 -0.1073 -0.2436 -0.5929
 5482TIP3    H138005   0.375   6.473   0.546  1.0494  0.0555 -0.9292
 5482TIP3    H238006   0.337   6.358   0.637 -0.4001 -0.3804 -2.0431
 5483TIP3   OH238007   2.576   1.114   0.485 -0.7878 -0.2036  0.2935
 5483TIP3    H138008   2.527   1.042   0.523  0.4723 -2.2002 -1.6224
 5483TIP3    H238009   2.578   1.095   0.391  2.2253  0.6270  0.0832
 5484TIP3   OH238010   2.081   1.654   1.402 -0.0364 -0.6540 -0.5198
 5484TIP3    H138011   2.169   1.646   1.438 -0.7692  0.2811  1.6697
 5484TIP3    H238012   2.065   1.572   1.356  0.8511 -2.1693  1.7240
 5485TIP3   OH238013   3.985   0.229   7.776 -0.2965  0.1422  0.5421
 5485TIP3    H138014   4.001   0.145   7.732  0.4520  0.2962  0.4996
 5485TIP3    H238015   4.035   0.223   7.858 -0.0027  0.6482  0.4064
 5486TIP3   OH238016   0.473   5.007   7.345  0.1167  0.2880  0.3888
 5486TIP3    H138017   0.468   5.102   7.350  1.3967  0.4032 -0.0160
 5486TIP3    H238018   0.460   4.988   7.252 -1.9265 -0.1036  0.7042
 5487TIP3   OH238019   4.932   4.053   8.143 -0.3503 -0.0702 -0.2463
 5487TIP3    H138020   4.905   3.989   8.210  1.9945 -2.8152 -1.6773
 5487TIP3    H238021   4.940   4.001   8.063  5.2003  1.0073 -0.7989
 5488TIP3   OH238022   2.619   0.512   7.031  0.5803 -0.7576  0.7766
 5488TIP3    H138023   2.622   0.601   7.065 -0.3514 -0.4353  0.0590
 5488TIP3    H238024   2.575   0.461   7.100 -0.5755 -0.2697  0.4240
 5489TIP3   OH238025   2.175   5.738   7.839  0.7665  0.2330  0.0780
 5489TIP3    H138026   2.088   5.773   7.855 -0.1734 -0.0446 -3.5652
 5489TIP3    H238027   2.172   5.649   7.876 -1.2238 -0.4757 -1.6109
 5490TIP3   OH238028   4.161   6.106   8.147  0.3940 -0.4851 -0.3313
 5490TIP3    H138029   4.199   6.026   8.183  0.4938 -0.5281 -0.5292
 5490TIP3    H238030   4.133   6.082   8.059  1.9700  0.1234 -1.0305
 5491TIP3   OH238031   3.416   6.104   0.786 -0.4093 -0.0462 -0.1243
 5491TIP3    H138032   3.408   6.199   0.777  0.9768  0.0205 -0.9466
 5491TIP3    H238033   3.503   6.092   0.825 -0.6119 -0.9739  0.0526
 5492TIP3   OH238034   4.445   5.055   0.864 -0.1458 -0.3158 -0.3680
 5492TIP3    H138035   4.364   5.104   0.875  0.0876 -0.0030  0.0082
 5492TIP3    H238036   4.427   4.993   0.793 -0.4366  0.3284 -0.8652
 5493TIP3   OH238037   6.109   6.288   1.245 -0.1137 -0.8473  0.0045
 5493TIP3    H138038   6.145   6.205   1.278  1.3022 -0.5900 -0.7921
 5493TIP3    H238039   6.015   6.275   1.244  0.0994 -2.6162 -0.4997
 5494TIP3   OH238040   3.881   6.697   1.371  0.2179 -0.0866  0.1186
 5494TIP3    H138041   3.824   6.627   1.339  0.8321  0.0401 -1.3567
 5494TIP3    H238042   3.969   6.670   1.346  0.2811  2.2644 -2.7397
 5495TIP3   OH238043   6.559   2.611   8.415  0.1191  0.4817 -0.5261
 5495TIP3    H138044   6.613   2.649   8.346  0.0226  2.2979  0.3336
 5495TIP3    H238045   6.575   2.517   8.410  2.2281  0.8322 -1.2330
 5496TIP3   OH238046   1.910   5.627   2.563  0.0909 -0.2952 -0.8045
 5496TIP3    H138047   1.972   5.668   2.502 -0.8869 -0.7208 -2.1458
 5496TIP3    H238048   1.824   5.650   2.528 -0.5762  0.8380  1.3797
 5497TIP3   OH238049   4.764   5.382   0.837 -0.2199 -0.8894  0.3232
 5497TIP3    H138050   4.726   5.445   0.898 -1.4899 -1.6710  0.3772
 5497TIP3    H238051   4.690   5.326   0.812  0.3342 -0.8209 -1.6326
 5498TIP3   OH238052   4.486   5.913   8.134  0.8239  0.3032 -0.5960
 5498TIP3    H138053   4.554   5.859   8.174  0.5066  0.5373  0.2721
 5498TIP3    H238054   4.403   5.874   8.164  0.5894  0.8432 -0.5388
 5499TIP3   OH238055   3.181   4.841   1.244 -0.3574  0.4397 -0.1748
 5499TIP3    H138056   3.141   4.903   1.182  2.1339  0.5499 -1.8060
 5499TIP3    H238057   3.198   4.893   1.322 -2.1736  0.6829  0.1112
 5500TIP3   OH238058   5.125   3.735   7.099 -0.5536  0.0948 -0.4837
 5500TIP3    H138059   5.053   3.774   7.049  0.6241 -0.0570 -2.3907
 5500TIP3    H238060   5.117   3.641   7.083  0.6006  0.1487 -1.5249
 5501TIP3   OH238061   0.791   0.519   6.184 -0.0442 -0.5913 -0.0942
 5501TIP3    H138062   0.824   0.582   6.120 -0.9685  0.0821  0.0614
 5501TIP3    H238063   0.817   0.556   6.269  0.5499 -1.1059 -0.0471
 5502TIP3   OH238064   2.917   3.263   0.192 -0.4441 -0.2978 -0.4067
 5502TIP3    H138065   2.983   3.332   0.193 -0.7291  0.0251 -1.5078
 5502TIP3    H238066   2.877   3.267   0.278 -0.3625  0.8414 -0.3956
 5503TIP3   OH238067   4.712   3.466   0.504  0.6377 -0.1452  0.3934
 5503TIP3    H138068   4.702   3.370   0.506  2.1789 -0.3197  0.8229
 5503TIP3    H238069   4.623   3.499   0.516  0.0377 -1.5188 -0.0453
 5504TIP3   OH238070   0.584   2.356   8.695 -0.1509  0.0979 -0.1757
 5504TIP3    H138071   0.511   2.365   8.635 -1.4149  1.2178  1.4362
 5504TIP3    H238072   0.557   2.288   8.757  1.6437 -1.9323 -1.5019
 5505TIP3   OH238073   0.168   4.760   7.783 -0.1660 -0.3065 -0.0248
 5505TIP3    H138074   0.117   4.750   7.702 -0.2343 -0.1242 -0.0056
 5505TIP3    H238075   0.253   4.793   7.753 -0.4000  0.3594  0.0298
 5506TIP3   OH238076   6.744   6.670   8.122  0.3555  0.3466 -0.1577
 5506TIP3    H138077   6.796   6.635   8.194  0.4236 -1.3886 -1.0068
 5506TIP3    H238078   6.653   6.666   8.153  0.3426 -0.8174 -0.2987
 5507TIP3   OH238079   5.530   4.578   1.227  0.1866  0.2049  0.0288
 5507TIP3    H138080   5.595   4.547   1.290 -0.3915 -0.3962  0.3470
 5507TIP3    H238081   5.580   4.627   1.162  1.3905 -2.6044 -1.3215
 5508TIP3   OH238082   1.133   2.274   6.924  0.2759 -0.3418 -0.2588
 5508TIP3    H138083   1.100   2.354   6.884 -0.7746  0.1484  1.4583
 5508TIP3    H238084   1.076   2.205   6.891 -0.5692  0.0501  0.3504
 5509TIP3   OH238085   5.192   4.416   1.418 -0.8661  0.2725  0.3155
 5509TIP3    H138086   5.104   4.379   1.420 -0.9996  0.6117  0.7527
 5509TIP3    H238087   5.209   4.446   1.507 -0.8980  1.5730 -0.0880
 5510TIP3   OH238088   3.958   1.528   7.386 -0.0844  0.1115 -0.1367
 5510TIP3    H138089   3.915   1.497   7.306  0.4176  0.7522 -0.6683
 5510TIP3    H238090   4.002   1.609   7.359 -0.1551  0.4967  0.8614
 5511TIP3   OH238091   6.764   4.404   8.244 -0.1256  0.3532  0.1679
 5511TIP3    H138092   6.785   4.497   8.236 -1.3165  0.4688 -2.9814
 5511TIP3    H238093   6.841   4.359   8.211 -0.9497  0.4348 -2.0181
 5512TIP3   OH238094   4.768   2.668   7.872  0.0986 -0.2355  0.0387
 5512TIP3    H138095   4.743   2.623   7.791  0.4404 -1.2842  0.4989
 5512TIP3    H238096   4.859   2.694   7.857  0.5643 -1.5017  0.5172
 5513TIP3   OH238097   3.836   6.290   1.613  0.3220  0.0609 -0.7067
 5513TIP3    H138098   3.852   6.291   1.707 -0.2969  3.2354 -0.5112
 5513TIP3    H238099   3.916   6.324   1.574 -0.0593  0.5049 -1.1266
 5514TIP3   OH238100   0.590   6.344   1.775  0.1626  0.2803 -0.1651
 5514TIP3    H138101   0.578   6.280   1.704 -0.0468 -0.6982  0.7228
 5514TIP3    H238102   0.658   6.305   1.830  0.0702  0.8513  0.3618
 5515TIP3   OH238103   2.531   4.656   8.453 -0.0789 -0.3144  0.3107
 5515TIP3    H138104   2.470   4.598   8.499 -3.2480  1.6172 -1.0888
 5515TIP3    H238105   2.521   4.740   8.498 -1.2200  0.9260 -2.0559
 5516TIP3   OH238106   1.396   3.581   0.093  0.0935 -0.2581  0.8105
 5516TIP3    H138107   1.350   3.610   0.172 -1.3882  0.0592 -0.1240
 5516TIP3    H238108   1.487   3.608   0.107 -0.0344 -0.6156  2.5883
 5517TIP3   OH238109   4.967   0.521   8.351  0.1236 -0.1111 -0.0136
 5517TIP3    H138110   5.016   0.593   8.392  2.2672 -1.5133  0.0207
 5517TIP3    H238111   4.981   0.533   8.257 -0.3192  0.0160 -0.0700
 5518TIP3   OH238112   3.204   1.848   8.570  0.1128 -0.7566 -0.0498
 5518TIP3    H138113   3.121   1.806   8.588  0.6880 -1.7788  0.2936
 5518TIP3    H238114   3.212   1.846   8.474 -1.1317  1.1234 -0.2479
 5519TIP3   OH238115   2.542   4.874   8.255 -0.2376  0.0021 -0.1274
 5519TIP3    H138116   2.531   4.794   8.305 -0.5307  0.5609  0.7196
 5519TIP3    H238117   2.594   4.931   8.312 -0.4774  0.6071 -0.5036
 5520TIP3   OH238118   2.764   2.583   1.207 -0.4491 -0.6763  0.3572
 5520TIP3    H138119   2.831   2.591   1.139  0.9359  1.8914  1.8515
 5520TIP3    H238120   2.791   2.508   1.260  1.2921  0.2770  0.8943
 5521TIP3   OH238121   5.777   0.467   6.714  0.2051  0.3356  0.5263
 5521TIP3    H138122   5.809   0.486   6.626  1.0737  0.0188  0.7589
 5521TIP3    H238123   5.853   0.432   6.760 -0.3185  0.1937  1.3107
 5522TIP3   OH238124   0.823   5.628   7.315 -0.0251 -0.3242  0.3359
 5522TIP3    H138125   0.876   5.692   7.267  1.0336  0.3853  2.3157
 5522TIP3    H238126   0.748   5.678   7.347 -0.2785 -0.5855  0.1531
 5523TIP3   OH238127   2.310   4.952   7.076 -0.2662  0.6089 -0.0608
 5523TIP3    H138128   2.406   4.950   7.073 -0.1574  1.1660  1.6267
 5523TIP3    H238129   2.288   5.044   7.080 -0.7002  0.4619  1.9833
 5524TIP3   OH238130   4.454   2.314   8.402 -0.1791 -0.1690 -0.7804
 5524TIP3    H138131   4.463   2.270   8.487  0.8693  3.1496  1.0362
 5524TIP3    H238132   4.535   2.294   8.356 -0.7169 -1.9336 -1.0280
 5525TIP3   OH238133   4.865   4.756   2.000  0.2059  0.4223 -0.1031
 5525TIP3    H138134   4.773   4.776   1.986  0.1816  0.9347  0.7295
 5525TIP3    H238135   4.899   4.831   2.048  0.5999 -0.6060  1.2743
 5526TIP3   OH238136   2.621   2.780   2.293 -0.4988 -0.2665  0.0367
 5526TIP3    H138137   2.583   2.784   2.205  2.6975  1.4690 -1.4094
 5526TIP3    H238138   2.589   2.859   2.336 -1.1211 -0.5087  0.0305
 5527TIP3   OH238139   3.500   1.194   0.884  0.0888 -0.0914 -0.1562
 5527TIP3    H138140   3.534   1.199   0.973  2.0413 -0.6872 -0.8158
 5527TIP3    H238141   3.541   1.267   0.838  1.2113 -1.2874 -1.1666
 5528TIP3   OH238142   0.690   4.394   7.618 -0.7712  0.1584 -0.0061
 5528TIP3    H138143   0.737   4.386   7.701 -1.1436  0.7080  0.2610
 5528TIP3    H238144   0.651   4.481   7.620 -0.0351  0.5437 -1.1528
 5529TIP3   OH238145   2.689   2.375   1.581 -0.6606 -0.2475  0.1290
 5529TIP3    H138146   2.675   2.450   1.639  0.0794  0.6926 -0.8751
 5529TIP3    H238147   2.611   2.320   1.594 -2.6264  2.0347 -1.1039
 5530TIP3   OH238148   0.395   5.411   8.135  0.2587  0.4056  0.1146
 5530TIP3    H138149   0.314   5.385   8.090 -1.5042  0.1349  3.1330
 5530TIP3    H238150   0.372   5.492   8.181  1.2144 -0.3511  2.0635
 5531TIP3   OH238151   0.039   0.798   0.431 -0.1153  0.4851  0.2427
 5531TIP3    H138152   0.018   0.710   0.399  0.0599  0.8107 -0.7835
 5531TIP3    H238153  -0.046   0.836   0.454 -0.3907  0.7054 -1.0557
 5532TIP3   OH238154   4.489   5.271   5.909 -0.0299 -0.7761  0.1040
 5532TIP3    H138155   4.458   5.359   5.932  0.3320 -0.2745 -1.1912
 5532TIP3    H238156   4.490   5.223   5.991  0.6781  0.7144  1.0130
 5533TIP3   OH238157   1.607   5.341   1.566  0.2542 -0.2251  0.4192
 5533TIP3    H138158   1.642   5.254   1.585 -0.4459 -0.1917  2.0657
 5533TIP3    H238159   1.684   5.394   1.546  0.7204 -1.1199 -0.2033
 5534TIP3   OH238160   0.711   5.193   7.213  0.1859 -0.1231 -0.2821
 5534TIP3    H138161   0.764   5.272   7.217  0.9891 -0.6263 -0.6572
 5534TIP3    H238162   0.753   5.139   7.146  0.2187 -1.2779  0.6389
 5535TIP3   OH238163   1.446   2.266   7.867 -0.5371 -0.6970 -0.3640
 5535TIP3    H138164   1.415   2.177   7.884  1.1723 -1.1445  0.6418
 5535TIP3    H238165   1.486   2.261   7.781  1.2078 -1.4265  0.4342
 5536TIP3   OH238166   2.393   0.684   1.033 -0.3221 -0.0063 -1.0581
 5536TIP3    H138167   2.352   0.610   1.079  1.2413 -0.2213  0.0578
 5536TIP3    H238168   2.428   0.646   0.953 -0.8023 -0.1621 -1.1989
 5537TIP3   OH238169   4.734   1.061   6.668 -0.1885 -0.1863 -0.3006
 5537TIP3    H138170   4.803   0.995   6.662 -0.7131 -0.7202 -0.5326
 5537TIP3    H238171   4.676   1.042   6.595  0.0054  0.9581 -0.7761
 5538TIP3   OH238172   4.218   0.977   7.922 -0.0319 -0.0567 -0.0843
 5538TIP3    H138173   4.208   0.900   7.866  0.3199  0.1567 -0.4510
 5538TIP3    H238174   4.313   0.986   7.932  0.0455  1.4382 -1.6367
 5539TIP3   OH238175   1.428   1.912   7.717  0.4489 -0.4092 -0.3926
 5539TIP3    H138176   1.505   1.871   7.678 -0.2537 -1.5895 -0.5974
 5539TIP3    H238177   1.357   1.851   7.698 -0.6375  0.8922 -0.6358
 5540TIP3   OH238178   0.729   1.262   6.997  0.0946  0.0258 -0.5219
 5540TIP3    H138179   0.635   1.275   6.984  0.0578 -1.3875 -1.9248
 5540TIP3    H238180   0.767   1.268   6.909  1.0835 -1.1862 -0.2057
 5541TIP3   OH238181   0.805   1.732   1.669 -1.0880 -0.4419 -0.1888
 5541TIP3    H138182   0.780   1.651   1.624 -0.0105  0.0340 -1.6861
 5541TIP3    H238183   0.739   1.796   1.642 -2.3373 -0.9342  1.5253
 5542TIP3   OH238184   3.733   2.341   1.934  1.2528 -0.2221  0.1181
 5542TIP3    H138185   3.761   2.430   1.915 -0.5769  0.6449  1.1911
 5542TIP3    H238186   3.795   2.310   2.000  0.1295  1.4587  2.0811
 5543TIP3   OH238187   5.417   2.120   6.309  0.2922  0.4165  0.4463
 5543TIP3    H138188   5.380   2.095   6.393  1.0153  0.3317  0.7402
 5543TIP3    H238189   5.441   2.037   6.267  1.3400  0.5294  0.8054
 5544TIP3   OH238190   0.080   6.010   8.461 -0.0354  0.0581 -0.1586
 5544TIP3    H138191   0.132   5.971   8.531  0.0914 -0.8624 -0.7418
 5544TIP3    H238192   0.121   5.978   8.380 -1.4626 -0.6572 -0.6298
 5545TIP3   OH238193   5.083   4.636   6.791  0.0600 -0.1757 -0.2139
 5545TIP3    H138194   5.046   4.686   6.719  0.4240  0.2069 -0.1381
 5545TIP3    H238195   5.172   4.616   6.763 -0.0960 -0.8176 -0.2601
 5546TIP3   OH238196   1.786   3.150   0.770  0.4602  1.0211 -0.4715
 5546TIP3    H138197   1.728   3.091   0.818  0.8511  0.8707 -0.1742
 5546TIP3    H238198   1.857   3.093   0.740  0.9082  1.3609 -0.0670
 5547TIP3   OH238199   3.051   2.184   1.266 -0.3783  0.1321 -0.3215
 5547TIP3    H138200   3.097   2.247   1.211  0.4953 -1.6123 -1.6783
 5547TIP3    H238201   2.959   2.194   1.240 -0.3528  1.2639 -0.0452
 5548TIP3   OH238202   0.835   5.720   6.708 -0.5783  0.0607 -0.0056
 5548TIP3    H138203   0.837   5.780   6.634 -0.2455  0.8284  0.6038
 5548TIP3    H238204   0.900   5.653   6.687 -1.0487 -0.1736 -0.7558
 5549TIP3   OH238205   1.250   1.031   0.860 -0.0313 -0.1852  0.7534
 5549TIP3    H138206   1.160   1.001   0.874 -0.3866  1.0399  1.1870
 5549TIP3    H238207   1.264   1.097   0.928  1.0251  0.0108  0.3601
 5550TIP3   OH238208   5.953   6.213   0.796  0.4125 -0.4732 -0.1923
 5550TIP3    H138209   5.923   6.125   0.817  1.2716 -0.7303 -0.0233
 5550TIP3    H238210   6.045   6.214   0.820  0.1828  0.7759  0.7432
 5551TIP3   OH238211   3.505   0.720   1.133  0.2783  0.0452 -0.5463
 5551TIP3    H138212   3.547   0.734   1.048 -1.4066  0.8622 -1.2864
 5551TIP3    H238213   3.423   0.770   1.128 -1.6587 -2.8386  0.1600
 5552TIP3   OH238214   6.214   6.027   1.309 -0.1745  0.4077 -0.1595
 5552TIP3    H138215   6.295   6.054   1.266  0.6171 -0.3684  0.7722
 5552TIP3    H238216   6.220   5.932   1.312 -0.2556  0.4278  1.4827
 5553TIP3   OH238217   3.329   4.087   0.861  0.5442 -0.1570  0.6105
 5553TIP3    H138218   3.322   4.074   0.766  0.5683  0.7332  0.4808
 5553TIP3    H238219   3.423   4.088   0.878  0.5398 -0.4267  0.6709
 5554TIP3   OH238220   3.833   6.372   8.078 -0.4439 -0.0902  0.4992
 5554TIP3    H138221   3.793   6.458   8.086  1.6547  1.0010  0.0355
 5554TIP3    H238222   3.897   6.369   8.150  0.9442 -0.3755 -0.7006
 5555TIP3   OH238223   4.378   0.191   7.394 -0.2631 -0.2222 -0.0837
 5555TIP3    H138224   4.370   0.110   7.445  0.6022  0.7051  1.6251
 5555TIP3    H238225   4.453   0.176   7.338 -0.2315 -0.6811  0.0718
 5556TIP3   OH238226   0.849   6.027   0.955  0.4399  0.2442 -0.0088
 5556TIP3    H138227   0.783   6.097   0.952  0.1984 -0.0024 -2.0699
 5556TIP3    H238228   0.837   5.979   0.873  2.5649 -0.3965 -0.0094
 5557TIP3   OH238229   6.316   3.063   0.375 -0.1000 -0.4823 -0.0630
 5557TIP3    H138230   6.397   3.019   0.347 -0.3994 -1.8273  1.1025
 5557TIP3    H238231   6.246   3.005   0.344 -0.5518 -0.1574  0.3474
 5558TIP3   OH238232   1.938   1.099   6.672  0.0986  0.5988 -0.0763
 5558TIP3    H138233   2.001   1.028   6.657 -2.8550 -2.3201  0.2428
 5558TIP3    H238234   1.882   1.098   6.594 -1.7361  0.5783  1.1803
 5559TIP3   OH238235   3.963   6.372   1.098 -0.4323  0.1504  0.6705
 5559TIP3    H138236   3.887   6.322   1.127  0.3828 -0.7699  1.3022
 5559TIP3    H238237   3.962   6.364   1.003 -0.6486 -0.5947  0.7272
 5560TIP3   OH238238   3.634   0.598   0.933 -0.0865  0.0695  0.6887
 5560TIP3    H138239   3.703   0.650   0.892  0.7197 -1.8407 -0.5475
 5560TIP3    H238240   3.682   0.526   0.975 -1.2532 -0.5326  1.0158
 5561TIP3   OH238241   1.459   2.691   0.183 -0.3236 -0.2517 -0.8594
 5561TIP3    H138242   1.499   2.731   0.105 -0.3129 -0.2264 -0.8407
 5561TIP3    H238243   1.395   2.755   0.213  1.0244  0.6071  0.3005
 5562TIP3   OH238244   0.757   2.609   7.701  0.3560  0.3469  0.3890
 5562TIP3    H138245   0.775   2.702   7.713  0.0816  0.5146 -0.4255
 5562TIP3    H238246   0.661   2.602   7.700  0.3738  0.0733  0.3243
 5563TIP3   OH238247   2.109   4.555   1.672  0.0689 -0.5230  0.4454
 5563TIP3    H138248   2.024   4.510   1.671  0.2549 -0.9430  1.8118
 5563TIP3    H238249   2.100   4.624   1.738  1.1741 -1.4265  1.6108
 5564TIP3   OH238250   2.771   4.017   7.452 -0.2691 -0.4466  0.5083
 5564TIP3    H138251   2.827   3.978   7.519 -0.1048 -0.8031  0.1700
 5564TIP3    H238252   2.714   4.077   7.499  1.2201  0.8457  0.7137
 5565TIP3   OH238253   5.909   5.475   8.339 -0.4719  0.1391 -0.3571
 5565TIP3    H138254   5.885   5.431   8.257  1.4054 -0.8807 -0.4242
 5565TIP3    H238255   5.898   5.568   8.320  0.9123 -0.0058 -2.1871
 5566TIP3   OH238256   5.092   6.378   7.724  0.4383  0.2495 -0.4602
 5566TIP3    H138257   4.999   6.357   7.728  0.5553 -0.3684 -0.8467
 5566TIP3    H238258   5.095   6.474   7.721 -0.2327  0.2460 -1.7737
 5567TIP3   OH238259   6.247   4.670   0.514  0.2332  0.3566  0.2066
 5567TIP3    H138260   6.259   4.578   0.490 -0.3581  0.5046 -0.7161
 5567TIP3    H238261   6.153   4.685   0.504  0.5989  1.6363 -1.8894
 5568TIP3   OH238262   1.598   4.690   0.206  0.3068 -0.4683  0.4018
 5568TIP3    H138263   1.664   4.661   0.269 -0.6945  0.1127  1.7896
 5568TIP3    H238264   1.595   4.785   0.216 -0.1722 -0.4096 -0.2249
 5569TIP3   OH238265   0.757   4.930   8.447 -0.3347 -0.3024  0.0704
 5569TIP3    H138266   0.827   4.985   8.412 -0.0307 -1.7969 -1.8303
 5569TIP3    H238267   0.797   4.888   8.524 -0.2070  1.1807  0.8569
 5570TIP3   OH238268   5.445   0.921   1.514 -0.2004 -0.2017 -0.7901
 5570TIP3    H138269   5.433   0.843   1.568  1.7360 -1.0992 -1.5330
 5570TIP3    H238270   5.359   0.939   1.477 -0.4559 -2.8967 -1.7368
 5571TIP3   OH238271   5.483   3.703   0.075  0.3041  0.0666 -0.2288
 5571TIP3    H138272   5.547   3.661   0.017  0.2962 -1.4034  0.7778
 5571TIP3    H238273   5.472   3.641   0.147 -2.2588  0.2666 -0.3676
 5572TIP3   OH238274   0.846   3.725   0.481 -0.2310 -0.1309  0.2873
 5572TIP3    H138275   0.860   3.766   0.566 -0.3596  2.0550 -0.6838
 5572TIP3    H238276   0.866   3.793   0.417  1.5087 -2.1909 -1.5432
 5573TIP3   OH238277   6.750   2.688   0.716  0.1772  0.2425 -0.4272
 5573TIP3    H138278   6.777   2.728   0.633 -0.0016 -0.9361 -1.0607
 5573TIP3    H238279   6.765   2.595   0.704  3.0924  0.2365  1.9506
 5574TIP3   OH238280   6.573   4.330   7.734  0.0157  0.0714  0.4308
 5574TIP3    H138281   6.486   4.355   7.705 -0.6851 -1.7074  0.8562
 5574TIP3    H238282   6.614   4.290   7.657 -0.1815 -0.6068  0.6715
 5575TIP3   OH238283   0.438   4.908   1.605  0.2153 -0.2445 -0.0158
 5575TIP3    H138284   0.394   4.855   1.671 -1.4867 -1.3236 -1.8830
 5575TIP3    H238285   0.468   4.845   1.539 -1.5599  0.9795 -2.1300
 5576TIP3   OH238286   0.461   1.088   7.698  0.8753 -0.2098  0.5913
 5576TIP3    H138287   0.493   1.143   7.770 -0.6025  0.2310  0.9452
 5576TIP3    H238288   0.479   0.999   7.727  0.9971 -0.0074  1.1615
 5577TIP3   OH238289   5.868   4.769   2.377  0.4391 -0.2356 -0.0659
 5577TIP3    H138290   5.914   4.686   2.387  0.2010 -0.3022  0.5191
 5577TIP3    H238291   5.793   4.749   2.322  0.4066 -0.3985  0.0381
 5578TIP3   OH238292   5.220   4.241   8.186  0.1116 -0.1081 -0.0969
 5578TIP3    H138293   5.235   4.301   8.259 -0.0221  2.3604 -1.9570
 5578TIP3    H238294   5.125   4.241   8.174  0.0868 -0.9390  0.0536
 5579TIP3   OH238295   2.583   3.791   8.109 -0.7449 -0.2707  0.6755
 5579TIP3    H138296   2.552   3.846   8.181 -2.2232 -0.0406 -0.0942
 5579TIP3    H238297   2.508   3.785   8.050  0.2951 -0.7989 -0.6384
 5580TIP3   OH238298   0.536   6.684   6.909 -0.4257 -0.1346  0.1703
 5580TIP3    H138299   0.469   6.730   6.960  0.4767  0.5139  0.8087
 5580TIP3    H238300   0.532   6.594   6.940  0.3401  0.3140  1.6934
 5581TIP3   OH238301   4.898   0.291   8.487 -0.1234  0.3968 -0.0188
 5581TIP3    H138302   4.863   0.339   8.562 -1.3077  0.1979 -0.4290
 5581TIP3    H238303   4.923   0.359   8.425  0.8766  0.5646  0.5380
 5582TIP3   OH238304   0.286   3.737   7.575  0.1477  0.4825  0.1039
 5582TIP3    H138305   0.275   3.716   7.482  0.1203 -0.2366  0.2680
 5582TIP3    H238306   0.204   3.782   7.599  0.0273  0.3921 -0.1396
 5583TIP3   OH238307   5.856   4.281   1.586 -0.3966  0.3187 -1.1656
 5583TIP3    H138308   5.932   4.223   1.584  0.0098  0.6756  1.1207
 5583TIP3    H238309   5.872   4.344   1.516  0.6267 -0.5477 -1.7363
 5584TIP3   OH238310   3.615   0.934   1.772 -0.1477  0.5357  0.2716
 5584TIP3    H138311   3.541   0.938   1.832 -0.5051 -1.2080  0.0114
 5584TIP3    H238312   3.614   0.844   1.739  2.3198  0.3348  0.5602
 5585TIP3   OH238313   4.577   2.174   7.714 -0.2405  0.0702 -0.1545
 5585TIP3    H138314   4.534   2.148   7.632 -1.0107  0.0573  0.2516
 5585TIP3    H238315   4.553   2.106   7.777  0.5925 -0.0765  0.0154
 5586TIP3   OH238316   4.080   0.136   0.773  0.2551  0.3239  0.0857
 5586TIP3    H138317   3.985   0.126   0.768  0.2133  0.5213  0.3935
 5586TIP3    H238318   4.094   0.230   0.758  0.3698  0.3588  0.4056
 5587TIP3   OH238319   5.953   6.130   7.408 -0.3563  0.6563  0.2802
 5587TIP3    H138320   5.985   6.208   7.362  0.0600  0.2565 -0.1244
 5587TIP3    H238321   5.880   6.162   7.461 -0.8351  1.1379 -0.6334
 5588TIP3   OH238322   3.271   2.672   6.194  0.6243  0.1049 -0.0751
 5588TIP3    H138323   3.198   2.625   6.235  1.3132 -0.9116  0.0434
 5588TIP3    H238324   3.271   2.758   6.236 -0.7620  0.2798 -0.3893
 5589TIP3   OH238325   6.661   5.330   1.763 -0.3583 -1.0830 -0.4124
 5589TIP3    H138326   6.708   5.280   1.697 -0.5471 -0.0507 -1.3570
 5589TIP3    H238327   6.626   5.406   1.716  0.6806  0.4316  1.1166
 5590TIP3   OH238328   0.932   0.288   0.353 -0.0986 -0.1117  0.3155
 5590TIP3    H138329   0.899   0.229   0.421 -0.6497  0.2623  0.3772
 5590TIP3    H238330   0.886   0.260   0.273 -0.0756 -0.0078  0.2659
 5591TIP3   OH238331   0.647   1.695   7.535 -0.3139  0.5533 -0.8820
 5591TIP3    H138332   0.565   1.721   7.493  0.0183  2.0545 -0.6347
 5591TIP3    H238333   0.678   1.774   7.579  0.9183 -0.1770 -0.3929
 5592TIP3   OH238334   4.389   3.651   7.782  0.2132 -0.9302 -0.4874
 5592TIP3    H138335   4.454   3.611   7.840  0.0707  2.4464  2.3144
 5592TIP3    H238336   4.428   3.733   7.753 -1.8463  0.0446 -0.7032
 5593TIP3   OH238337   5.207   2.823   0.585 -0.1466  0.3543 -0.1155
 5593TIP3    H138338   5.134   2.819   0.646  0.1330 -2.9182  0.1800
 5593TIP3    H238339   5.174   2.874   0.511 -2.8941 -1.2286 -0.1075
 5594TIP3   OH238340   5.308   1.239   7.583 -0.5325 -0.1271 -0.0353
 5594TIP3    H138341   5.319   1.245   7.678 -0.1887 -0.9612 -0.0123
 5594TIP3    H238342   5.227   1.190   7.571 -0.2609 -0.5558 -0.1589
 5595TIP3   OH238343   1.257   4.938   6.387 -0.0884 -0.5719 -0.1330
 5595TIP3    H138344   1.195   4.913   6.318 -1.1226 -0.2277  0.6375
 5595TIP3    H238345   1.290   5.023   6.359 -0.0192 -0.7180 -0.5071
 5596TIP3   OH238346   5.547   6.542   0.070  0.3443 -0.1343 -0.0213
 5596TIP3    H138347   5.566   6.451   0.049 -0.1426 -0.3642  0.5238
 5596TIP3    H238348   5.452   6.545   0.082  0.5538  0.0046  1.9661
 5597TIP3   OH238349   2.191   3.617   1.678  0.1108  0.0484 -0.3078
 5597TIP3    H138350   2.154   3.668   1.750 -0.4516  0.1997 -0.6940
 5597TIP3    H238351   2.199   3.528   1.713 -3.5172 -0.7624 -1.0762
 5598TIP3   OH238352   5.799   0.058   0.817 -0.3499 -0.2782 -0.0831
 5598TIP3    H138353   5.717   0.085   0.858  0.3246 -0.1570  1.2553
 5598TIP3    H238354   5.859   0.043   0.890  0.6935 -0.8081 -1.0062
 5599TIP3   OH238355   0.884   1.850   0.257  0.0493 -0.2311  0.1042
 5599TIP3    H138356   0.859   1.907   0.330 -1.4601  0.0618 -0.6079
 5599TIP3    H238357   0.974   1.824   0.277 -0.3739 -0.2860  2.1484
 5600TIP3   OH238358   4.489   0.516   0.966 -0.1145 -0.5876 -0.8824
 5600TIP3    H138359   4.421   0.453   0.990 -0.5408 -0.2090 -1.0908
 5600TIP3    H238360   4.559   0.501   1.029 -0.9590 -0.0414  0.2114
 5601TIP3   OH238361   1.420   4.926   8.078  0.2448  0.2340 -0.1998
 5601TIP3    H138362   1.444   5.016   8.053  1.8623 -0.6192 -1.9999
 5601TIP3    H238363   1.325   4.927   8.083  0.1323  1.6892 -1.7124
 5602TIP3   OH238364   4.657   3.002   6.242  0.1200 -0.4591 -0.4096
 5602TIP3    H138365   4.712   3.012   6.319 -0.6233  1.3642 -0.0797
 5602TIP3    H238366   4.646   2.907   6.233  2.7795 -0.8631 -0.1583
 5603TIP3   OH238367   0.128   5.468   1.433  0.4715 -0.3897 -0.0724
 5603TIP3    H138368   0.106   5.503   1.520 -0.9413  2.0379 -1.3080
 5603TIP3    H238369   0.164   5.543   1.386  1.7705 -1.8081 -1.4585
 5604TIP3   OH238370   4.085   3.784   0.493  0.5532 -0.1055  0.6819
 5604TIP3    H138371   4.083   3.846   0.420  2.9866  0.0471  0.6516
 5604TIP3    H238372   4.028   3.822   0.560 -0.6720  0.4139 -0.6151
 5605TIP3   OH238373   1.895   5.731   7.254  0.1420  0.0859  0.1181
 5605TIP3    H138374   1.932   5.656   7.208  0.7198  0.3179  0.1997
 5605TIP3    H238375   1.966   5.763   7.310 -0.6813 -0.4791  1.5464
 5606TIP3   OH238376   5.035   6.235   8.169  0.3741  0.1636 -0.7223
 5606TIP3    H138377   5.041   6.275   8.256  0.6254 -1.7277  0.1859
 5606TIP3    H238378   4.966   6.285   8.125  0.0174  0.9701  0.6660
 5607TIP3   OH238379   6.078   2.141   0.121 -0.3549 -0.0638  0.2869
 5607TIP3    H138380   6.018   2.090   0.067  0.1994 -0.8922  0.4409
 5607TIP3    H238381   6.165   2.108   0.099 -0.0433  0.3163  0.9153
 5608TIP3   OH238382   5.519   3.395   1.829 -0.2001  0.2959 -0.2929
 5608TIP3    H138383   5.555   3.307   1.840  0.0677  0.5414  0.9713
 5608TIP3    H238384   5.455   3.404   1.900  0.5530  1.4970  0.2581
 5609TIP3   OH238385   5.441   3.552   7.692 -0.1027 -0.1080 -0.0122
 5609TIP3    H138386   5.384   3.492   7.740 -0.5555 -0.2578 -0.7179
 5609TIP3    H238387   5.429   3.636   7.735 -1.9469  0.1767 -0.9876
 5610TIP3   OH238388   6.427   2.982   1.187  0.0898 -0.2444  0.4252
 5610TIP3    H138389   6.441   3.002   1.095  0.7351  0.1032  0.5877
 5610TIP3    H238390   6.349   2.928   1.189 -0.5137  0.5833 -0.2293
 5611TIP3   OH238391   6.033   4.616   1.566  0.1604 -0.2124 -0.1267
 5611TIP3    H138392   5.990   4.614   1.480 -0.8227 -1.0063  0.3651
 5611TIP3    H238393   6.126   4.619   1.546 -0.0390 -0.7896 -1.2288
 5612TIP3   OH238394   2.574   1.213   8.764  0.4490  0.0447  0.1845
 5612TIP3    H138395   2.603   1.261   8.842 -2.1284  1.5439  0.3078
 5612TIP3    H238396   2.540   1.280   8.705 -1.0580 -1.3964 -0.6839
 5613TIP3   OH238397   3.232   5.355   1.322  0.1499  0.6635  0.1453
 5613TIP3    H138398   3.181   5.411   1.264  0.5023  0.9391  0.1021
 5613TIP3    H238399   3.216   5.390   1.410  1.0850  1.3939  0.0298
 5614TIP3   OH238400   3.201   0.155   1.018  0.6705  0.8540 -0.0571
 5614TIP3    H138401   3.190   0.201   0.935  0.8415  0.0100 -0.5559
 5614TIP3    H238402   3.194   0.224   1.084 -0.2452  1.4312 -0.7229
 5615TIP3   OH238403   5.512   1.921   0.171 -0.2000  0.2340  0.1217
 5615TIP3    H138404   5.587   1.969   0.206  1.4476 -0.6091 -2.0059
 5615TIP3    H238405   5.543   1.831   0.162 -1.8763 -0.4027  0.2443
 5616TIP3   OH238406   1.013   5.595   1.480 -0.2250  0.2266  0.1925
 5616TIP3    H138407   1.024   5.500   1.490 -1.5154  0.0199 -0.1843
 5616TIP3    H238408   0.943   5.618   1.541  1.0705  1.2101  1.3751
 5617TIP3   OH238409   4.433   2.563   8.512  0.0307  0.1541 -0.1330
 5617TIP3    H138410   4.421   2.477   8.472 -0.3916  0.1292  0.0462
 5617TIP3    H238411   4.480   2.546   8.593  0.4550  0.1532 -0.3781
 5618TIP3   OH238412   6.137   6.273   7.717 -0.1023 -0.0741 -0.4271
 5618TIP3    H138413   6.177   6.297   7.634  1.3700  0.0735  0.2750
 5618TIP3    H238414   6.052   6.315   7.717  0.1323  0.4262 -1.5925
 5619TIP3   OH238415   4.303   2.134   0.727  0.2750  0.1235  0.1567
 5619TIP3    H138416   4.227   2.165   0.678  0.4541  0.2885 -0.0217
 5619TIP3    H238417   4.378   2.157   0.672  0.6301  2.0916  1.3828
 5620TIP3   OH238418   6.703   6.359   7.162 -0.1035 -0.5186  0.2312
 5620TIP3    H138419   6.792   6.362   7.197 -0.7509  0.6148  1.9056
 5620TIP3    H238420   6.689   6.446   7.125 -1.0817 -0.0485  1.5980
 5621TIP3   OH238421   6.657   4.247   7.226 -0.4859  0.0199 -0.5380
 5621TIP3    H138422   6.620   4.181   7.166  0.3028 -0.9717  0.0266
 5621TIP3    H238423   6.704   4.195   7.291 -0.9808  1.1029  0.7111
 5622TIP3   OH238424   0.380   3.290   0.021 -0.5184 -0.0491 -0.8013
 5622TIP3    H138425   0.310   3.355   0.020 -1.0002 -0.4891  0.9544
 5622TIP3    H238426   0.460   3.341   0.007 -0.6865  1.2861  2.4301
 5623TIP3   OH238427   2.197   2.146   0.349  0.4523  0.0073  0.0637
 5623TIP3    H138428   2.125   2.131   0.410  0.6631  0.9962  0.5754
 5623TIP3    H238429   2.234   2.059   0.334 -0.4572 -0.4249  0.2748
 5624TIP3   OH238430   0.462   6.492   1.143  0.4447  0.0708  0.1479
 5624TIP3    H138431   0.398   6.476   1.073  0.9984  0.0739 -0.3663
 5624TIP3    H238432   0.512   6.568   1.113  0.8441 -0.0734  0.4356
 5625TIP3   OH238433   5.340   0.887   1.022  0.8011  0.4267 -0.0214
 5625TIP3    H138434   5.429   0.904   1.052  0.7494  0.3017  0.2037
 5625TIP3    H238435   5.351   0.824   0.950  0.8395 -0.2215  0.5440
 5626TIP3   OH238436   6.181   6.324   0.576 -0.2408  0.0813  0.3313
 5626TIP3    H138437   6.205   6.403   0.624 -1.4485 -0.8855  2.7270
 5626TIP3    H238438   6.093   6.342   0.542  1.6815  1.9333 -4.5371
 5627TIP3   OH238439   0.083   4.580   0.177  0.0873 -0.6916  0.1275
 5627TIP3    H138440   0.082   4.552   0.268 -1.3264  0.4984  0.5176
 5627TIP3    H238441   0.095   4.499   0.127  1.7398 -1.2611  1.3654
 5628TIP3   OH238442   6.195   4.018   8.429  0.5624 -0.5069  0.1896
 5628TIP3    H138443   6.174   3.960   8.356 -1.4559  1.5772 -1.0469
 5628TIP3    H238444   6.288   4.036   8.419  0.3974 -0.5284 -1.7441
 5629TIP3   OH238445   4.950   2.822   8.594 -0.2210  0.0967  0.2045
 5629TIP3    H138446   4.893   2.758   8.636 -0.0011  0.1795  0.6370
 5629TIP3    H238447   4.894   2.868   8.532 -0.6842  0.3256  0.7812
 5630TIP3   OH238448   4.902   5.109   8.698 -0.3347 -0.6196  0.2572
 5630TIP3    H138449   4.842   5.037   8.720  1.5621 -2.2524  0.3464
 5630TIP3    H238450   4.895   5.118   8.602 -0.2088 -1.2879  0.1824
 5631TIP3   OH238451   2.554   0.011   0.202 -0.2237  0.3673  0.1026
 5631TIP3    H138452   2.631  -0.025   0.246 -0.4893 -0.0906  0.1905
 5631TIP3    H238453   2.517  -0.063   0.153 -2.1477 -0.1189  2.1596
 5632TIP3   OH238454   6.554   0.566   8.006  0.3913  0.0822  0.1697
 5632TIP3    H138455   6.643   0.541   8.031  0.0244 -1.0851  0.3368
 5632TIP3    H238456   6.535   0.516   7.927 -0.6314 -0.7907  0.9397
 5633TIP3   OH238457   2.739   0.640   8.645  0.0120 -0.5452  0.5445
 5633TIP3    H138458   2.773   0.573   8.584 -0.4275 -0.9387  0.7295
 5633TIP3    H238459   2.788   0.719   8.623 -2.2320  0.1937 -2.4646
 5634TIP3   OH238460   2.131   5.043   1.514  0.0265  0.5846  0.0849
 5634TIP3    H138461   2.119   5.090   1.596 -1.0044 -2.7243  2.0096
 5634TIP3    H238462   2.042   5.023   1.484  0.4014  1.3124 -1.6723
 5635TIP3   OH238463   5.544   6.474   0.521  0.0702  0.3047 -0.5256
 5635TIP3    H138464   5.521   6.519   0.439 -0.8994 -0.3811 -0.6469
 5635TIP3    H238465   5.505   6.388   0.512 -0.0431  0.2275  0.6749
 5636TIP3   OH238466   2.802   5.297   7.844 -0.5734 -0.5803  0.1572
 5636TIP3    H138467   2.816   5.298   7.939 -1.3600 -0.8877  0.2904
 5636TIP3    H238468   2.718   5.252   7.834 -0.8992  0.1990 -0.6374
 5637TIP3   OH238469   4.719   2.642   8.344  0.3394 -0.1574  0.1973
 5637TIP3    H138470   4.673   2.686   8.273  0.8812  0.1533  0.0349
 5637TIP3    H238471   4.741   2.556   8.309  0.1940 -0.1784  0.1555
 5638TIP3   OH238472   1.151   0.923   1.880 -0.2752 -0.0253 -0.2838
 5638TIP3    H138473   1.171   0.998   1.936 -0.2847 -1.0872  1.1704
 5638TIP3    H238474   1.236   0.897   1.844 -0.5219  2.1507 -2.8459
 5639TIP3   OH238475   2.044   0.337   7.335 -0.0973  0.4754  0.3787
 5639TIP3    H138476   2.078   0.381   7.413  1.4116  0.0224  0.0057
 5639TIP3    H238477   2.007   0.256   7.368 -1.8914  1.4715  0.9314
 5640TIP3   OH238478   3.550   4.914   1.328 -0.2771 -0.4020  0.4381
 5640TIP3    H138479   3.462   4.949   1.322 -0.5617 -1.2532 -0.8416
 5640TIP3    H238480   3.539   4.819   1.325  0.6804 -0.5253  0.2293
 5641TIP3   OH238481   5.422   6.030   1.975 -0.0846 -0.0623 -0.3111
 5641TIP3    H138482   5.419   6.000   2.066 -1.3360  0.8650 -0.0205
 5641TIP3    H238483   5.365   6.106   1.973 -0.4386 -0.3327 -1.9870
 5642TIP3   OH238484   1.809   0.294   8.430  0.2537 -0.0966 -0.4436
 5642TIP3    H138485   1.849   0.335   8.353 -0.6313  0.2481 -0.7352
 5642TIP3    H238486   1.720   0.329   8.432  0.2196 -0.2297  0.6573
 5643TIP3   OH238487   4.331   5.896   0.648 -0.6310  0.0881  0.3467
 5643TIP3    H138488   4.317   5.977   0.697 -0.5231  1.6159 -1.9687
 5643TIP3    H238489   4.409   5.857   0.688  0.1333  1.8587  0.6865
 5644TIP3   OH238490   4.772   2.179   7.467 -0.1856  0.3970  0.6678
 5644TIP3    H138491   4.828   2.103   7.485 -1.0773  0.0659  2.1816
 5644TIP3    H238492   4.732   2.200   7.551 -2.0426  0.8738 -0.2761
 5645TIP3   OH238493   5.157   6.539   0.694  0.6694 -0.3746 -0.1596
 5645TIP3    H138494   5.178   6.598   0.621 -0.6644 -0.4182 -0.6068
 5645TIP3    H238495   5.230   6.549   0.755  0.7274  1.3501 -0.4591
 5646TIP3   OH238496   0.260   4.750   7.343 -0.0309  0.0552 -0.0261
 5646TIP3    H138497   0.312   4.769   7.421 -0.2415 -1.2149  0.4489
 5646TIP3    H238498   0.234   4.836   7.309 -0.7503  0.6203  1.8449
 5647TIP3   OH238499   4.826   3.711   8.494  0.0027  0.2178  0.9616
 5647TIP3    H138500   4.895   3.651   8.524  1.1779  0.9818 -0.0753
 5647TIP3    H238501   4.769   3.657   8.440  0.5369 -0.1808  0.7833
 5648TIP3   OH238502   6.206   1.500   8.406  0.1184  0.7497  0.0182
 5648TIP3    H138503   6.259   1.574   8.436  0.9374 -0.1413  0.8590
 5648TIP3    H238504   6.130   1.500   8.464  0.5770  0.3991  0.6389
 5649TIP3   OH238505   4.157   3.893   7.415  0.5753 -0.0227 -0.4128
 5649TIP3    H138506   4.112   3.808   7.420 -0.2712  0.3877 -0.7780
 5649TIP3    H238507   4.134   3.926   7.328 -0.4082  1.2808  0.3148
 5650TIP3   OH238508   1.663   1.705   8.435 -0.1365 -0.1835  0.2064
 5650TIP3    H138509   1.702   1.699   8.348 -0.0042 -0.0152  0.2551
 5650TIP3    H238510   1.574   1.737   8.419  0.0985  0.4712  0.1835
 5651TIP3   OH238511   1.697   5.346   8.045  0.0375 -0.0280  0.0632
 5651TIP3    H138512   1.691   5.313   8.135 -0.8965 -0.1886 -0.0426
 5651TIP3    H238513   1.782   5.389   8.041 -0.6259  1.5357  1.5614
 5652TIP3   OH238514   0.297   0.157   7.500  0.4121 -0.0029  0.3675
 5652TIP3    H138515   0.224   0.210   7.468  0.6610  1.2617  1.7906
 5652TIP3    H238516   0.258   0.071   7.516 -0.4141  0.2321 -0.2755
 5653TIP3   OH238517   5.431   1.544   8.701  0.0766  0.0643  0.7035
 5653TIP3    H138518   5.348   1.515   8.739 -0.7661  0.6707 -0.5857
 5653TIP3    H238519   5.415   1.635   8.675  0.2179 -0.5845 -1.9666
 5654TIP3   OH238520   2.389   1.930   8.113 -0.7025 -0.3615  0.1139
 5654TIP3    H138521   2.398   2.012   8.161  1.9258 -0.6907  0.3049
 5654TIP3    H238522   2.299   1.902   8.131 -1.4239  2.0884  0.6156
 5655TIP3   OH238523   5.796   1.756   0.456 -0.0979 -0.1354  0.3684
 5655TIP3    H138524   5.854   1.701   0.403 -1.9044 -0.0255 -1.8646
 5655TIP3    H238525   5.711   1.712   0.453 -0.7637  1.0012  1.4344
 5656TIP3   OH238526   2.728   2.944   7.363 -0.0955 -0.8011 -0.4485
 5656TIP3    H138527   2.761   3.007   7.300  2.2176 -1.5502 -0.0548
 5656TIP3    H238528   2.651   2.905   7.319 -1.2523  1.7988 -0.9105
 5657TIP3   OH238529   5.954   2.079   2.848  0.1477  0.5919  0.6149
 5657TIP3    H138530   5.975   2.023   2.773  1.0081  2.0069 -0.2662
 5657TIP3    H238531   5.859   2.083   2.850 -0.0944 -2.7828  2.2124
 5658TIP3   OH238532   2.291   4.540   8.528  0.4534 -0.4136  0.0998
 5658TIP3    H138533   2.245   4.616   8.493 -1.5986 -1.7708 -0.3139
 5658TIP3    H238534   2.238   4.511   8.602  0.4635 -2.1402 -0.5111
 5659TIP3   OH238535   1.405   6.476   0.464  0.2906  0.0960  0.0444
 5659TIP3    H138536   1.352   6.458   0.386 -1.0601  2.3450  0.3795
 5659TIP3    H238537   1.456   6.554   0.443  2.5662 -1.2153  0.2422
 5660TIP3   OH238538   2.887   5.439   0.755  0.3000 -0.5343  0.3317
 5660TIP3    H138539   2.826   5.366   0.760 -1.1143  0.6454  1.1692
 5660TIP3    H238540   2.852   5.504   0.816  1.8181  0.6250  0.0392
 5661TIP3   OH238541   5.029   3.838   8.725 -0.2606  0.4249  0.2253
 5661TIP3    H138542   4.990   3.842   8.638 -1.6823  0.3400  0.8306
 5661TIP3    H238543   5.111   3.790   8.712  0.1984  1.5093 -1.2619
 5662TIP3   OH238544   2.726   3.425   1.059 -0.1334  0.4664 -0.1560
 5662TIP3    H138545   2.668   3.469   0.997 -1.8353 -1.4505 -0.0444
 5662TIP3    H238546   2.677   3.347   1.086  1.9690 -0.5465  0.9924
 5663TIP3   OH238547   1.707   4.493   8.414 -0.4927  0.1003  0.1385
 5663TIP3    H138548   1.747   4.527   8.334 -0.2901  0.5563  0.4292
 5663TIP3    H238549   1.712   4.565   8.476  0.1812 -0.5332  0.8537
 5664TIP3   OH238550   1.969   0.054   1.235 -0.1466  0.3900 -0.2850
 5664TIP3    H138551   1.964  -0.037   1.264  0.2745  0.5486  0.3057
 5664TIP3    H238552   1.884   0.070   1.194  0.0063 -0.4449 -0.9451
 5665TIP3   OH238553   6.609   6.598   7.417 -0.4161 -0.3469  0.9932
 5665TIP3    H138554   6.603   6.591   7.322 -1.5186 -1.6753  1.1364
 5665TIP3    H238555   6.670   6.528   7.442 -0.2297 -0.0861  1.2719
 5666TIP3   OH238556   3.265   1.370   8.719 -0.6274  0.3465 -0.1841
 5666TIP3    H138557   3.253   1.411   8.633  0.3787 -0.4113 -0.7174
 5666TIP3    H238558   3.262   1.442   8.781  1.2255  1.3031 -1.1038
 5667TIP3   OH238559   3.904   4.656   8.095  0.0410 -0.5623 -0.4388
 5667TIP3    H138560   3.990   4.691   8.069 -0.0176 -0.1657 -0.1109
 5667TIP3    H238561   3.924   4.574   8.139  0.2829 -0.2770 -0.0107
 5668TIP3   OH238562   2.021   0.356   8.606  0.6552 -0.5294  0.7313
 5668TIP3    H138563   2.013   0.450   8.619  1.2221 -0.3745  0.0287
 5668TIP3    H238564   1.942   0.332   8.557  1.4532 -0.0415 -0.8997
 5669TIP3   OH238565   2.882   4.442   0.211  0.5285  0.0620  0.0244
 5669TIP3    H138566   2.862   4.431   0.305 -0.4550 -3.5180 -0.4380
 5669TIP3    H238567   2.797   4.448   0.169  0.8586 -0.7587 -0.8018
 5670TIP3   OH238568   5.089   6.735   8.119 -0.0201  0.0777  0.1092
 5670TIP3    H138569   5.172   6.714   8.160 -0.1746 -1.1749 -0.1608
 5670TIP3    H238570   5.056   6.811   8.166  0.1126 -0.9166  1.8745
 5671TIP3   OH238571   2.013   5.595   1.102  0.3898 -0.3414 -0.3164
 5671TIP3    H138572   2.075   5.523   1.117 -1.1557 -1.9902 -1.3932
 5671TIP3    H238573   2.005   5.599   1.006 -2.5436 -1.5246 -0.2269
 5672TIP3   OH238574   0.492   0.074   8.149  0.7611 -0.0166 -0.7631
 5672TIP3    H138575   0.399   0.056   8.139  0.9750 -0.5095 -2.2900
 5672TIP3    H238576   0.497   0.156   8.197 -0.3974 -0.9613  1.0627
 5673TIP3   OH238577   0.468   3.596   7.863 -0.2306 -0.2201 -0.3331
 5673TIP3    H138578   0.527   3.556   7.799  0.4367  0.4210 -0.1302
 5673TIP3    H238579   0.424   3.666   7.814  1.4615  1.3384  0.2850
 5674TIP3   OH238580   3.516   1.060   7.615 -0.0258 -0.1251  0.4529
 5674TIP3    H138581   3.459   1.022   7.682 -0.3753 -1.6023 -0.6226
 5674TIP3    H238582   3.479   1.146   7.597 -0.9963 -0.4415  0.8764
 5675TIP3   OH238583   5.709   2.597   0.637 -0.5800 -0.0818  0.0818
 5675TIP3    H138584   5.796   2.559   0.622 -0.9858 -0.8129 -0.5021
 5675TIP3    H238585   5.680   2.558   0.719 -0.3013  0.2731  0.3513
 5676TIP3   OH238586   2.212   5.915   8.733  0.0780 -0.1305 -0.0994
 5676TIP3    H138587   2.134   5.909   8.678  2.1742 -0.8677 -3.2593
 5676TIP3    H238588   2.246   6.003   8.715 -0.0686  0.2561  1.4068
 5677TIP3   OH238589   0.964   0.367   7.301  0.6316  0.1241 -0.0210
 5677TIP3    H138590   1.059   0.374   7.316  0.5826 -0.4593  0.5885
 5677TIP3    H238591   0.956   0.364   7.205  1.2215  0.2095 -0.0810
 5678TIP3   OH238592   0.070   3.707   8.138  0.4601  0.3106  0.1302
 5678TIP3    H138593   0.040   3.672   8.222  0.8647 -1.2891 -0.3601
 5678TIP3    H238594  -0.007   3.747   8.099  0.2103  0.8570  1.1460
 5679TIP3   OH238595   1.268   6.521   7.766  0.0577  0.9811 -0.4567
 5679TIP3    H138596   1.251   6.615   7.771  1.0730  1.1263  0.9633
 5679TIP3    H238597   1.352   6.514   7.720  0.2302  0.8160 -0.1240
 5680TIP3   OH238598   2.902   3.722   1.662 -0.3136 -0.0297  0.8952
 5680TIP3    H138599   2.831   3.711   1.599 -0.6489 -0.1596  1.2909
 5680TIP3    H238600   2.930   3.813   1.651 -0.5845  0.0410  0.7821
 5681TIP3   OH238601   0.545   1.953   8.001 -0.7510  0.0859  0.0487
 5681TIP3    H138602   0.495   1.912   8.071  0.1504 -1.9869 -0.4397
 5681TIP3    H238603   0.622   1.989   8.044 -1.5895  1.3992  0.4971
 5682TIP3   OH238604   6.658   1.593   1.952  0.2648  0.5115 -0.3353
 5682TIP3    H138605   6.563   1.588   1.960  0.2971  1.7643  1.5240
 5682TIP3    H238606   6.674   1.676   1.907  0.4900 -0.8593 -3.0234
 5683TIP3   OH238607   2.773   4.147   6.344  0.4774  0.5454  0.5361
 5683TIP3    H138608   2.683   4.162   6.372  0.2633  2.2881 -0.9409
 5683TIP3    H238609   2.822   4.138   6.426 -1.0225 -0.6787  1.3726
 5684TIP3   OH238610   1.879   1.434   1.039 -0.0975  0.1704  0.4304
 5684TIP3    H138611   1.945   1.479   1.093 -1.1134  0.3756  1.5379
 5684TIP3    H238612   1.878   1.344   1.073  0.1621 -0.0462 -0.1197
 5685TIP3   OH238613   5.566   4.643   0.898 -0.2364 -0.1517  0.1572
 5685TIP3    H138614   5.544   4.657   0.806 -0.8225 -0.3758  0.2631
 5685TIP3    H238615   5.533   4.555   0.918  1.2527 -0.7419  0.1644
 5686TIP3   OH238616   0.087   1.622   0.973  0.3422  0.2952 -0.0524
 5686TIP3    H138617   0.022   1.593   0.908 -0.4561 -1.2250  1.3634
 5686TIP3    H238618   0.142   1.684   0.925 -0.2033 -0.7640 -2.1899
 5687TIP3   OH238619   1.508   3.332   0.867  0.9080 -0.3687  0.0450
 5687TIP3    H138620   1.540   3.387   0.795 -1.4020  1.2366  0.1095
 5687TIP3    H238621   1.435   3.283   0.829 -1.7283  2.0436  1.6189
 5688TIP3   OH238622   3.916   5.236   0.707  0.0796 -0.3556 -0.5573
 5688TIP3    H138623   3.850   5.180   0.748 -0.2837  0.1325 -0.4694
 5688TIP3    H238624   3.969   5.268   0.781 -0.5769  0.5264 -0.4519
 5689TIP3   OH238625   1.868   3.915   6.551 -0.6131 -0.9829 -0.5643
 5689TIP3    H138626   1.823   3.887   6.471  2.2033 -2.9006 -1.6271
 5689TIP3    H238627   1.862   3.839   6.609  2.5650 -2.0382 -1.4235
 5690TIP3   OH238628   0.847   5.907   1.635  0.1308 -0.0751 -0.2065
 5690TIP3    H138629   0.842   6.002   1.646  0.4377  0.0593 -1.1201
 5690TIP3    H238630   0.939   5.887   1.651 -0.2685 -0.4876  1.8058
 5691TIP3   OH238631   2.702   3.399   6.183 -0.2014 -0.5113 -0.1238
 5691TIP3    H138632   2.647   3.328   6.151 -0.0050 -1.2823  1.1651
 5691TIP3    H238633   2.730   3.446   6.104 -2.8340  0.0506 -0.8489
 5692TIP3   OH238634   0.030   4.162   6.334  0.0106  0.0943  0.1235
 5692TIP3    H138635   0.069   4.105   6.269 -0.2600  1.3704 -1.1994
 5692TIP3    H238636   0.092   4.234   6.344 -1.7116  1.9896 -1.7782
 5693TIP3   OH238637   3.673   5.672   7.272 -0.3598  0.5133 -0.1700
 5693TIP3    H138638   3.737   5.729   7.315 -0.0338  0.3753 -0.4757
 5693TIP3    H238639   3.619   5.731   7.219 -0.5923  0.6494  0.2104
 5694TIP3   OH238640   2.237   2.884   1.223  0.7853  0.0298  0.1109
 5694TIP3    H138641   2.142   2.896   1.219  1.0232  1.8382 -1.6082
 5694TIP3    H238642   2.265   2.935   1.300  0.4763  0.3463  0.0122
 5695TIP3   OH238643   0.887   1.399   1.302  0.1844 -0.9406  0.2982
 5695TIP3    H138644   0.950   1.423   1.370  0.8841  0.5387 -0.8035
 5695TIP3    H238645   0.889   1.304   1.300  2.9516 -0.9694 -0.1144
 5696TIP3   OH238646   2.348   5.055   2.251 -0.0227  0.0294  0.0244
 5696TIP3    H138647   2.383   5.049   2.162 -0.1361  0.5040 -0.0583
 5696TIP3    H238648   2.360   4.968   2.288 -0.5814 -0.3524 -0.6812
 5697TIP3   OH238649   2.310   3.920   0.223  0.3252  0.2411 -0.0995
 5697TIP3    H138650   2.317   3.838   0.173  0.6765  0.2557 -0.0706
 5697TIP3    H238651   2.245   3.901   0.291 -1.4923  0.7231 -1.5808
 5698TIP3   OH238652   6.128   4.413   6.428 -0.1347 -0.0794  0.3152
 5698TIP3    H138653   6.077   4.401   6.348 -1.1759 -0.5677  1.0330
 5698TIP3    H238654   6.209   4.366   6.412 -0.6594 -0.8409 -0.1637
 5699TIP3   OH238655   6.106   2.423   0.887 -0.2042 -0.0115 -0.1473
 5699TIP3    H138656   6.195   2.448   0.863 -0.4172  2.5784  1.3224
 5699TIP3    H238657   6.110   2.329   0.903  2.7872  0.3268  1.8979
 5700TIP3   OH238658   1.833   3.425   0.870 -0.5961  0.1605 -0.1694
 5700TIP3    H138659   1.794   3.340   0.849  1.3926 -0.8768  0.0934
 5700TIP3    H238660   1.918   3.404   0.908 -0.8264  2.2230  1.7087
 5701TIP3   OH238661   1.744   6.059   8.082  0.1017  0.0023  0.6189
 5701TIP3    H138662   1.790   5.982   8.047  1.2572  0.4006  1.2139
 5701TIP3    H238663   1.713   6.105   8.004  0.6392 -0.3325  0.1939
 5702TIP3   OH238664   2.850   4.223   1.116  0.0400  0.0094  0.7253
 5702TIP3    H138665   2.766   4.196   1.078 -0.5563  1.2770  1.0664
 5702TIP3    H238666   2.860   4.315   1.089  1.0893  0.0152  1.0918
 5703TIP3   OH238667   5.134   2.177   1.259 -0.2864 -0.4020 -0.4318
 5703TIP3    H138668   5.138   2.257   1.206 -0.6164  0.8891  1.4035
 5703TIP3    H238669   5.154   2.206   1.348 -1.3177 -2.2077  0.4414
 5704TIP3   OH238670   1.143   0.363   6.620  0.3048 -0.2573  0.2879
 5704TIP3    H138671   1.096   0.341   6.700  0.9268 -0.3635  0.6333
 5704TIP3    H238672   1.170   0.279   6.583  0.0574 -0.2071 -0.0195
 5705TIP3   OH238673   6.406   2.721   7.337 -0.3151  0.0877  0.2013
 5705TIP3    H138674   6.335   2.669   7.374 -0.3722 -0.2969 -0.4348
 5705TIP3    H238675   6.467   2.656   7.300 -0.0074  0.4416  0.0770
 5706TIP3   OH238676   6.723   5.036   6.910 -0.5142  0.2302  0.0454
 5706TIP3    H138677   6.727   5.120   6.955  0.1021  1.2185 -1.7453
 5706TIP3    H238678   6.678   5.056   6.827  0.2678 -1.0539 -0.7168
 5707TIP3   OH238679   1.922   6.706   0.119  0.0295  0.1526  0.2930
 5707TIP3    H138680   1.867   6.639   0.079 -2.1412  0.3517  2.6958
 5707TIP3    H238681   1.931   6.773   0.051  1.3018 -1.9748 -1.7542
 5708TIP3   OH238682   2.195   4.206   6.582  0.2170 -0.2743 -0.1013
 5708TIP3    H138683   2.182   4.220   6.676 -0.7646 -0.4557 -0.2004
 5708TIP3    H238684   2.281   4.164   6.576  0.3418 -0.1594  0.7035
 5709TIP3   OH238685   2.297   4.537   0.438 -0.7663 -0.1019  0.4328
 5709TIP3    H138686   2.339   4.555   0.522 -2.0600 -3.2347  1.8849
 5709TIP3    H238687   2.368   4.504   0.382 -0.3925 -0.6984  1.2387
 5710TIP3   OH238688   1.796   2.586   0.721  0.4605 -0.0936  0.2515
 5710TIP3    H138689   1.788   2.673   0.759  1.2066  0.7430 -1.3700
 5710TIP3    H238690   1.706   2.556   0.711  0.2097  0.2707  1.2757
 5711TIP3   OH238691   3.322   5.038   8.809  0.2909 -0.5072 -0.0108
 5711TIP3    H138692   3.388   4.986   8.764  2.8231  0.6359  2.1290
 5711TIP3    H238693   3.360   5.125   8.815 -1.7554  0.4033  0.6821
 5712TIP3   OH238694   6.650   5.821   1.418  0.4410  0.5878 -0.1025
 5712TIP3    H138695   6.569   5.836   1.467  0.2729  0.8840 -0.4718
 5712TIP3    H238696   6.626   5.832   1.326  0.6371 -0.5148 -0.2945
 5713TIP3   OH238697   6.669   2.068   1.317 -0.1193  0.0136  0.1531
 5713TIP3    H138698   6.626   2.101   1.237  2.6176 -0.3843 -1.6296
 5713TIP3    H238699   6.680   1.975   1.301  1.4216  0.1168  0.4830
 5714TIP3   OH238700   5.590   3.680   8.046 -0.1779  0.6538 -0.1954
 5714TIP3    H138701   5.603   3.722   8.131 -1.1034  1.8766 -0.6195
 5714TIP3    H238702   5.611   3.588   8.060  0.3212  0.9624  1.1839
 5715TIP3   OH238703   2.430   5.425   7.878 -0.0007 -0.0929 -0.0060
 5715TIP3    H138704   2.361   5.378   7.925  0.5202 -0.4125  0.4660
 5715TIP3    H238705   2.436   5.383   7.793 -1.8237  1.3053 -0.8793
 5716TIP3   OH238706   1.544   5.725   7.973 -0.0163 -0.2875  0.5853
 5716TIP3    H138707   1.542   5.634   7.944  0.9916 -0.6617  1.5935
 5716TIP3    H238708   1.543   5.776   7.893 -0.7988 -1.1734  0.0075
 5717TIP3   OH238709   3.382   3.570   6.884 -0.2239 -0.8487 -0.1938
 5717TIP3    H138710   3.387   3.487   6.931  0.4143 -1.1318 -0.7491
 5717TIP3    H238711   3.425   3.553   6.801 -2.3012 -0.6696 -1.3782
 5718TIP3   OH238712   6.015   3.678   6.956 -0.1468 -0.1781 -0.9148
 5718TIP3    H138713   5.930   3.666   6.998  0.7995  1.0698  1.5292
 5718TIP3    H238714   6.002   3.645   6.867 -2.2175 -3.2790  0.3333
 5719TIP3   OH238715   0.612   0.827   8.306 -0.9816 -0.2256 -0.0636
 5719TIP3    H138716   0.608   0.756   8.241 -1.4240 -0.6399  0.4098
 5719TIP3    H238717   0.520   0.845   8.327 -0.9236  1.0247 -0.7485
 5720TIP3   OH238718   3.866   1.663   0.731  0.2197 -0.6475  0.6247
 5720TIP3    H138719   3.827   1.576   0.739  0.0474 -0.4355  2.6654
 5720TIP3    H238720   3.812   1.708   0.666 -1.7195 -1.0371  1.8784
 5721TIP3   OH238721   4.718   3.354   7.657 -1.2709 -0.8340  0.7042
 5721TIP3    H138722   4.658   3.362   7.732 -2.1885  1.0294 -0.1665
 5721TIP3    H238723   4.699   3.431   7.603  1.8333 -0.2405  0.3103
 5722TIP3   OH238724   1.924   4.021   2.227 -0.1124 -0.3123 -0.2805
 5722TIP3    H138725   1.833   4.030   2.254  0.3824 -1.6688  2.0752
 5722TIP3    H238726   1.954   4.111   2.213 -1.4391  0.2188  0.1785
 5723TIP3   OH238727   2.312   0.688   7.074  0.3187 -0.1624 -0.2654
 5723TIP3    H138728   2.358   0.758   7.027  1.1801 -0.2648  0.3902
 5723TIP3    H238729   2.293   0.622   7.006 -0.2075  0.5472 -0.8240
 5724TIP3   OH238730   0.541   3.973   7.687  0.0703  0.3325 -0.5587
 5724TIP3    H138731   0.545   3.991   7.593 -0.1692 -2.2980 -1.1350
 5724TIP3    H238732   0.517   4.057   7.726  2.2982  2.0813 -2.5892
 5725TIP3   OH238733   1.546   1.740   0.555  0.3347 -0.0769  0.6055
 5725TIP3    H138734   1.491   1.689   0.495 -0.5322  0.6433  0.7661
 5725TIP3    H238735   1.620   1.682   0.575 -0.2696 -0.9970  0.2382
 5726TIP3   OH238736   0.764   3.075   0.859  0.3409  0.4834  0.0379
 5726TIP3    H138737   0.810   3.157   0.872  0.8033  0.2201  0.0818
 5726TIP3    H238738   0.680   3.100   0.820 -0.0678  1.0922  1.2287
 5727TIP3   OH238739   2.147   2.003   7.067  0.5591  0.0028  0.1736
 5727TIP3    H138740   2.189   1.927   7.110 -0.4731 -1.7039 -1.6637
 5727TIP3    H238741   2.102   2.048   7.138  0.8398 -1.3585  1.2769
 5728TIP3   OH238742   3.848   0.810   1.565 -0.4136 -0.6751  0.6735
 5728TIP3    H138743   3.809   0.725   1.545 -1.8859  0.4393 -1.5243
 5728TIP3    H238744   3.790   0.874   1.524  1.5173  1.3178  0.8470
 5729TIP3   OH238745   2.891   1.283   0.401 -0.9370 -0.0524 -0.0171
 5729TIP3    H138746   2.846   1.265   0.484  0.3942  1.0659  0.9857
 5729TIP3    H238747   2.834   1.346   0.356 -0.6603  0.9817  1.0287
 5730TIP3   OH238748   0.326   1.764   0.188 -0.7086  0.8663 -0.1434
 5730TIP3    H138749   0.299   1.773   0.096 -0.2520 -2.0618 -0.6652
 5730TIP3    H238750   0.418   1.790   0.188 -0.8497  1.3896 -0.3929
 5731TIP3   OH238751   0.277   6.237   8.817  0.3790  0.0378 -0.1316
 5731TIP3    H138752   0.342   6.235   8.747 -0.7387  1.9504 -1.3211
 5731TIP3    H238753   0.266   6.330   8.837 -0.8961 -0.3383  1.0949
 5732TIP3   OH238754   4.596   0.983   0.013  0.3289  0.0125  0.1849
 5732TIP3    H138755   4.671   0.924   0.005  2.1867  2.1357  0.7732
 5732TIP3    H238756   4.569   0.975   0.105  0.9782  0.4897  0.4260
 5733TIP3   OH238757   2.995   4.751   0.224 -0.2247 -0.3328  0.3154
 5733TIP3    H138758   2.977   4.657   0.211  0.8700 -0.4955 -0.1669
 5733TIP3    H238759   2.932   4.796   0.168 -1.1118 -0.7541  0.9528
 5734TIP3   OH238760   4.727   0.978   1.011 -0.2293 -0.0618  0.3821
 5734TIP3    H138761   4.752   1.070   1.004  0.5860 -0.3945 -2.2050
 5734TIP3    H238762   4.641   0.972   0.970 -0.5318 -0.4010  1.0321
 5735TIP3   OH238763   6.487   1.219   8.184  0.4259 -0.6509 -0.2243
 5735TIP3    H138764   6.426   1.258   8.121  0.8083  1.3769  0.5767
 5735TIP3    H238765   6.574   1.242   8.150  0.6379  0.7883  1.1584
 5736TIP3   OH238766   0.493   2.894   6.909 -0.3709 -0.1850  0.2353
 5736TIP3    H138767   0.534   2.867   6.827  2.6427  1.8925  0.8731
 5736TIP3    H238768   0.400   2.900   6.889  0.0738 -1.1847 -2.5900
 5737TIP3   OH238769   2.849   2.469   2.245 -0.0173  1.0118 -0.6410
 5737TIP3    H138770   2.794   2.452   2.169 -0.1024  2.8954 -1.0548
 5737TIP3    H238771   2.938   2.473   2.209  0.3564 -1.1584 -0.1096
 5738TIP3   OH238772   1.806   4.948   0.016  0.2730  0.3911  1.0961
 5738TIP3    H138773   1.816   5.002   0.094  2.5397  0.7032  0.6509
 5738TIP3    H238774   1.732   4.987  -0.030  0.3541  1.6335  1.9677
 5739TIP3   OH238775   6.758   2.087   7.008 -0.6277 -0.2097 -0.6537
 5739TIP3    H138776   6.843   2.125   7.031 -0.9439  0.9703 -1.3163
 5739TIP3    H238777   6.777   1.995   6.988  0.2353 -0.3349  0.6400
 5740TIP3   OH238778   4.553   2.075   1.504  0.0586 -0.6911 -0.1990
 5740TIP3    H138779   4.625   2.017   1.479  0.9049 -0.8265  2.3000
 5740TIP3    H238780   4.515   2.034   1.582 -0.7262  0.9916  0.3558
 5741TIP3   OH238781   5.715   3.383   8.618 -0.0586  0.3032  1.0359
 5741TIP3    H138782   5.708   3.406   8.711  2.8478  0.7440  1.2401
 5741TIP3    H238783   5.752   3.295   8.617 -1.5668 -0.3504  0.2533
 5742TIP3   OH238784   3.622   6.125   8.041 -0.0143  0.3797  0.5196
 5742TIP3    H138785   3.690   6.187   8.067 -0.7853  1.2850  0.4585
 5742TIP3    H238786   3.544   6.179   8.030 -0.7351 -0.6237  0.5446
 5743TIP3   OH238787   1.264   5.801   1.258  0.1232 -0.2780 -0.5041
 5743TIP3    H138788   1.319   5.876   1.278  0.6786 -0.9266  0.5200
 5743TIP3    H238789   1.276   5.786   1.164  0.7581  0.3191 -0.5239
 5744TIP3   OH238790   0.703   5.674   0.854  0.3078  0.5263 -0.5990
 5744TIP3    H138791   0.764   5.616   0.809  2.0579  1.6969  0.1838
 5744TIP3    H238792   0.745   5.760   0.852 -0.0295  0.8546  2.2956
 5745TIP3   OH238793   0.074   5.026   0.457  0.6242  0.6640  0.2882
 5745TIP3    H138794  -0.019   5.016   0.476 -0.2970  0.6598 -3.4924
 5745TIP3    H238795   0.118   4.981   0.529 -2.1994  1.3620  2.6314
 5746TIP3   OH238796   1.253   6.646   8.602 -0.2151  0.2334  0.5292
 5746TIP3    H138797   1.162   6.617   8.592  0.0997 -0.8260  0.6348
 5746TIP3    H238798   1.287   6.648   8.512  0.2057 -1.2554  0.6320
 5747TIP3   OH238799   1.984   0.900   0.678 -0.4211 -0.0912 -0.4022
 5747TIP3    H138800   1.984   0.947   0.595  1.5722  1.5156  0.4002
 5747TIP3    H238801   2.075   0.872   0.689 -0.9131 -1.3764  0.6763
 5748TIP3   OH238802   6.355   0.219   0.904 -0.5380  0.1524  0.5428
 5748TIP3    H138803   6.303   0.200   0.826  1.5281 -0.2304 -0.8211
 5748TIP3    H238804   6.395   0.135   0.927  0.3384  0.6581  0.8910
 5749TIP3   OH238805   1.170   6.716   7.200 -0.0595 -0.0855 -0.0174
 5749TIP3    H138806   1.163   6.770   7.121 -1.9592 -0.8383 -0.4265
 5749TIP3    H238807   1.178   6.626   7.167  0.9175 -0.2642  0.6612
 5750TIP3   OH238808   0.980   5.387   6.934  0.3610 -0.3231 -0.3615
 5750TIP3    H138809   1.033   5.311   6.907 -0.4875 -0.4814 -1.6672
 5750TIP3    H238810   0.946   5.423   6.852  0.4258  1.2542  0.2673
 5751TIP3   OH238811   4.761   5.975   6.590  0.4352 -0.1715 -0.3547
 5751TIP3    H138812   4.783   6.064   6.617  2.8160 -0.7409 -0.1892
 5751TIP3    H238813   4.772   5.923   6.670 -0.0386 -0.7431 -0.6571
 5752TIP3   OH238814   3.180   1.149   0.079 -0.3970 -0.3522  0.3057
 5752TIP3    H138815   3.202   1.233   0.040  0.5225 -0.5508  0.3581
 5752TIP3    H238816   3.265   1.111   0.103 -0.8291 -1.0543  0.7735
 5753TIP3   OH238817   1.789   5.790   8.081  0.0548  0.5649  0.4397
 5753TIP3    H138818   1.699   5.768   8.057 -0.2548  0.1206  1.9339
 5753TIP3    H238819   1.826   5.708   8.114  1.0322  0.7326 -0.1848
 5754TIP3   OH238820   6.096   5.938   0.817  0.3228 -0.4210  0.0236
 5754TIP3    H138821   6.174   5.884   0.807  0.9090  0.7214 -2.9274
 5754TIP3    H238822   6.027   5.890   0.771  0.3990  0.4041 -1.0161
 5755TIP3   OH238823   1.141   5.347   1.513  0.2637 -0.0618 -0.1156
 5755TIP3    H138824   1.220   5.304   1.481 -0.5667 -1.5113 -0.3141
 5755TIP3    H238825   1.083   5.275   1.537 -1.7201  0.9012 -1.7183
 5756TIP3   OH238826   1.469   1.620   7.843 -0.3024  0.0549 -0.0104
 5756TIP3    H138827   1.491   1.654   7.930  0.7887  1.1825 -0.6945
 5756TIP3    H238828   1.378   1.647   7.829  0.3474  2.3181 -0.2996
 5757TIP3   OH238829   3.359   0.917   7.792 -0.0792  0.0279 -0.6541
 5757TIP3    H138830   3.354   0.984   7.860  0.1473 -0.8162  0.2076
 5757TIP3    H238831   3.296   0.946   7.725 -0.7286  0.5645  0.1778
 5758TIP3   OH238832   4.045   4.543   0.847  0.2281 -0.4418 -0.0821
 5758TIP3    H138833   4.023   4.620   0.795 -0.4802  0.2963  1.2403
 5758TIP3    H238834   4.012   4.564   0.935 -0.2462 -2.3681  0.2486
 5759TIP3   OH238835   3.590   5.818   8.679  0.3998 -0.3706  0.0406
 5759TIP3    H138836   3.655   5.798   8.611 -0.0607  1.3865 -0.9855
 5759TIP3    H238837   3.602   5.911   8.697 -0.5369 -0.4612  1.2488
 5760TIP3   OH238838   4.921   0.810   1.920  0.7794 -0.6729 -0.5822
 5760TIP3    H138839   4.907   0.726   1.964 -1.6719 -0.9737 -1.7288
 5760TIP3    H238840   4.959   0.786   1.835 -1.3812 -0.8781 -1.5686
 5761TIP3   OH238841   4.285   6.187   2.294 -0.6275  0.2506 -0.3165
 5761TIP3    H138842   4.340   6.109   2.285  0.3032  1.0782 -2.5533
 5761TIP3    H238843   4.259   6.188   2.386  0.2859 -2.0427  0.0331
 5762TIP3   OH238844   4.174   3.967   0.799  0.0355  0.4800  0.0967
 5762TIP3    H138845   4.247   3.911   0.773  0.9005  0.8763  1.5192
 5762TIP3    H238846   4.160   3.946   0.892 -1.9805  0.0970 -0.2445
 5763TIP3   OH238847   3.961   4.895   0.585 -0.3816 -0.0309 -0.0032
 5763TIP3    H138848   3.939   4.817   0.534 -1.1108 -0.5269  1.0404
 5763TIP3    H238849   3.890   4.956   0.568 -0.1516  0.1632 -0.2901
 5764TIP3   OH238850   3.064   2.107   8.101 -0.2335 -0.5645 -0.4556
 5764TIP3    H138851   3.083   2.083   8.010  0.2569 -1.5218 -0.1143
 5764TIP3    H238852   3.050   2.201   8.098  0.9811 -0.3763 -1.3379
 5765TIP3   OH238853   2.335   6.468   0.830  0.6120  0.4313  0.0097
 5765TIP3    H138854   2.405   6.491   0.891  0.5151  0.8282 -0.0235
 5765TIP3    H238855   2.262   6.524   0.856 -0.2181 -1.0623  1.0426
 5766TIP3   OH238856   0.766   1.296   6.365 -0.3083 -0.1759 -0.1185
 5766TIP3    H138857   0.852   1.263   6.338  0.6300  1.0283  1.1941
 5766TIP3    H238858   0.776   1.391   6.360 -0.3211  0.1190  3.4226
 5767TIP3   OH238859   4.003   2.021   7.297  0.3378  0.1120  1.0963
 5767TIP3    H138860   3.957   2.075   7.232  1.3285 -1.1086 -0.6991
 5767TIP3    H238861   3.982   2.062   7.381 -1.6934  1.2519  0.1050
 5768TIP3   OH238862   2.968   0.654   7.575  0.9866  0.6451  0.0351
 5768TIP3    H138863   2.949   0.604   7.496  0.0047  0.1658  0.5546
 5768TIP3    H238864   3.062   0.646   7.587  0.6478 -3.3167  1.5264
 5769TIP3   OH238865   1.870   2.274   7.877  0.3939  0.2730  0.4245
 5769TIP3    H138866   1.925   2.339   7.921 -0.3297 -0.2454  2.1532
 5769TIP3    H238867   1.794   2.264   7.934 -1.1636  0.3843 -1.5157
 5770TIP3   OH238868   2.318   3.040   1.428  0.5079 -0.1029 -0.0349
 5770TIP3    H138869   2.365   3.087   1.496 -0.6493  1.3146 -0.1649
 5770TIP3    H238870   2.225   3.059   1.445 -0.5314 -5.2623  2.1550
 5771TIP3   OH238871   4.632   3.720   0.136 -0.3008  0.2308 -0.0237
 5771TIP3    H138872   4.585   3.755   0.212 -2.4432 -2.3193 -0.0215
 5771TIP3    H238873   4.564   3.680   0.082  1.3506  0.6499 -2.5988
 5772TIP3   OH238874   1.933   4.551   7.090  0.1058 -0.1327 -0.0169
 5772TIP3    H138875   1.894   4.492   7.026  1.2060  0.5170 -1.3493
 5772TIP3    H238876   1.927   4.638   7.049  1.4557  0.1992  0.4370
 5773TIP3   OH238877   0.252   6.501   0.969 -0.0867  0.2632 -0.6450
 5773TIP3    H138878   0.255   6.427   0.907 -0.3398 -0.4243  0.1433
 5773TIP3    H238879   0.161   6.531   0.966  0.1206  0.8454 -1.3015
 5774TIP3   OH238880   0.746   6.415   8.348 -0.1245  0.2015 -0.3215
 5774TIP3    H138881   0.833   6.376   8.359 -0.3917 -0.4504 -0.4914
 5774TIP3    H238882   0.689   6.342   8.328 -0.5711  0.7286 -1.0245
 5775TIP3   OH238883   0.606   0.552   0.608  0.1565 -0.1917  0.0501
 5775TIP3    H138884   0.634   0.530   0.519  1.5036 -0.7413  0.5783
 5775TIP3    H238885   0.652   0.635   0.626  1.5007 -1.0967  0.9274
 5776TIP3   OH238886   1.761   0.267   0.963 -0.3387  0.3350 -0.1934
 5776TIP3    H138887   1.798   0.203   0.903 -0.0041  0.5604 -0.2286
 5776TIP3    H238888   1.667   0.249   0.963  0.0027 -2.0031  1.9137
 5777TIP3   OH238889   4.665   5.357   8.809  0.0691 -0.3922 -0.4968
 5777TIP3    H138890   4.713   5.362   8.726  1.2064 -1.2870  0.0704
 5777TIP3    H238891   4.734   5.358   8.876 -0.7929 -0.3694  0.4078
 5778TIP3   OH238892   3.901   3.935   7.123 -0.2493 -0.2814 -0.2307
 5778TIP3    H138893   3.822   3.884   7.140 -0.8164  1.0551  1.4507
 5778TIP3    H238894   3.893   3.961   7.031 -2.7157  1.3044  0.3440
 5779TIP3   OH238895   2.654   3.645   1.453 -0.2237 -0.3342  0.0937
 5779TIP3    H138896   2.722   3.710   1.437 -0.5000  0.0181  0.3099
 5779TIP3    H238897   2.699   3.561   1.450  0.2437 -0.0987  0.3630
 5780TIP3   OH238898   1.626   2.555   8.647  0.5701 -0.1535  0.3492
 5780TIP3    H138899   1.533   2.569   8.630  0.5246 -1.4274 -0.5418
 5780TIP3    H238900   1.666   2.552   8.561  1.3529 -0.1907  0.7083
 5781TIP3   OH238901   1.013   5.459   0.027 -1.3586  0.4145 -0.2882
 5781TIP3    H138902   0.935   5.498  -0.013 -0.4501  0.4898 -2.1023
 5781TIP3    H238903   1.077   5.530   0.028 -1.1655  0.2369  0.7999
 5782TIP3   OH238904   3.596   4.596   7.354  0.1128  0.1131 -0.4775
 5782TIP3    H138905   3.629   4.595   7.264 -1.1661  1.2608 -1.0003
 5782TIP3    H238906   3.662   4.643   7.404  0.6232 -0.1391 -0.9034
 5783TIP3   OH238907   0.336   3.434   7.567 -0.2658 -0.3849  0.0629
 5783TIP3    H138908   0.261   3.429   7.627 -0.8166 -0.0726 -0.5797
 5783TIP3    H238909   0.357   3.527   7.563  0.3044 -0.4958  0.4084
 5784TIP3   OH238910   6.669   6.031   2.302  0.2251  0.1219  0.1198
 5784TIP3    H138911   6.627   5.989   2.377 -0.0822  0.6967  0.2721
 5784TIP3    H238912   6.762   6.037   2.326 -0.0176  1.1480  0.8596
 5785TIP3   OH238913   1.787   3.491   7.585  0.8451  0.5587  0.5617
 5785TIP3    H138914   1.863   3.466   7.533  2.6334  0.4267  3.0791
 5785TIP3    H238915   1.772   3.583   7.563  0.3273  0.0354 -1.5203
 5786TIP3   OH238916   6.543   0.085   6.248 -0.5810 -0.7598  0.3799
 5786TIP3    H138917   6.559   0.061   6.339  0.4803 -0.1908  0.3680
 5786TIP3    H238918   6.477   0.154   6.252  0.1690 -0.0390  0.8165
 5787TIP3   OH238919   5.472   2.842   0.660 -0.0810  0.2640 -0.4307
 5787TIP3    H138920   5.382   2.866   0.638 -0.4298 -0.9306 -0.3590
 5787TIP3    H238921   5.464   2.764   0.714  1.0462 -0.8093 -1.7311
 5788TIP3   OH238922   2.924   4.377   7.622 -1.0518 -0.9965  0.4148
 5788TIP3    H138923   2.849   4.424   7.658 -0.3504 -0.1985  0.8523
 5788TIP3    H238924   2.998   4.403   7.676 -0.2871 -1.1025 -0.5398
 5789TIP3   OH238925   3.354   6.176   0.260 -0.0481  0.3675 -0.8121
 5789TIP3    H138926   3.269   6.194   0.220 -1.9027 -0.2937  2.5147
 5789TIP3    H238927   3.349   6.085   0.290  1.3558  0.6627  0.4966
 5790TIP3   OH238928   4.124   1.427   1.103  0.0148 -0.8511  0.4613
 5790TIP3    H138929   4.032   1.405   1.089  0.0338 -0.6703  0.0332
 5790TIP3    H238930   4.171   1.380   1.033  0.2028 -0.6038  0.4199
 5791TIP3   OH238931   3.640   1.326   7.494  0.2283 -0.2044  0.0015
 5791TIP3    H138932   3.702   1.328   7.567  0.2660  0.7835 -0.0496
 5791TIP3    H238933   3.686   1.371   7.422 -0.4941  0.4137 -0.0795
 5792TIP3   OH238934   4.811   1.619   0.152  0.2636  0.0103 -0.7109
 5792TIP3    H138935   4.728   1.589   0.188 -0.4470  1.5089 -1.0319
 5792TIP3    H238936   4.872   1.612   0.226 -0.2437 -0.6634 -0.3436
 5793TIP3   OH238937   4.427   6.103   8.662  0.3430 -0.5021  0.0403
 5793TIP3    H138938   4.464   6.015   8.668 -1.6021 -1.5317 -1.7364
 5793TIP3    H238939   4.481   6.146   8.595  0.5595 -0.7647  0.0412
 5794TIP3   OH238940   6.355   1.516   0.226 -0.5208  0.8725  0.0696
 5794TIP3    H138941   6.322   1.561   0.148  0.1761  0.3667 -0.5276
 5794TIP3    H238942   6.418   1.577   0.264 -0.2254  0.7592 -0.2428
 5795TIP3   OH238943   1.436   3.635   7.226  0.5713  0.1992 -0.0585
 5795TIP3    H138944   1.475   3.653   7.141 -0.1753  0.9871 -0.2473
 5795TIP3    H238945   1.418   3.721   7.263  0.4452 -0.1411  0.6919
 5796TIP3   OH238946   3.392   1.797   0.225  0.5412  0.1450 -0.1152
 5796TIP3    H138947   3.345   1.715   0.242 -2.1414  1.5056 -0.4331
 5796TIP3    H238948   3.369   1.820   0.135  1.6256  1.0365 -0.1874
 5797TIP3   OH238949   0.586   6.677   7.948  0.1705  0.0016  0.2490
 5797TIP3    H138950   0.540   6.593   7.956  0.9485 -0.4020  0.6137
 5797TIP3    H238951   0.625   6.692   8.034 -0.5302  1.0915  0.3960
 5798TIP3   OH238952   3.540   6.612   1.191  0.5439  0.5381  0.2946
 5798TIP3    H138953   3.553   6.704   1.171 -0.8286  0.2093 -2.6935
 5798TIP3    H238954   3.539   6.569   1.105  1.0383 -2.2567  1.5762
 5799TIP3   OH238955   4.466   0.973   0.688  0.1878 -0.3321 -0.2479
 5799TIP3    H138956   4.561   0.960   0.680  0.0187 -1.7409 -0.2441
 5799TIP3    H238957   4.450   1.058   0.647  1.6687  0.7736  1.3148
 5800TIP3   OH238958   4.133   5.601   2.081 -0.2729 -0.2701 -0.5814
 5800TIP3    H138959   4.135   5.692   2.053  0.4599 -0.2416 -0.4528
 5800TIP3    H238960   4.138   5.605   2.177 -3.5371 -0.3304 -0.2783
 5801TIP3   OH238961   6.691   6.092   8.671 -0.5479 -0.1494 -0.0906
 5801TIP3    H138962   6.661   6.003   8.688 -0.5198 -0.4974 -1.6731
 5801TIP3    H238963   6.762   6.082   8.607  0.0401  0.9570  0.3473
 5802TIP3   OH238964   1.610   4.586   1.102  0.3442 -0.3048 -0.4621
 5802TIP3    H138965   1.688   4.640   1.092  0.4514 -0.3586  0.0786
 5802TIP3    H238966   1.628   4.508   1.051  0.2477  0.1027 -1.1357
 5803TIP3   OH238967   4.004   3.739   6.524 -0.4588  0.0555 -0.5832
 5803TIP3    H138968   4.077   3.789   6.486 -0.1350 -0.6551 -0.9334
 5803TIP3    H238969   4.031   3.647   6.514  0.0889 -0.1852  2.2427
 5804TIP3   OH238970   5.216   5.811   7.793 -0.5081  0.1777 -0.5207
 5804TIP3    H138971   5.256   5.892   7.825 -1.6181  0.9277 -0.9879
 5804TIP3    H238972   5.269   5.787   7.717  0.0304  0.2719 -0.1823
 5805TIP3   OH238973   1.482   1.254   7.991  0.6846 -0.3225  0.6357
 5805TIP3    H138974   1.566   1.297   7.975  0.3193  0.5919  1.0868
 5805TIP3    H238975   1.455   1.221   7.906  0.1688  1.8606 -0.1214
 5806TIP3   OH238976   1.179   6.593   1.056 -0.1796  0.0499 -0.7926
 5806TIP3    H138977   1.268   6.618   1.029  0.3111 -1.3619 -0.5203
 5806TIP3    H238978   1.153   6.662   1.117  1.2184 -0.1635  0.0924
 5807TIP3   OH238979   1.079   2.711   7.239  0.0903  0.1007  0.1091
 5807TIP3    H138980   1.170   2.703   7.211 -0.6167  1.2261 -2.8715
 5807TIP3    H238981   1.047   2.621   7.243  1.0609 -0.2481  0.2513
 5808TIP3   OH238982   5.472   1.552   1.614 -0.5076 -0.0516 -0.2743
 5808TIP3    H138983   5.405   1.509   1.666 -1.3631  0.3118 -1.0532
 5808TIP3    H238984   5.505   1.484   1.556 -0.3124 -0.1945  0.0061
 5809TIP3   OH238985   6.736   3.921   6.083  0.0856 -0.5679  0.0513
 5809TIP3    H138986   6.741   3.845   6.025 -0.8160 -1.1749  0.7510
 5809TIP3    H238987   6.828   3.945   6.099  0.4144 -2.0490  0.5200
 5810TIP3   OH238988   5.269   1.919   0.089 -0.0533  0.4848 -0.1046
 5810TIP3    H138989   5.239   1.983   0.153 -1.8558  1.0591 -1.4335
 5810TIP3    H238990   5.360   1.904   0.111 -0.0877  2.1320  1.3810
 5811TIP3   OH238991   2.979   0.650   0.377 -0.6836  0.0558 -0.3586
 5811TIP3    H138992   3.037   0.574   0.377 -0.5894  0.1297 -0.6526
 5811TIP3    H238993   3.027   0.717   0.328 -1.3694 -0.1504 -1.3292
 5812TIP3   OH238994   3.469   6.402   0.698  0.4707 -0.1364 -0.5773
 5812TIP3    H138995   3.418   6.371   0.624  0.8741 -0.9838 -0.5185
 5812TIP3    H238996   3.558   6.412   0.663  0.4423  0.5235 -0.4751
 5813TIP3   OH238997   0.822   4.350   7.386 -0.0770 -0.1426  0.2772
 5813TIP3    H138998   0.912   4.381   7.399 -0.1465  0.2107 -0.0831
 5813TIP3    H238999   0.779   4.370   7.469 -0.0925  0.6406  0.0891
 5814TIP3   OH239000   5.999   5.091   8.686 -0.3952 -0.6620 -0.3353
 5814TIP3    H139001   5.991   5.129   8.774 -0.7875  1.1375 -1.0994
 5814TIP3    H239002   5.914   5.108   8.645 -0.0608 -1.0821 -1.2243
 5815TIP3   OH239003   2.578   6.222   1.507 -0.2644 -0.5644 -0.0246
 5815TIP3    H139004   2.603   6.252   1.594  0.7320 -0.4901 -0.3316
 5815TIP3    H239005   2.572   6.301   1.454  1.6079 -0.7991 -0.6396
 5816TIP3   OH239006   6.279   5.802   1.471 -0.8334 -0.3014  0.0233
 5816TIP3    H139007   6.308   5.847   1.550 -0.7822 -0.4182  0.0709
 5816TIP3    H239008   6.359   5.768   1.432 -0.5103  1.9992 -1.4803
 5817TIP3   OH239009   4.263   2.351   6.222 -0.1817 -0.1173 -0.7836
 5817TIP3    H139010   4.329   2.419   6.212  0.4429 -0.4570  0.7717
 5817TIP3    H239011   4.299   2.275   6.176 -0.1342  0.1185 -1.1339
 5818TIP3   OH239012   3.090   4.947   7.955 -0.0236 -0.1554 -0.0377
 5818TIP3    H139013   3.012   4.931   7.901 -0.9231  2.4005  0.3989
 5818TIP3    H239014   3.058   4.947   8.045  0.6849 -0.0524  0.2222
 5819TIP3   OH239015   0.829   4.112   7.237 -0.2145  0.0763 -0.1240
 5819TIP3    H139016   0.764   4.138   7.171 -0.6528  0.6999  0.5463
 5819TIP3    H239017   0.846   4.191   7.287  0.5716 -0.2465  0.1439
 5820TIP3   OH239018   3.718   3.669   1.203 -1.0673  0.3294 -0.1411
 5820TIP3    H139019   3.654   3.731   1.167  0.0823  0.5807 -1.8791
 5820TIP3    H239020   3.744   3.707   1.287 -3.1300  0.2470  0.5774
 5821TIP3   OH239021   5.626   4.059   1.206  0.4909 -0.3375  0.5222
 5821TIP3    H139022   5.637   3.974   1.248 -1.7798 -2.3237 -2.4994
 5821TIP3    H239023   5.546   4.050   1.154  0.0579  3.7526  0.1740
 5822TIP3   OH239024   3.017   2.039   7.418  0.5072 -0.6657 -0.1972
 5822TIP3    H139025   2.957   2.058   7.346  1.0817  1.0540 -0.2661
 5822TIP3    H239026   3.102   2.025   7.376  0.2343 -3.0025 -0.0934
 5823TIP3   OH239027   2.346   0.411   1.643 -0.1948  0.2044 -0.5824
 5823TIP3    H139028   2.365   0.501   1.618  1.4864  0.0336 -0.0911
 5823TIP3    H239029   2.424   0.383   1.693 -0.7139 -1.4751 -0.6377
 5824TIP3   OH239030   6.106   5.456   6.825  0.6408 -0.7169  0.4796
 5824TIP3    H139031   6.086   5.372   6.782 -1.7422  0.4488 -0.9087
 5824TIP3    H239032   6.122   5.516   6.753 -1.5139  0.8547  1.2119
 5825TIP3   OH239033   2.684   4.835   7.492 -0.0535  0.2649 -0.3506
 5825TIP3    H139034   2.616   4.814   7.556 -1.1037 -3.1217 -2.3164
 5825TIP3    H239035   2.658   4.921   7.457 -0.4957  1.3051  2.2937
 5826TIP3   OH239036   1.595   5.351   8.532  0.4024 -0.4392 -0.0856
 5826TIP3    H139037   1.509   5.394   8.527  0.1873 -0.5066  2.0344
 5826TIP3    H239038   1.639   5.376   8.451 -0.9910  0.9986 -0.4520
 5827TIP3   OH239039   2.315   3.932   7.070  0.4308 -0.0513  0.4784
 5827TIP3    H139040   2.365   3.870   7.017 -0.3284 -0.9359  0.7532
 5827TIP3    H239041   2.359   3.933   7.155  0.5652 -0.0554  0.4088
 5828TIP3   OH239042   1.038   6.473   0.092  0.7448 -0.2111 -0.1943
 5828TIP3    H139043   1.040   6.502   0.183 -0.5954 -0.3629 -0.0974
 5828TIP3    H239044   1.127   6.444   0.074  0.4991 -2.6783  1.9178
 5829TIP3   OH239045   1.692   4.245   8.358  0.3404 -0.0784 -0.1978
 5829TIP3    H139046   1.626   4.258   8.290 -0.4268  2.2139  0.8776
 5829TIP3    H239047   1.706   4.332   8.395  1.7619 -1.0074  1.6344
 5830TIP3   OH239048   5.728   6.021   8.476 -0.4414  0.2627 -0.5827
 5830TIP3    H139049   5.794   5.976   8.529 -2.4055  0.3186  2.0777
 5830TIP3    H239050   5.767   6.107   8.458  0.1860  0.3703  1.0880
 5831TIP3   OH239051   1.136   5.335   1.125  0.1106 -0.0691  0.1008
 5831TIP3    H139052   1.088   5.407   1.167  0.3076  0.8934 -1.2638
 5831TIP3    H239053   1.225   5.344   1.159  0.2474  0.6521 -0.4098
 5832TIP3   OH239054   5.895   6.307   1.631 -0.2284  0.5658 -0.1105
 5832TIP3    H139055   5.878   6.372   1.563  0.0930  0.4636 -0.2918
 5832TIP3    H239056   5.985   6.324   1.658 -0.2741  0.4495  0.1213
 5833TIP3   OH239057   3.733   6.124   0.746 -0.3323  0.1479  0.1284
 5833TIP3    H139058   3.723   6.219   0.740  0.9643  0.2527 -0.6234
 5833TIP3    H239059   3.708   6.091   0.659  0.9502 -0.0169 -0.1973
 5834TIP3   OH239060   0.107   0.843   0.890  0.1087 -0.1212 -0.1741
 5834TIP3    H139061   0.094   0.933   0.861  2.2597  0.7886  1.3755
 5834TIP3    H239062   0.110   0.849   0.986 -2.5803 -2.3197  0.1702
 5835TIP3   OH239063   0.525   4.432   7.322  0.4512 -0.2056  0.5898
 5835TIP3    H139064   0.545   4.377   7.246 -2.5476 -0.2098 -0.3593
 5835TIP3    H239065   0.608   4.473   7.345  1.7217 -1.1382 -1.9407
 5836TIP3   OH239066   1.488   2.466   6.935  0.6078  0.2922  0.0468
 5836TIP3    H139067   1.529   2.542   6.893  0.6069  0.4632  0.3540
 5836TIP3    H239068   1.556   2.399   6.934  0.4574  0.1384 -0.6507
 5837TIP3   OH239069   0.165   4.110   5.886  0.0661 -0.2183  0.3431
 5837TIP3    H139070   0.140   4.063   5.965  0.2173 -0.0975  0.4642
 5837TIP3    H239071   0.128   4.059   5.814  2.5094 -2.0586  0.2765
 5838TIP3   OH239072   0.774   6.309   0.894  0.3034  0.5631 -0.2539
 5838TIP3    H139073   0.700   6.370   0.887  0.3922  0.7758  0.5662
 5838TIP3    H239074   0.832   6.348   0.959  1.2238  0.4709 -0.9958
 5839TIP3   OH239075   1.125   2.418   7.356  0.5435  0.1034  0.1985
 5839TIP3    H139076   1.030   2.428   7.351  0.4871 -0.4033  0.1701
 5839TIP3    H239077   1.142   2.396   7.448  0.6336  0.1794  0.2012
 5840TIP3   OH239078   4.619   0.593   1.945  1.0291 -0.3646  0.4369
 5840TIP3    H139079   4.631   0.503   1.917  0.0684 -0.9182  1.6914
 5840TIP3    H239080   4.680   0.603   2.019  0.8617 -0.1165  0.5437
 5841TIP3   OH239081   3.621   4.605   0.256  0.0709 -0.0756 -0.2154
 5841TIP3    H139082   3.684   4.585   0.186  0.1179 -0.2677 -0.1162
 5841TIP3    H239083   3.660   4.680   0.301  0.2346 -0.1984 -0.1497
 5842TIP3   OH239084   2.737   0.532   1.072  0.6874 -0.3240  0.2255
 5842TIP3    H139085   2.796   0.457   1.081  2.1893  0.8970  1.1851
 5842TIP3    H239086   2.785   0.593   1.017 -1.3939 -0.8356 -2.3049
 5843TIP3   OH239087   2.453   2.994   0.099  0.1282 -0.6050  0.2111
 5843TIP3    H139088   2.487   2.946   0.024  0.7159  0.6677 -0.3801
 5843TIP3    H239089   2.359   2.978   0.098  0.2886 -1.5591 -0.0792
 5844TIP3   OH239090   4.408   3.443   7.372  0.1320  0.0542  0.1010
 5844TIP3    H139091   4.332   3.448   7.430  0.1629 -0.5258  0.2005
 5844TIP3    H239092   4.371   3.446   7.284 -0.1739 -1.8565  0.1149
 5845TIP3   OH239093   3.630   2.952   1.432 -0.5372 -0.0294 -0.0179
 5845TIP3    H139094   3.673   2.999   1.503  0.4862 -2.2453  0.9012
 5845TIP3    H239095   3.655   3.001   1.353  2.9858 -0.6320  0.5661
 5846TIP3   OH239096   2.384   6.651   0.584  0.3791  0.4577 -0.3661
 5846TIP3    H139097   2.345   6.587   0.643  0.5150  0.9746  0.2871
 5846TIP3    H239098   2.479   6.638   0.594  0.3994  0.3368 -0.7025
 5847TIP3   OH239099   6.521   1.694   8.548  0.3315  0.2589 -0.9469
 5847TIP3    H139100   6.503   1.733   8.462 -1.9050 -2.2367 -1.7392
 5847TIP3    H239101   6.436   1.695   8.593  0.8110 -1.1369  0.0498
 5848TIP3   OH239102   0.660   0.866   6.459 -0.5377 -0.2452 -0.0879
 5848TIP3    H139103   0.670   0.777   6.425  1.9032 -0.1746  0.2823
 5848TIP3    H239104   0.750   0.896   6.476 -1.2433  2.4174 -0.5073
 5849TIP3   OH239105   0.495   4.331   1.135  0.1862 -0.4960  0.2282
 5849TIP3    H139106   0.439   4.257   1.114 -0.9466  0.2928  0.3791
 5849TIP3    H239107   0.465   4.402   1.078 -0.2102  0.4709  1.5790
 5850TIP3   OH239108   3.248   5.172   7.915 -0.1147  0.4200  0.0778
 5850TIP3    H139109   3.201   5.211   7.841  0.4564 -0.0691 -0.5493
 5850TIP3    H239110   3.194   5.098   7.942 -0.7675  1.1101  0.7269
 5851TIP3   OH239111   5.925   1.788   7.351  0.2816  0.1798  0.8246
 5851TIP3    H139112   5.976   1.708   7.353  2.1110  1.2900  1.4039
 5851TIP3    H239113   5.938   1.824   7.263 -1.6144 -0.7565  0.1033
 5852TIP3   OH239114   5.076   3.625   7.639  0.4116  0.5582  0.7324
 5852TIP3    H139115   5.046   3.536   7.657  0.3331  0.6388  1.0056
 5852TIP3    H239116   5.071   3.633   7.544  2.9946 -0.6316  0.4301
 5853TIP3   OH239117   5.137   1.372   1.391  0.1260 -0.1089 -0.2354
 5853TIP3    H139118   5.090   1.455   1.401 -0.8039 -0.7263  0.7473
 5853TIP3    H239119   5.188   1.363   1.472  1.2394  0.0951 -0.8856
 5854TIP3   OH239120   4.694   1.099   8.429 -0.2118 -0.2513 -0.1245
 5854TIP3    H139121   4.620   1.152   8.398 -0.4706  0.0670  0.9969
 5854TIP3    H239122   4.740   1.155   8.490  0.6617 -0.6426 -0.4141
 5855TIP3   OH239123   2.568   1.397   8.185 -0.5908  0.2266  0.8484
 5855TIP3    H139124   2.474   1.377   8.187 -0.8117  1.1533  0.5728
 5855TIP3    H239125   2.595   1.375   8.096 -0.5740  0.0533  0.8970
 5856TIP3   OH239126   0.560   2.434   7.012 -0.1660  0.8808  0.4033
 5856TIP3    H139127   0.554   2.512   7.068 -1.2752  1.1061 -0.0081
 5856TIP3    H239128   0.653   2.428   6.990  0.1759  1.1886  1.6994
 5857TIP3   OH239129   2.213   1.529   7.900 -0.3432 -0.2869 -0.6294
 5857TIP3    H139130   2.216   1.590   7.826  1.2121  0.2060 -0.1887
 5857TIP3    H239131   2.252   1.577   7.973 -2.5263 -0.4839  0.7715
 5858TIP3   OH239132   1.155   6.410   7.183  0.1781 -0.2798  0.2060
 5858TIP3    H139133   1.068   6.417   7.223 -0.1716 -1.2746 -0.3392
 5858TIP3    H239134   1.138   6.414   7.088  0.4893 -2.2529  0.0134
 5859TIP3   OH239135   5.331   4.240   2.023  0.0537 -0.0575 -0.4811
 5859TIP3    H139136   5.288   4.321   2.052 -1.6346 -0.8008 -0.8059
 5859TIP3    H239137   5.417   4.269   1.992  0.0924  1.3856  0.8571
 5860TIP3   OH239138   4.019   2.228   6.917  0.6362 -0.4938 -0.3403
 5860TIP3    H139139   4.048   2.285   6.845  0.2074 -0.0216 -0.1484
 5860TIP3    H239140   4.081   2.245   6.987  0.2791  0.0479 -0.1462
 5861TIP3   OH239141   6.578   6.574   1.283 -0.6193 -0.3911  0.0682
 5861TIP3    H139142   6.541   6.662   1.298 -0.5754  0.1099 -2.3890
 5861TIP3    H239143   6.672   6.588   1.277 -0.5034 -0.8073  0.8401
 5862TIP3   OH239144   1.277   0.074   7.493 -0.2937 -0.1119  0.3263
 5862TIP3    H139145   1.198   0.034   7.455 -0.8052  0.1159  1.1280
 5862TIP3    H239146   1.347   0.050   7.433 -1.3801  1.9847 -1.9586
 5863TIP3   OH239147   4.918   0.563   0.024 -0.1611  0.1205  0.1083
 5863TIP3    H139148   4.954   0.630  -0.034  1.4993 -0.5702  0.3102
 5863TIP3    H239149   4.946   0.480  -0.015 -1.5603 -0.4541  0.2746
 5864TIP3   OH239150   4.476   2.160   0.523  0.0810  0.1094 -0.5620
 5864TIP3    H139151   4.437   2.114   0.448  1.1753 -2.3971  0.3144
 5864TIP3    H239152   4.529   2.229   0.483 -0.2119 -0.4721 -2.0292
 5865TIP3   OH239153   2.683   5.683   0.240 -0.3949 -0.4489 -0.3284
 5865TIP3    H139154   2.761   5.697   0.186 -0.1403  0.4928  0.2402
 5865TIP3    H239155   2.640   5.769   0.241  0.9334  0.3324  2.9542
 5866TIP3   OH239156   5.400   6.547   7.099 -0.9588 -0.3078  1.0791
 5866TIP3    H139157   5.350   6.629   7.098  2.0943  1.6971  1.5345
 5866TIP3    H239158   5.421   6.533   7.191  0.6744 -0.1717  0.7519
 5867TIP3   OH239159   1.024   4.964   0.890  0.8812  0.0510 -0.0943
 5867TIP3    H139160   1.072   4.954   0.972  1.9329  0.3821 -0.6559
 5867TIP3    H239161   1.063   5.041   0.849 -0.9282  1.0414 -0.0376
 5868TIP3   OH239162   5.800   3.474   0.720 -0.4077 -0.1964 -0.2123
 5868TIP3    H139163   5.850   3.436   0.792 -0.5758  0.0884  0.0560
 5868TIP3    H239164   5.848   3.553   0.697  0.4454 -1.0250 -1.3676
 5869TIP3   OH239165   4.332   0.628   1.659 -0.0492  0.3664 -0.8171
 5869TIP3    H139166   4.245   0.641   1.696  0.7622  2.4376  0.5439
 5869TIP3    H239167   4.359   0.541   1.690 -0.8402  0.5466  0.4386
 5870TIP3   OH239168   2.200   4.443   7.147 -0.8394  0.2289  0.1366
 5870TIP3    H139169   2.199   4.538   7.153  0.3710  0.3654 -1.2289
 5870TIP3    H239170   2.108   4.419   7.135 -1.0203  1.3468 -0.9185
 5871TIP3   OH239171   2.920   4.108   6.896  0.2626  0.0666  0.5831
 5871TIP3    H139172   2.907   4.201   6.878 -0.6719 -0.0284  0.7018
 5871TIP3    H239173   3.015   4.095   6.891  0.5591  1.3383  2.0750
 5872TIP3   OH239174   3.141   6.415   7.746  0.5395 -0.7818  0.0749
 5872TIP3    H139175   3.149   6.320   7.759  0.9617 -0.7317  0.1999
 5872TIP3    H239176   3.068   6.441   7.802 -0.3288 -1.2033 -0.8319
 5873TIP3   OH239177   6.556   1.204   8.665 -0.1517 -0.2198  0.1637
 5873TIP3    H139178   6.521   1.244   8.586 -0.1599  1.9583  1.2089
 5873TIP3    H239179   6.527   1.261   8.737 -0.1448 -2.1071  1.7625
 5874TIP3   OH239180   0.599   3.089   8.778  0.3890 -0.5931 -0.0562
 5874TIP3    H139181   0.628   2.998   8.787  0.9983 -0.4569 -0.5200
 5874TIP3    H239182   0.523   3.096   8.836  0.2752 -1.4206 -0.0915
 5875TIP3   OH239183   0.951   4.131   0.506 -0.1516  0.6121 -0.0723
 5875TIP3    H139184   0.918   4.082   0.582  0.3154 -0.0910 -0.3155
 5875TIP3    H239185   1.046   4.114   0.506 -0.1659  0.4978 -0.8873
 5876TIP3   OH239186   5.058   5.629   0.997  0.2144  0.3896  0.2808
 5876TIP3    H139187   5.069   5.553   0.940  0.1793  0.8481 -0.3491
 5876TIP3    H239188   5.067   5.594   1.086  1.6968 -0.1008 -0.0387
 5877TIP3   OH239189   2.361   1.563   1.225 -0.3841  0.1810  0.0872
 5877TIP3    H139190   2.369   1.480   1.271  0.2782  0.0055 -0.3215
 5877TIP3    H239191   2.296   1.548   1.157  1.8165 -0.9412 -1.9109
 5878TIP3   OH239192   0.036   2.430   1.322 -0.0959  0.2103  0.4653
 5878TIP3    H139193  -0.048   2.454   1.284  0.0812 -0.0095 -0.0625
 5878TIP3    H239194   0.101   2.457   1.257  0.2411  0.2790  0.8205
 5879TIP3   OH239195   1.572   3.764   0.501  0.6994  0.6167  0.3547
 5879TIP3    H139196   1.592   3.680   0.542 -0.4287 -0.5872 -1.3840
 5879TIP3    H239197   1.488   3.789   0.539  0.1566  0.0218 -0.4248
 5880TIP3   OH239198   5.052   5.484   8.117  0.5688 -0.4392 -0.7645
 5880TIP3    H139199   5.098   5.401   8.117  0.3623 -0.5635 -1.6228
 5880TIP3    H239200   5.080   5.527   8.036  0.7187  0.3499 -0.3046
 5881TIP3   OH239201   1.483   5.956   0.660 -0.3077 -0.1766  0.1969
 5881TIP3    H139202   1.458   6.023   0.597 -0.9738 -0.7397 -0.1610
 5881TIP3    H239203   1.539   6.001   0.723  0.4818  0.3703 -0.8619
 5882TIP3   OH239204   3.222   6.143   2.079  0.4639  0.0482 -0.5292
 5882TIP3    H139205   3.197   6.092   2.156  0.1409 -2.1412 -2.0135
 5882TIP3    H239206   3.150   6.206   2.068  1.1659  1.3488  1.6882
 5883TIP3   OH239207   6.431   1.502   1.505 -0.3100  0.0714 -0.1101
 5883TIP3    H139208   6.370   1.554   1.558  0.2395  0.5584  0.0615
 5883TIP3    H239209   6.382   1.424   1.481 -0.9509  0.3837  0.1522
 5884TIP3   OH239210   3.879   1.821   7.641  0.6270  0.1185  0.3184
 5884TIP3    H139211   3.815   1.866   7.696  0.0493 -0.6843  0.3237
 5884TIP3    H239212   3.829   1.794   7.564  1.2648  0.6109 -0.2762
 5885TIP3   OH239213   5.098   0.458   8.658  0.0773 -0.2960  0.2421
 5885TIP3    H139214   5.042   0.479   8.583  1.7990  1.6252 -0.5966
 5885TIP3    H239215   5.183   0.435   8.620  0.5123 -1.0277  1.5630
 5886TIP3   OH239216   0.406   3.806   8.533  0.0235  0.3432  0.1113
 5886TIP3    H139217   0.457   3.751   8.593 -0.5668 -2.2191 -1.5435
 5886TIP3    H239218   0.464   3.878   8.510  0.5639  0.9528  2.9987
 5887TIP3   OH239219   2.490   6.114   0.873 -0.2560  0.1813  0.0139
 5887TIP3    H139220   2.410   6.074   0.907 -1.3193  0.6372 -1.8239
 5887TIP3    H239221   2.462   6.165   0.797  1.7274  0.6746 -0.4688
 5888TIP3   OH239222   2.247   0.914   0.842  0.2493  0.0181 -0.6655
 5888TIP3    H139223   2.269   0.829   0.880 -1.5269 -0.2746 -0.1915
 5888TIP3    H239224   2.310   0.974   0.879  1.6914 -1.1103 -1.1868
 5889TIP3   OH239225   0.248   2.885   6.649 -0.5599  0.5526 -0.1031
 5889TIP3    H139226   0.175   2.946   6.664 -0.2456  0.8454  0.2601
 5889TIP3    H239227   0.316   2.939   6.609 -0.4327  0.3426 -0.1719
 5890TIP3   OH239228   3.531   3.803   6.415  0.0106  0.3337 -0.5637
 5890TIP3    H139229   3.459   3.851   6.455 -0.0251 -0.1701 -0.0161
 5890TIP3    H239230   3.609   3.838   6.456  0.1300  1.1807 -1.4613
 5891TIP3   OH239231   3.034   2.964   8.828  0.1830 -0.5489 -0.0350
 5891TIP3    H139232   3.051   2.948   8.735 -0.3866 -0.1251 -0.2162
 5891TIP3    H239233   2.939   2.970   8.835  0.1973 -0.9970  0.6493
 5892TIP3   OH239234   0.586   4.361   8.348  0.2721  0.2250 -0.1583
 5892TIP3    H139235   0.673   4.321   8.352  0.3614  0.4991  0.8571
 5892TIP3    H239236   0.550   4.350   8.436 -1.4729 -1.5090 -0.9908
 5893TIP3   OH239237   1.351   3.102   1.703  0.0761  0.7074  0.2575
 5893TIP3    H139238   1.429   3.107   1.757  0.7508 -1.7364 -0.3505
 5893TIP3    H239239   1.373   3.151   1.624 -0.6310  3.6187  1.7549
 5894TIP3   OH239240   2.798   5.230   7.151 -0.0248 -0.5674 -0.5614
 5894TIP3    H139241   2.794   5.135   7.167  2.2882 -0.3972  1.4877
 5894TIP3    H239242   2.709   5.260   7.168 -0.0931 -1.9678  1.9750
 5895TIP3   OH239243   3.666   3.803   0.271 -0.3806  0.2039 -0.8947
 5895TIP3    H139244   3.750   3.845   0.253 -0.6332  0.4493 -1.5440
 5895TIP3    H239245   3.689   3.715   0.300  0.1271  0.5381 -0.2804
 5896TIP3   OH239246   1.257   3.655   8.392  0.2314  0.0343 -0.1099
 5896TIP3    H139247   1.319   3.679   8.323 -0.1819  0.0477 -0.4758
 5896TIP3    H239248   1.302   3.680   8.473 -0.2262  2.2882 -0.4643
 5897TIP3   OH239249   0.454   5.712   0.516 -0.0471  0.8737 -0.0480
 5897TIP3    H139250   0.463   5.698   0.422 -0.7176 -1.2704  0.1636
 5897TIP3    H239251   0.542   5.738   0.545  0.4740  0.3419 -1.0848
 5898TIP3   OH239252   6.026   1.148   1.643  0.1307 -0.1822 -0.3737
 5898TIP3    H139253   6.118   1.136   1.667  0.8215  0.7240 -2.3152
 5898TIP3    H239254   5.985   1.064   1.663  1.3164 -0.5284  0.7491
 5899TIP3   OH239255   2.612   6.110   7.551 -0.6855 -0.1441  0.3907
 5899TIP3    H139256   2.597   6.023   7.588 -1.2653 -0.3326 -0.2792
 5899TIP3    H239257   2.704   6.108   7.523 -0.4580 -0.2537  1.1075
 5900TIP3   OH239258   0.181   1.619   1.258 -0.7834 -0.4196 -0.1687
 5900TIP3    H139259   0.167   1.592   1.167 -1.2331 -3.0797  0.5996
 5900TIP3    H239260   0.261   1.573   1.284 -1.8770 -1.5115  1.4028
 5901TIP3   OH239261   1.026   6.749   7.431 -0.0491 -0.2117  0.2335
 5901TIP3    H139262   1.062   6.735   7.343 -0.1558 -0.4388  0.2255
 5901TIP3    H239263   1.035   6.664   7.474 -0.6592 -0.2959  0.2009
 5902TIP3   OH239264   4.293   1.594   0.623 -0.1106 -0.5926 -0.4851
 5902TIP3    H139265   4.386   1.619   0.616 -0.4399  0.5512 -1.0728
 5902TIP3    H239266   4.249   1.675   0.648 -0.7217 -1.5951  1.8453
 5903TIP3   OH239267   3.405   0.078   1.614 -0.1474  0.2095  0.4776
 5903TIP3    H139268   3.355  -0.002   1.628 -0.9147  0.9117  2.0116
 5903TIP3    H239269   3.367   0.141   1.675  2.2887  0.9351  1.3739
 5904TIP3   OH239270   2.451   1.225   0.702  0.1270  0.1875 -0.5191
 5904TIP3    H139271   2.495   1.181   0.629 -0.3141  0.6197 -1.0513
 5904TIP3    H239272   2.521   1.248   0.763  0.7011  1.2372 -1.5449
 5905TIP3   OH239273   0.462   6.160   7.525  0.1398 -0.5120 -0.0634
 5905TIP3    H139274   0.431   6.235   7.576 -0.2348 -0.5275 -0.2655
 5905TIP3    H239275   0.425   6.084   7.569 -2.9302 -0.4196 -2.1217
 5906TIP3   OH239276   5.541   4.902   0.732 -0.6960  0.6424  0.3710
 5906TIP3    H139277   5.492   4.945   0.661  1.7484  1.9818 -0.6592
 5906TIP3    H239278   5.555   4.813   0.701  1.5668  1.5812 -1.6685
 5907TIP3   OH239279   6.456   5.211   7.113 -0.2359 -0.5488  0.0023
 5907TIP3    H139280   6.451   5.120   7.084  1.8562 -1.0846  1.0876
 5907TIP3    H239281   6.392   5.218   7.183 -2.3407 -0.3743 -1.8311
 5908TIP3   OH239282   3.846   2.132   7.097 -0.3780 -0.1857  0.9303
 5908TIP3    H139283   3.891   2.152   7.015  0.9126 -0.0093  1.6437
 5908TIP3    H239284   3.778   2.199   7.104  0.6812  0.9421  0.8669
 5909TIP3   OH239285   3.671   2.220   8.411 -0.3035 -0.0540 -0.4920
 5909TIP3    H139286   3.708   2.286   8.470  1.1919 -0.7669 -0.5773
 5909TIP3    H239287   3.609   2.268   8.357  0.2456  1.1462 -0.0934
 5910TIP3   OH239288   3.260   4.316   7.486 -0.4955 -0.6352  0.7208
 5910TIP3    H139289   3.352   4.340   7.470 -0.7433 -0.9700 -1.6214
 5910TIP3    H239290   3.227   4.383   7.545  0.5563  1.0967 -0.5644
 5911TIP3   OH239291   1.915   1.376   8.806 -0.6043  0.2920  0.2882
 5911TIP3    H139292   1.846   1.434   8.775  0.5024  1.1722 -0.5967
 5911TIP3    H239293   1.980   1.376   8.736 -0.2147 -1.4088  0.6140
 5912TIP3   OH239294   1.507   6.111   0.083  0.5473  0.3104 -0.4613
 5912TIP3    H139295   1.547   6.039   0.034  1.7908  0.4051  0.3667
 5912TIP3    H239296   1.516   6.187   0.026 -0.3152 -0.0708 -1.1297
 5913TIP3   OH239297   6.004   3.608   0.094 -0.3228 -0.0832 -0.3186
 5913TIP3    H139298   5.942   3.573   0.157 -0.6442  1.0227 -0.0058
 5913TIP3    H239299   5.950   3.656   0.031  0.0432 -0.7133 -1.1406
 5914TIP3   OH239300   0.645   1.844   6.543  0.3931 -0.1933  0.1487
 5914TIP3    H139301   0.682   1.866   6.457 -2.3315  2.7820 -0.4912
 5914TIP3    H239302   0.578   1.778   6.523  1.4345 -1.3777  0.4455
 5915TIP3   OH239303   4.996   4.587   1.761 -0.2722 -0.6079  0.4560
 5915TIP3    H139304   4.907   4.584   1.794 -0.0100 -0.7941  1.1515
 5915TIP3    H239305   4.988   4.626   1.673 -0.9980 -0.3840  0.6188
 5916TIP3   OH239306   6.645   2.867   1.333  0.1212  0.0223 -0.1940
 5916TIP3    H139307   6.573   2.886   1.273  0.1124 -1.3223 -0.6375
 5916TIP3    H239308   6.651   2.945   1.388 -1.8824  0.0646  0.0489
 5917TIP3   OH239309   3.704   0.927   8.431  0.1234 -0.0307  0.5061
 5917TIP3    H139310   3.735   0.978   8.356  0.4372 -0.8980  0.0278
 5917TIP3    H239311   3.706   0.988   8.505  0.0010  0.7784 -0.1542
 5918TIP3   OH239312   3.901   5.543   8.129  0.3984 -0.5141  0.0620
 5918TIP3    H139313   3.899   5.455   8.091  0.4158 -0.0773 -1.0055
 5918TIP3    H239314   3.942   5.597   8.061 -0.2739  0.4520  0.3983
 5919TIP3   OH239315   2.675   2.383   2.026  0.4679  0.2155  0.2556
 5919TIP3    H139316   2.666   2.333   2.108  1.1035  0.4321  0.4671
 5919TIP3    H239317   2.586   2.391   1.993  0.4982 -2.6136 -0.7343
 5920TIP3   OH239318   1.084   2.806   1.522  0.0487  0.4767 -0.2616
 5920TIP3    H139319   1.165   2.803   1.572  0.1888 -1.1497 -0.5444
 5920TIP3    H239320   1.092   2.883   1.467  0.4518  1.5691  1.2536
 5921TIP3   OH239321   2.255   4.109   8.010  0.5631  0.1081  0.4530
 5921TIP3    H139322   2.189   4.086   8.075  0.2491 -0.0116  0.0930
 5921TIP3    H239323   2.205   4.131   7.931  0.9579 -0.2571  0.0933
 5922TIP3   OH239324   2.904   1.258   8.806 -0.3235  0.3318  0.3007
 5922TIP3    H139325   2.877   1.317   8.736 -0.5044 -0.4444 -0.3014
 5922TIP3    H239326   2.840   1.274   8.876  0.1197  1.4222  0.4750
 5923TIP3   OH239327   1.395   3.161   8.617 -0.3518 -0.4190 -0.6951
 5923TIP3    H139328   1.459   3.100   8.582 -0.8183 -1.2561 -0.1169
 5923TIP3    H239329   1.373   3.218   8.543  3.4566  2.0985 -0.1573
 5924TIP3   OH239330   2.206   0.770   7.464 -0.1107  0.1457  0.2575
 5924TIP3    H139331   2.205   0.730   7.551 -0.6007  0.5217  0.4325
 5924TIP3    H239332   2.187   0.863   7.480  2.9913  0.9183  0.0847
 5925TIP3   OH239333   3.518   4.964   8.629 -0.6422 -0.1292  0.0968
 5925TIP3    H139334   3.501   4.992   8.539 -2.6867 -1.3287  0.0511
 5925TIP3    H239335   3.557   4.877   8.619  0.4005  0.2890  0.3738
 5926TIP3   OH239336   2.742   3.234   1.494 -0.2162 -0.1434 -0.2362
 5926TIP3    H139337   2.771   3.162   1.438  1.6018  0.4012 -0.0518
 5926TIP3    H239338   2.740   3.197   1.582  1.2010  0.1053 -0.0666
 5927TIP3   OH239339   4.949   6.158   7.044 -0.4533 -0.1683  0.0805
 5927TIP3    H139340   4.970   6.106   6.966 -2.5138  0.4524 -0.9597
 5927TIP3    H239341   4.895   6.099   7.098  0.1559 -0.2675  0.5911
 5928TIP3   OH239342   2.192   0.374   8.390  0.1828 -0.3294  0.7086
 5928TIP3    H139343   2.141   0.358   8.469  0.1018  0.7055  0.8892
 5928TIP3    H239344   2.129   0.373   8.319  0.0032  0.2722  0.8518
 5929TIP3   OH239345   1.338   2.610   8.565 -0.0558  0.4860 -0.5012
 5929TIP3    H139346   1.271   2.546   8.541  0.5921 -0.3728 -0.0804
 5929TIP3    H239347   1.308   2.692   8.526 -1.0119 -0.0239 -0.8720
 5930TIP3   OH239348   4.302   4.045   7.912  0.1439  0.2410 -0.1074
 5930TIP3    H139349   4.237   3.979   7.886  0.9105 -0.4671 -0.2519
 5930TIP3    H239350   4.249   4.116   7.950 -0.6060 -1.1873  1.6881
 5931TIP3   OH239351   2.344   3.846   1.542  0.1272  0.3627 -0.5491
 5931TIP3    H139352   2.347   3.787   1.467  1.6175 -2.0710  1.2613
 5931TIP3    H239353   2.292   3.799   1.607  0.5134  1.5123  0.6371
 5932TIP3   OH239354   1.931   2.173   2.495 -0.1149 -0.4113  0.1964
 5932TIP3    H139355   2.002   2.177   2.559 -0.5694 -0.3025  0.7081
 5932TIP3    H239356   1.942   2.089   2.451 -0.1468 -0.7614  0.8448
 5933TIP3   OH239357   4.160   5.507   0.778 -0.3901  0.0815  0.7846
 5933TIP3    H139358   4.152   5.423   0.824 -1.8995 -1.4406 -1.9986
 5933TIP3    H239359   4.215   5.561   0.836  1.2998 -3.0457  2.3606
 5934TIP3   OH239360   2.413   1.695   7.969  0.1733 -0.6893 -0.1279
 5934TIP3    H139361   2.392   1.780   8.008 -0.2291 -0.2042 -1.3686
 5934TIP3    H239362   2.471   1.715   7.896 -0.7832 -1.3726 -1.1010
 5935TIP3   OH239363   3.673   2.975   8.462  0.1802  0.3731  0.3873
 5935TIP3    H139364   3.662   3.005   8.372  0.2305  2.2371  0.9557
 5935TIP3    H239365   3.595   2.923   8.480  0.9424 -1.4640 -1.2181
 5936TIP3   OH239366   3.847   2.464   0.561 -0.0183  0.1095 -0.0817
 5936TIP3    H139367   3.923   2.450   0.504 -0.3696  3.7262 -1.7196
 5936TIP3    H239368   3.774   2.477   0.500 -1.1648  0.5005  1.3279
 5937TIP3   OH239369   1.832   1.340   6.702 -0.2599  0.1631  0.0593
 5937TIP3    H139370   1.838   1.389   6.784 -0.7750  0.8868 -0.3277
 5937TIP3    H239371   1.877   1.257   6.721 -2.0780 -0.5304  1.6928
 5938TIP3   OH239372   1.972   1.796   7.749  0.3033 -1.3031 -0.8557
 5938TIP3    H139373   1.997   1.876   7.795 -0.2661 -1.9554  0.6462
 5938TIP3    H239374   1.934   1.826   7.667 -1.2701  0.0516  0.3156
 5939TIP3   OH239375   1.553   5.976   7.380 -0.0298 -0.0613 -0.3219
 5939TIP3    H139376   1.573   5.938   7.295  0.7328  0.7937 -0.5372
 5939TIP3    H239377   1.548   5.901   7.439  3.4763 -0.4503 -0.3154
 5940TIP3   OH239378   1.784   1.165   1.053 -0.0523 -0.7813  0.0593
 5940TIP3    H139379   1.747   1.184   0.967  0.4640 -0.7022 -0.1467
 5940TIP3    H239380   1.831   1.083   1.042  0.8931 -0.2501 -0.0056
 5941TIP3   OH239381   3.652   6.456   7.444 -0.2855  0.3769 -0.0088
 5941TIP3    H139382   3.731   6.408   7.468 -1.3056 -0.2656  2.3399
 5941TIP3    H239383   3.646   6.527   7.507 -0.2625  2.0017 -1.7585
 5942TIP3   OH239384   5.300   4.522   7.593 -0.0791  0.3408 -0.5242
 5942TIP3    H139385   5.322   4.441   7.640 -0.1323 -0.4509 -1.8342
 5942TIP3    H239386   5.276   4.493   7.505  3.0394  1.9949 -2.0818
 5943TIP3   OH239387   6.421   6.799   7.520  0.3135 -0.0572 -0.3191
 5943TIP3    H139388   6.477   6.814   7.596  0.4028  0.6792 -0.5213
 5943TIP3    H239389   6.476   6.750   7.459  0.9786  1.2451 -0.7928
 5944TIP3   OH239390   1.456   1.322   0.825  0.0436 -0.2953  0.7405
 5944TIP3    H139391   1.477   1.272   0.746  1.0620 -0.2129  0.9416
 5944TIP3    H239392   1.411   1.400   0.794 -1.9605 -1.4989  0.4451
 5945TIP3   OH239393   2.389   4.140   6.099  0.6728  0.5420 -0.2726
 5945TIP3    H139394   2.321   4.100   6.152  0.2745  0.7487 -0.6160
 5945TIP3    H239395   2.444   4.067   6.071 -0.1655  0.1931 -1.0627
 5946TIP3   OH239396   2.498   2.787   2.042  0.1566  0.2927  0.2185
 5946TIP3    H139397   2.438   2.713   2.047  0.2766  0.1921  0.1641
 5946TIP3    H239398   2.442   2.862   2.020 -0.3064  0.6229  2.2568
 5947TIP3   OH239399   2.717   0.245   7.852  0.0415 -0.8547  0.2466
 5947TIP3    H139400   2.800   0.290   7.835 -0.2861 -0.6371 -0.8577
 5947TIP3    H239401   2.727   0.209   7.940  0.2002  1.6108  1.3155
 5948TIP3   OH239402   3.829   2.247   0.144  0.0376  0.0856 -0.0636
 5948TIP3    H139403   3.754   2.226   0.088 -0.3359 -3.1593  1.4046
 5948TIP3    H239404   3.905   2.226   0.091 -0.2950 -2.0787  0.2082
 5949TIP3   OH239405   1.955   6.745   8.488  0.4440 -0.2148  0.3239
 5949TIP3    H139406   1.912   6.690   8.553  0.5020 -1.1187 -0.3812
 5949TIP3    H239407   1.967   6.688   8.412  0.8771  0.6575 -0.2843
 5950TIP3   OH239408   3.721   5.148   0.104 -0.1605  0.4665  0.2584
 5950TIP3    H139409   3.813   5.144   0.079 -0.7610 -0.1104 -2.1576
 5950TIP3    H239410   3.715   5.226   0.160  1.5320  1.4556 -0.8163
 5951TIP3   OH239411   1.135   5.797   7.798 -0.3973 -0.6333  0.0111
 5951TIP3    H139412   1.181   5.874   7.833 -2.7730  1.4478 -1.1171
 5951TIP3    H239413   1.162   5.725   7.855  3.8314  0.4240 -0.3170
 5952TIP3   OH239414   6.397   2.921   0.774  0.3044  0.1862 -0.1429
 5952TIP3    H139415   6.419   3.012   0.754 -0.7951  0.7023  0.8818
 5952TIP3    H239416   6.466   2.891   0.832  0.6725  0.3618 -0.4892
 5953TIP3   OH239417   6.685   4.102   8.776  0.0240 -0.0348 -0.0366
 5953TIP3    H139418   6.725   4.126   8.692  0.4675  0.4718  0.3110
 5953TIP3    H239419   6.643   4.018   8.759  2.6392 -1.4357  0.0193
 5954TIP3   OH239420   0.782   1.958   1.831  0.6188  0.0892 -0.1438
 5954TIP3    H139421   0.807   1.881   1.780  2.0134  0.5741 -0.2408
 5954TIP3    H239422   0.706   1.930   1.882 -1.3125 -0.2009 -2.9999
 5955TIP3   OH239423   2.717   5.256   8.456  0.0214 -0.1294  0.2493
 5955TIP3    H139424   2.749   5.315   8.524  1.0400  0.5541 -0.7896
 5955TIP3    H239425   2.713   5.310   8.377 -0.5563 -1.0585 -0.3797
 5956TIP3   OH239426   6.274   6.415   0.070  0.1949 -0.5203 -0.3329
 5956TIP3    H139427   6.229   6.393  -0.011 -1.6122  1.1263  0.1518
 5956TIP3    H239428   6.318   6.334   0.096 -0.4221 -1.4936 -2.1393
 5957TIP3   OH239429   5.048   2.456   7.988  0.4576 -0.3468  0.6148
 5957TIP3    H139430   5.058   2.511   7.911  1.8463  0.2166  1.1708
 5957TIP3    H239431   5.075   2.369   7.959  0.9779 -0.1369  0.4585
 5958TIP3   OH239432   1.212   3.908   6.892 -0.3058  0.2041  0.0817
 5958TIP3    H139433   1.292   3.942   6.932  1.1068 -1.5671 -1.0781
 5958TIP3    H239434   1.186   3.975   6.829  0.4191  0.6742  0.2741
 5959TIP3   OH239435   6.250   0.789   7.363  0.3156  0.0033 -0.3545
 5959TIP3    H139436   6.345   0.780   7.371  0.3384 -1.5909 -1.7679
 5959TIP3    H239437   6.238   0.844   7.286  0.1109 -0.3797 -0.6017
 5960TIP3   OH239438   2.262   0.972   1.862 -0.2119  0.0450  0.4424
 5960TIP3    H139439   2.296   0.884   1.877 -1.4138 -0.6402 -0.6634
 5960TIP3    H239440   2.171   0.967   1.889  0.3986  1.8434  3.3191
 5961TIP3   OH239441   6.450   4.061   1.561 -0.2284 -0.6491 -0.1095
 5961TIP3    H139442   6.448   4.080   1.467  1.1430 -0.0865 -0.0539
 5961TIP3    H239443   6.480   3.970   1.567 -1.0552 -0.9361 -0.2255
 5962TIP3   OH239444   0.089   3.328   6.247  0.0623  0.5999 -0.1724
 5962TIP3    H139445   0.008   3.375   6.269 -0.4265 -0.4835  0.3901
 5962TIP3    H239446   0.153   3.398   6.231 -0.5116  1.4648  1.1221
 5963TIP3   OH239447   0.895   6.103   6.562  0.0430  0.5469  0.1347
 5963TIP3    H139448   0.934   6.027   6.518 -0.3094  1.0243 -1.0467
 5963TIP3    H239449   0.819   6.068   6.608 -1.2268  0.4435 -1.9382
 5964TIP3   OH239450   6.212   2.645   8.266 -0.2612  0.0840 -0.0415
 5964TIP3    H139451   6.164   2.723   8.237  0.5822  0.4133 -0.5918
 5964TIP3    H239452   6.160   2.610   8.339 -0.9176  0.8623 -0.1239
 5965TIP3   OH239453   3.737   0.297   1.072 -0.0066  0.0592  0.2122
 5965TIP3    H139454   3.795   0.232   1.111  0.0347 -0.1613 -0.2131
 5965TIP3    H239455   3.765   0.380   1.110  0.9170  0.0264 -0.3627
 5966TIP3   OH239456   6.613   4.149   8.271 -0.2055 -0.0525 -0.4801
 5966TIP3    H139457   6.634   4.240   8.248  2.3020 -0.2766  0.5811
 5966TIP3    H239458   6.599   4.106   8.187  0.5157  0.9163 -1.1326
 5967TIP3   OH239459   3.199   2.833   1.050  0.0280 -0.4363  0.4254
 5967TIP3    H139460   3.132   2.900   1.038 -1.6399 -2.2674 -1.3314
 5967TIP3    H239461   3.196   2.812   1.143 -0.1704  1.1613  0.7969
 5968TIP3   OH239462   5.542   2.315   0.464  0.2928  0.4107  0.2434
 5968TIP3    H139463   5.472   2.308   0.399  0.1858  0.5498  0.3436
 5968TIP3    H239464   5.601   2.381   0.428  0.5914 -0.0101 -0.0438
 5969TIP3   OH239465   6.516   2.516   0.125 -0.1551 -0.2006  0.0158
 5969TIP3    H139466   6.575   2.586   0.153  0.2521  0.0592 -1.4203
 5969TIP3    H239467   6.432   2.540   0.163 -0.3681  1.8710 -1.5764
 5970TIP3   OH239468   6.310   2.320   7.945  0.0382 -0.4989  0.4944
 5970TIP3    H139469   6.228   2.271   7.940 -0.3726  0.2644 -0.6338
 5970TIP3    H239470   6.325   2.331   8.039 -1.7851  0.3614  0.7384
 5971TIP3   OH239471   6.382   2.516   2.138  0.3700 -0.2375 -0.0852
 5971TIP3    H139472   6.373   2.425   2.163  2.3024 -0.5029 -0.2063
 5971TIP3    H239473   6.477   2.532   2.137  0.0841  1.7925  0.0363
 5972TIP3   OH239474   2.237   3.227   7.253 -0.2272  0.1470  0.3773
 5972TIP3    H139475   2.215   3.139   7.221  0.2856  0.3912 -0.6755
 5972TIP3    H239476   2.160   3.280   7.231 -0.4223  0.0344  0.7672
 5973TIP3   OH239477   2.614   0.559   7.865 -0.2346 -0.6576 -0.3670
 5973TIP3    H139478   2.670   0.508   7.806 -0.0138  1.0064 -1.7186
 5973TIP3    H239479   2.674   0.592   7.932  0.0343 -0.5197 -0.6681
 5974TIP3   OH239480   6.221   1.315   7.411 -0.2406  0.3589 -0.2341
 5974TIP3    H139481   6.282   1.248   7.377  0.8108  0.3498  1.5342
 5974TIP3    H239482   6.268   1.354   7.484 -1.7712  1.4837  0.1835
 5975TIP3   OH239483   1.077   0.011   7.983 -0.0068  0.0880  0.0688
 5975TIP3    H139484   1.069  -0.031   8.069 -0.0380 -0.1374 -0.0445
 5975TIP3    H239485   1.168  -0.004   7.957  0.4896  1.5828  0.8026
 5976TIP3   OH239486   2.681   2.862   0.835  0.3685 -0.0965 -0.3262
 5976TIP3    H139487   2.689   2.871   0.740  2.7574  1.5268 -0.0724
 5976TIP3    H239488   2.662   2.951   0.865 -1.0940 -0.7237  0.7113
 5977TIP3   OH239489   5.563   6.159   8.215 -0.4704 -0.1472  0.0854
 5977TIP3    H139490   5.643   6.107   8.227  0.4552  0.6530 -2.0280
 5977TIP3    H239491   5.571   6.230   8.279  0.5459 -0.0671 -0.1099
 5978TIP3   OH239492   1.415   2.997   0.093 -0.4241  0.1286 -0.1032
 5978TIP3    H139493   1.502   2.959   0.080 -0.2209  0.2635  0.8101
 5978TIP3    H239494   1.427   3.061   0.163 -1.3442 -0.1641  0.3375
 5979TIP3   OH239495   2.064   2.685   8.591 -0.0317 -0.3775  0.2773
 5979TIP3    H139496   2.148   2.691   8.546  0.0277 -0.8737  0.3162
 5979TIP3    H239497   2.026   2.772   8.584 -1.2541 -1.0274 -3.0964
 5980TIP3   OH239498   5.178   2.354   6.536 -0.1681  0.4267 -0.2487
 5980TIP3    H139499   5.113   2.425   6.535  0.1797  0.7469 -0.4522
 5980TIP3    H239500   5.219   2.359   6.450 -0.2775 -0.1532 -0.3383
 5981TIP3   OH239501   4.103   3.805   7.857  0.0122 -0.0023 -0.0787
 5981TIP3    H139502   4.140   3.716   7.852 -0.7602 -0.3791  0.6645
 5981TIP3    H239503   4.009   3.792   7.844 -0.1073  0.7157  0.0438
 5982TIP3   OH239504   5.579   0.484   6.910 -0.4439 -0.2249  0.6749
 5982TIP3    H139505   5.632   0.469   6.832 -1.3021 -0.1064  0.0553
 5982TIP3    H239506   5.579   0.400   6.955 -1.5502 -0.8820 -0.4736
 5983TIP3   OH239507   6.501   6.441   8.296  0.1775 -0.5224 -0.0044
 5983TIP3    H139508   6.469   6.356   8.266 -0.5522 -0.3754  0.3600
 5983TIP3    H239509   6.465   6.504   8.234  2.5950 -0.6521 -1.7012
 5984TIP3   OH239510   6.286   0.406   7.759 -0.4573  0.2749 -0.5790
 5984TIP3    H139511   6.198   0.378   7.733 -0.0608  0.2812 -2.0193
 5984TIP3    H239512   6.320   0.452   7.682  0.9412 -0.0487 -0.1785
 5985TIP3   OH239513   4.196   2.743   8.056  0.0144  0.2786 -0.1564
 5985TIP3    H139514   4.253   2.812   8.022 -1.0616  0.6997 -1.2065
 5985TIP3    H239515   4.252   2.667   8.064  1.2192  1.2304  0.9596
 5986TIP3   OH239516   4.962   6.397   8.668  0.2196 -0.3942  0.3613
 5986TIP3    H139517   4.938   6.325   8.727 -1.2321 -0.0217  0.2642
 5986TIP3    H239518   4.972   6.473   8.726  0.6104 -0.4228  0.3332
 5987TIP3   OH239519   4.659   1.166   8.092  0.1337  0.0021  0.1715
 5987TIP3    H139520   4.684   1.258   8.105  0.1717 -0.0306  0.3355
 5987TIP3    H239521   4.740   1.117   8.108 -0.0167 -0.0992  0.6322
 5988TIP3   OH239522   5.906   6.533   6.367 -0.4692  0.2125  0.2003
 5988TIP3    H139523   5.851   6.572   6.299  0.0025 -1.1446 -0.9961
 5988TIP3    H239524   5.951   6.608   6.407  0.6043  0.9457 -2.2007
 5989TIP3   OH239525   0.393   5.934   0.706  0.0263 -0.0343 -0.3867
 5989TIP3    H139526   0.303   5.904   0.716  0.2691 -0.4284  0.7245
 5989TIP3    H239527   0.440   5.859   0.669  0.2331 -0.3945  0.5860
 5990TIP3   OH239528   6.507   2.254   1.143  0.2990  0.5128 -0.6173
 5990TIP3    H139529   6.415   2.231   1.127  0.3562 -0.2580  0.0682
 5990TIP3    H239530   6.550   2.242   1.058  0.1553 -1.1791 -0.5025
 5991TIP3   OH239531   4.379   0.408   7.568 -0.4038 -0.1009  0.1375
 5991TIP3    H139532   4.298   0.423   7.617 -0.3765  2.1188 -0.3998
 5991TIP3    H239533   4.361   0.330   7.515 -1.9970  0.0678  0.3895
 5992TIP3   OH239534   0.285   2.764   0.886  0.3412  0.4669 -0.2124
 5992TIP3    H139535   0.204   2.736   0.927  0.4445  0.2268 -0.1718
 5992TIP3    H239536   0.349   2.768   0.958  1.1329 -2.2162 -0.6714
 5993TIP3   OH239537   4.818   2.826   7.317  0.0762  0.0627  0.1005
 5993TIP3    H139538   4.749   2.865   7.264 -0.9304 -0.6504  0.8315
 5993TIP3    H239539   4.780   2.743   7.348  0.7421  0.3036  1.6518
 5994TIP3   OH239540   0.462   0.199   6.939 -0.1901 -0.5241 -0.5925
 5994TIP3    H139541   0.457   0.294   6.937  0.5504 -0.4757 -0.3501
 5994TIP3    H239542   0.479   0.173   6.849  0.2090 -0.3816 -0.5618
 5995TIP3   OH239543   0.518   2.404   1.533  0.3254  0.0902  0.0543
 5995TIP3    H139544   0.433   2.359   1.533 -1.1981  2.7000 -1.4461
 5995TIP3    H239545   0.502   2.485   1.581  2.3106  0.1612  0.6766
 5996TIP3   OH239546   2.195   5.112   0.346  0.5338 -0.0516  0.6092
 5996TIP3    H139547   2.247   5.104   0.425  0.0783  0.7215  1.0004
 5996TIP3    H239548   2.176   5.206   0.339  2.1495  0.1987 -1.4488
 5997TIP3   OH239549   6.210   0.910   2.179  0.4182  0.1858  0.2887
 5997TIP3    H139550   6.274   0.862   2.127 -1.1455 -1.4415 -0.2310
 5997TIP3    H239551   6.155   0.843   2.220  0.0097  1.4838  2.0090
 5998TIP3   OH239552   0.677   4.128   1.241 -0.2211 -0.2573  0.3206
 5998TIP3    H139553   0.613   4.181   1.194 -0.9878  0.9982  2.5810
 5998TIP3    H239554   0.714   4.188   1.306  0.4755 -1.9431  1.5579
 5999TIP3   OH239555   4.033   1.588   0.140  0.3378 -0.1531  0.2042
 5999TIP3    H139556   4.044   1.677   0.174  1.0803  0.4799 -1.5929
 5999TIP3    H239557   3.939   1.570   0.152  0.1714  0.8730  0.5767
 6000TIP3   OH239558   5.049   1.938   1.263 -0.1559 -0.0078 -0.0060
 6000TIP3    H139559   5.085   2.024   1.242  0.1849  0.4211  2.0807
 6000TIP3    H239560   5.032   1.942   1.357 -1.3914 -1.7795 -0.1114
 6001TIP3   OH239561   4.541   5.270   0.706  0.6345  0.6877 -0.0304
 6001TIP3    H139562   4.499   5.198   0.752 -0.5527  1.5040  0.2362
 6001TIP3    H239563   4.552   5.239   0.616  0.3903  0.0820  0.1487
 6002TIP3   OH239564   2.502   4.509   0.221 -0.1717 -0.2239  0.0991
 6002TIP3    H139565   2.494   4.420   0.186 -2.4043 -0.2922  0.6303
 6002TIP3    H239566   2.572   4.503   0.286 -0.3501 -1.6352  0.2049
 6003TIP3   OH239567   2.298   6.228   1.958 -0.0250  0.3619  0.1966
 6003TIP3    H139568   2.242   6.296   1.995  0.2602 -0.2380  1.8184
 6003TIP3    H239569   2.386   6.251   1.987  0.2986  0.1322 -0.5533
 6004TIP3   OH239570   1.966   4.544   7.795 -0.0442 -0.2284 -0.1403
 6004TIP3    H139571   1.888   4.597   7.813  0.4378  0.6001 -0.4285
 6004TIP3    H239572   1.934   4.454   7.789 -0.9464  0.0865 -0.0857
 6005TIP3   OH239573   0.347   3.327   6.806 -0.2199  0.6255 -0.1128
 6005TIP3    H139574   0.432   3.285   6.822 -1.2661 -1.8657 -0.6054
 6005TIP3    H239575   0.324   3.301   6.717 -1.5889  1.0726  0.0848
 6006TIP3   OH239576   1.765   6.089   7.142  0.1568 -0.1448  0.3531
 6006TIP3    H139577   1.752   5.996   7.159  1.8566 -0.2087  1.5321
 6006TIP3    H239578   1.853   6.108   7.176  0.0996  1.7545 -0.4234
 6007TIP3   OH239579   3.425   6.305   6.845  0.4755 -0.3632  0.7106
 6007TIP3    H139580   3.416   6.220   6.888  0.8900  0.2690  2.1152
 6007TIP3    H239581   3.519   6.317   6.836  0.3827 -0.6507 -0.7497
 6008TIP3   OH239582   0.533   3.300   7.769 -0.4465 -0.3233  0.4648
 6008TIP3    H139583   0.616   3.304   7.721 -0.7223 -0.1517 -0.0113
 6008TIP3    H239584   0.477   3.363   7.724 -0.7075 -0.1481  1.0347
 6009TIP3   OH239585   1.052   2.380   0.949 -0.0152 -0.5674  0.0869
 6009TIP3    H139586   1.103   2.457   0.971 -2.3971  1.3775 -0.7793
 6009TIP3    H239587   0.995   2.366   1.024 -1.5296  0.2941 -0.8462
 6010TIP3   OH239588   5.039   1.205   6.149 -0.4344  0.5412 -0.1645
 6010TIP3    H139589   4.977   1.262   6.103  0.7463  3.5682  1.6546
 6010TIP3    H239590   5.121   1.254   6.149  1.1684 -1.9605  0.1491
 6011TIP3   OH239591   0.349   3.228   8.256 -0.3824 -0.1110 -0.2303
 6011TIP3    H139592   0.401   3.193   8.184  1.1872 -0.3962  0.9639
 6011TIP3    H239593   0.373   3.320   8.261 -2.2362  0.4858 -1.4763
 6012TIP3   OH239594   3.425   3.822   8.754 -0.6013 -0.1873 -0.6288
 6012TIP3    H139595   3.518   3.798   8.749 -1.0366 -2.3050  0.3096
 6012TIP3    H239596   3.380   3.757   8.700 -1.9132 -2.2217  2.5890
 6013TIP3   OH239597   5.731   4.559   7.280  0.7365  0.4866 -0.1048
 6013TIP3    H139598   5.677   4.543   7.203 -0.4043  2.0602  0.3307
 6013TIP3    H239599   5.796   4.623   7.251 -0.2230  1.7393  0.4170
 6014TIP3   OH239600   4.568   3.094   1.307 -0.0653  0.0365 -0.6914
 6014TIP3    H139601   4.480   3.089   1.346  0.5595 -1.4335  0.6489
 6014TIP3    H239602   4.619   3.145   1.369  1.0841 -2.8093  0.8875
 6015TIP3   OH239603   3.050   3.388   1.519  0.1466  0.1465 -0.0575
 6015TIP3    H139604   3.043   3.310   1.575  0.3675  0.0368 -0.1800
 6015TIP3    H239605   2.963   3.426   1.519 -0.6206 -1.4608 -1.9700
 6016TIP3   OH239606   5.311   3.781   1.249 -0.0360 -0.6638 -0.1144
 6016TIP3    H139607   5.346   3.823   1.171 -0.4546 -1.1545 -0.5693
 6016TIP3    H239608   5.266   3.851   1.296  1.1108 -0.1340  0.2253
 6017TIP3   OH239609   2.002   2.028   8.720 -0.1649  0.2032 -0.0087
 6017TIP3    H139610   1.941   2.081   8.669  1.1221  0.3235 -1.5080
 6017TIP3    H239611   2.045   1.971   8.656  0.6749 -0.4915  1.1149
 6018TIP3   OH239612   1.992   5.904   7.591 -0.9700 -0.2088  0.6708
 6018TIP3    H139613   1.935   5.832   7.566  0.5511 -1.2310 -0.0578
 6018TIP3    H239614   1.981   5.912   7.686 -1.4924 -1.1241  0.6983
 6019TIP3   OH239615   4.786   1.278   1.268 -0.2175 -0.3576 -0.2315
 6019TIP3    H139616   4.773   1.348   1.205  0.1474 -0.5456 -0.5258
 6019TIP3    H239617   4.709   1.222   1.259 -0.9079  0.4369  0.5886
 6020TIP3   OH239618   6.081   4.272   7.438  0.2675 -0.3825  0.4569
 6020TIP3    H139619   6.011   4.223   7.394  0.7080  0.4610 -1.2473
 6020TIP3    H239620   6.160   4.221   7.421  0.9664  1.4604 -2.4878
 6021TIP3   OH239621   0.369   4.742   6.444 -0.2691  0.2184  0.0176
 6021TIP3    H139622   0.347   4.788   6.364  2.4475 -1.3116 -1.7797
 6021TIP3    H239623   0.462   4.762   6.459 -0.2519 -0.8951  1.8247
 6022TIP3   OH239624   6.099   6.541   1.365  0.0879  0.2964 -0.4902
 6022TIP3    H139625   6.186   6.581   1.368 -0.2464  1.2065 -2.0492
 6022TIP3    H239626   6.112   6.458   1.318  0.2746 -0.1041  0.2396
 6023TIP3   OH239627   0.708   3.771   7.776 -0.3605  0.3710 -0.1213
 6023TIP3    H139628   0.688   3.863   7.758 -0.7090  0.1258 -1.0498
 6023TIP3    H239629   0.677   3.724   7.698 -1.4390 -0.6934  0.8997
 6024TIP3   OH239630   0.754   4.716   0.724  0.0820 -0.2455  0.1952
 6024TIP3    H139631   0.733   4.635   0.677 -0.8327  0.3623 -0.4950
 6024TIP3    H239632   0.760   4.782   0.655  3.4727 -0.1444  0.4251
 6025TIP3   OH239633   5.376   3.372   6.896  0.1448  0.3447  0.2944
 6025TIP3    H139634   5.413   3.367   6.808  2.0786 -1.3442  1.1365
 6025TIP3    H239635   5.357   3.282   6.921  1.1914  0.5842  2.1997
 6026TIP3   OH239636   1.790   1.728   8.196  0.2258  0.4466  0.2002
 6026TIP3    H139637   1.797   1.724   8.100 -0.1505  0.0222  0.1883
 6026TIP3    H239638   1.876   1.699   8.227 -0.0099 -0.4847  0.0021
 6027TIP3   OH239639   3.578   3.133   1.027 -0.6388 -0.2529 -0.2220
 6027TIP3    H139640   3.558   3.185   0.949 -1.6296 -0.2754  0.0011
 6027TIP3    H239641   3.639   3.188   1.078 -0.2694 -0.0865 -0.8352
 6028TIP3   OH239642   5.575   4.202   8.385  0.2977  0.0806 -0.3371
 6028TIP3    H139643   5.518   4.248   8.446 -0.3864 -0.0229 -0.8894
 6028TIP3    H239644   5.639   4.268   8.357  2.2479 -0.4601  2.3842
 6029TIP3   OH239645   1.656   3.981   2.227 -0.0792  0.3596  0.3526
 6029TIP3    H139646   1.572   4.015   2.197  0.1875 -0.4811 -1.4398
 6029TIP3    H239647   1.659   3.892   2.193  1.9683  0.7015 -0.4723
 6030TIP3   OH239648   5.648   2.392   1.820  0.0276  0.0796  0.0861
 6030TIP3    H139649   5.632   2.412   1.912 -1.1975  0.4748 -0.1877
 6030TIP3    H239650   5.582   2.444   1.773  1.7273  1.2424 -1.1231
 6031TIP3   OH239651   2.731   6.413   7.538 -0.3752  0.0310 -0.2298
 6031TIP3    H139652   2.660   6.450   7.487  0.1385 -0.3707 -1.2723
 6031TIP3    H239653   2.725   6.319   7.523  0.1107 -0.0463  0.0231
 6032TIP3   OH239654   1.812   3.584   8.820 -0.0401 -0.1484 -0.4735
 6032TIP3    H139655   1.794   3.613   8.910 -0.8360 -0.9301 -0.3648
 6032TIP3    H239656   1.792   3.661   8.766 -0.4374  0.0540 -0.0516
 6033TIP3   OH239657   2.913   2.429   1.400  0.3987  0.3480 -0.2114
 6033TIP3    H139658   2.982   2.450   1.463  0.3245 -1.4560  0.5282
 6033TIP3    H239659   2.844   2.389   1.452 -0.1896 -0.0792 -1.2798
 6034TIP3   OH239660   0.533   1.861   0.710 -0.1298  0.4666 -0.5834
 6034TIP3    H139661   0.448   1.885   0.746 -0.5973  0.6174 -1.7374
 6034TIP3    H239662   0.548   1.924   0.639  0.2766 -0.4241 -1.3165
 6035TIP3   OH239663   4.924   5.083   7.460 -0.4627  0.2859 -0.0927
 6035TIP3    H139664   4.981   5.159   7.469 -0.8039  0.5405 -0.0536
 6035TIP3    H239665   4.856   5.096   7.526 -1.4320  0.7689 -1.1465
 6036TIP3   OH239666   2.306   5.876   7.608 -0.5879 -0.0937 -0.4187
 6036TIP3    H139667   2.278   5.828   7.686  0.5735 -0.2124 -0.0609
 6036TIP3    H239668   2.390   5.837   7.585 -0.4870  0.5690 -1.1823
 6037TIP3   OH239669   3.382   3.249   1.249 -0.5071  0.2002 -0.1460
 6037TIP3    H139670   3.406   3.193   1.176 -0.7698  0.2988 -0.3098
 6037TIP3    H239671   3.408   3.337   1.222  0.4168  0.0903  0.3386
 6038TIP3   OH239672   5.750   0.654   7.337  0.1293 -0.1910  0.3046
 6038TIP3    H139673   5.730   0.658   7.244 -0.8372  0.3181  0.5141
 6038TIP3    H239674   5.702   0.578   7.369  0.2487 -0.2158  0.4271
 6039TIP3   OH239675   5.280   2.052   1.549 -0.0768  0.5591  0.2504
 6039TIP3    H139676   5.366   2.013   1.531  0.7837  2.1666  0.6779
 6039TIP3    H239677   5.291   2.145   1.530 -1.6433  0.8520  0.6166
 6040TIP3   OH239678   5.991   4.382   1.345  0.0532  0.0745  0.0592
 6040TIP3    H139679   6.082   4.358   1.324 -0.0253  1.0758 -1.6221
 6040TIP3    H239680   5.938   4.324   1.290 -0.2595  0.6014 -0.2050
 6041TIP3   OH239681   2.916   0.270   8.265  0.5278  0.1524  0.0472
 6041TIP3    H139682   2.878   0.341   8.214  0.1099  1.5973  2.2356
 6041TIP3    H239683   3.010   0.274   8.247  0.3272  0.1974 -1.0524
 6042TIP3   OH239684   1.055   4.979   7.675 -0.7983  0.5689 -0.2935
 6042TIP3    H139685   1.126   5.044   7.677 -0.6697  0.4657 -1.0183
 6042TIP3    H239686   0.989   5.018   7.617 -0.7141  0.0536 -0.7404
 6043TIP3   OH239687   0.199   2.072   7.980 -0.3455  0.2895 -0.4463
 6043TIP3    H139688   0.239   2.050   8.063  1.4584 -2.4830 -1.9124
 6043TIP3    H239689   0.252   2.144   7.945  1.5279 -1.2883 -0.9716
 6044TIP3   OH239690   4.974   1.578   7.030  0.1558 -0.0255 -0.8168
 6044TIP3    H139691   4.950   1.492   6.995  0.5360  0.1271 -1.4677
 6044TIP3    H239692   5.057   1.563   7.075  0.9101  0.2525 -2.0747
 6045TIP3   OH239693   4.904   5.516   1.246  0.0873 -0.0390 -0.4395
 6045TIP3    H139694   4.865   5.441   1.290  0.6802  0.8489  1.7521
 6045TIP3    H239695   4.966   5.551   1.310  2.3539  0.3155 -2.6833
 6046TIP3   OH239696   5.300   5.870   1.175  0.2408  0.0090 -0.0794
 6046TIP3    H139697   5.384   5.825   1.177  0.1924 -0.1166 -0.6961
 6046TIP3    H239698   5.322   5.962   1.162  0.3316  0.1594  1.0073
 6047TIP3   OH239699   6.514   1.917   7.993  0.1530 -0.2509  0.6793
 6047TIP3    H139700   6.601   1.950   8.018  0.5870 -0.0486 -0.9986
 6047TIP3    H239701   6.531   1.832   7.952 -0.2874  0.3244 -0.7590
 6048TIP3   OH239702   4.563   4.484   8.540 -0.2140  0.4938 -0.6098
 6048TIP3    H139703   4.576   4.514   8.450  0.5386 -1.5829 -1.2630
 6048TIP3    H239704   4.469   4.470   8.547 -0.3469  1.1935 -0.8767
 6049TIP3   OH239705   0.218   3.013   8.544 -0.2234 -0.0365  0.3571
 6049TIP3    H139706   0.290   3.075   8.559  0.0797 -0.8175  2.4745
 6049TIP3    H239707   0.244   2.965   8.465  1.1235  0.3369  0.5433
 6050TIP3   OH239708   2.845   4.278   7.229  0.1650  0.5182  0.3227
 6050TIP3    H139709   2.920   4.237   7.272 -0.0895  0.4251  0.6842
 6050TIP3    H239710   2.883   4.335   7.163  0.5620  0.5899  0.6126
 6051TIP3   OH239711   5.308   6.559   1.960  0.3585  0.0079  0.1844
 6051TIP3    H139712   5.308   6.634   2.019  0.1355 -0.0191  0.2209
 6051TIP3    H239713   5.221   6.520   1.971  0.4160 -0.1608  0.0465
 6052TIP3   OH239714   4.924   3.846   1.257  0.6170 -0.8990 -0.2113
 6052TIP3    H139715   4.907   3.751   1.259 -0.7612 -0.6741  1.5102
 6052TIP3    H239716   5.001   3.857   1.313 -1.0079 -0.7911  2.1769
 6053TIP3   OH239717   4.375   3.992   8.595 -0.1006  0.3265  0.1336
 6053TIP3    H139718   4.394   4.080   8.629  1.7469  0.4427 -1.0903
 6053TIP3    H239719   4.456   3.943   8.608 -1.1339 -1.2810  0.8869
 6054TIP3   OH239720   4.255   1.422   0.195 -0.0195  0.4200  0.1477
 6054TIP3    H139721   4.192   1.486   0.163  0.0521  0.0036 -0.8667
 6054TIP3    H239722   4.238   1.416   0.289  1.3153  3.4368  0.6930
 6055TIP3   OH239723   4.189   3.445   8.821 -0.3206  0.0068  0.0382
 6055TIP3    H139724   4.104   3.461   8.862 -1.1379 -3.2472 -0.1522
 6055TIP3    H239725   4.169   3.419   8.731  0.6531 -2.2389  0.3859
 6056TIP3   OH239726   4.308   4.225   7.106 -0.2319 -0.3047 -0.2310
 6056TIP3    H139727   4.252   4.155   7.138  0.3087 -1.3910 -1.5450
 6056TIP3    H239728   4.288   4.300   7.162 -1.7893 -1.1265  0.3685
 6057TIP3   OH239729   4.561   2.006   0.873  0.0540  0.0401 -0.3095
 6057TIP3    H139730   4.490   2.064   0.844  0.7568  1.3378  0.4456
 6057TIP3    H239731   4.640   2.044   0.833  0.4258 -0.9619 -0.5526
 6058TIP3   OH239732   1.254   1.136   1.535  0.2970 -0.1866 -0.1671
 6058TIP3    H139733   1.330   1.136   1.478  0.6622 -1.1952  0.2977
 6058TIP3    H239734   1.220   1.047   1.530 -0.5093  0.0989  0.0797
 6059TIP3   OH239735   3.938   4.396   0.374  0.0858  0.3459 -0.3226
 6059TIP3    H139736   3.896   4.461   0.429 -0.9096  0.0819 -0.7553
 6059TIP3    H239737   3.886   4.393   0.294  0.5550 -0.4361 -0.6233
 6060TIP3   OH239738   5.438   5.483   1.015  0.3187  0.6179  0.2626
 6060TIP3    H139739   5.507   5.469   1.080 -0.2025  1.0841  0.9219
 6060TIP3    H239740   5.356   5.468   1.062 -0.0435 -2.6198 -1.1410
 6061TIP3   OH239741   2.684   4.277   0.115 -0.0846  0.0819 -0.5873
 6061TIP3    H139742   2.635   4.313   0.040  0.0883 -0.6750 -1.0724
 6061TIP3    H239743   2.637   4.196   0.137  1.3065 -1.0060 -1.4824
 6062TIP3   OH239744   2.812   4.568   8.368 -0.2866  0.2522 -0.3425
 6062TIP3    H139745   2.718   4.585   8.376 -0.6827 -1.2282 -1.3957
 6062TIP3    H239746   2.840   4.544   8.456 -1.2372 -0.8266 -0.3197
 6063TIP3   OH239747   3.773   3.490   0.831  0.3794  0.1330 -0.2139
 6063TIP3    H139748   3.757   3.453   0.918 -1.6127 -1.2500 -1.1000
 6063TIP3    H239749   3.745   3.581   0.838 -2.6060 -0.7082 -0.1069
 6064TIP3   OH239750   5.920   1.352   8.166  0.5702 -0.6180  0.3129
 6064TIP3    H139751   5.895   1.374   8.076  1.1230  1.6580  0.6680
 6064TIP3    H239752   5.861   1.404   8.221  0.7371 -1.4107  1.2670
 6065TIP3   OH239753   6.326   0.557   8.148  0.3198  0.0408 -0.1260
 6065TIP3    H139754   6.412   0.559   8.107  0.6483 -3.7824  0.0766
 6065TIP3    H239755   6.270   0.609   8.090  2.3373  1.0668 -1.2434
 6066TIP3   OH239756   2.323   1.610   6.757  0.2159 -0.2369  0.3171
 6066TIP3    H139757   2.288   1.683   6.809  0.3824  0.9127 -1.1304
 6066TIP3    H239758   2.268   1.536   6.779 -0.2964  0.4462  1.4297
 6067TIP3   OH239759   3.726   2.845   7.383  0.2457  0.0955 -0.1956
 6067TIP3    H139760   3.642   2.885   7.363 -0.5181 -1.6666 -0.6430
 6067TIP3    H239761   3.712   2.798   7.465  0.7977 -0.2437 -0.2887
 6068TIP3   OH239762   6.560   0.397   7.331  0.2220  0.0129 -0.1300
 6068TIP3    H139763   6.608   0.334   7.276 -0.7852 -0.5568 -0.3965
 6068TIP3    H239764   6.540   0.469   7.272 -0.3963 -0.3595 -0.3917
 6069TIP3   OH239765   3.895   4.744   1.479 -0.1659 -0.0173  0.2776
 6069TIP3    H139766   3.853   4.759   1.564 -0.9554 -0.2239 -0.0662
 6069TIP3    H239767   3.954   4.819   1.468  1.3125 -0.8900  1.8059
 6070TIP3   OH239768   4.975   1.215   1.817 -0.0693  1.0060  0.1105
 6070TIP3    H139769   5.007   1.305   1.820 -0.5569  1.1854 -0.0137
 6070TIP3    H239770   4.925   1.210   1.735 -1.5401  1.1321  0.9637
 6071TIP3   OH239771   1.826   4.716   1.085 -0.2160 -0.7082  0.6953
 6071TIP3    H139772   1.806   4.805   1.113 -0.8946 -0.8112  0.5561
 6071TIP3    H239773   1.895   4.686   1.145  0.6254  0.2066  0.2034
 6072TIP3   OH239774   6.746   5.542   7.065  0.3147  0.1137 -0.0149
 6072TIP3    H139775   6.686   5.610   7.096  0.2209 -0.5238  1.2623
 6072TIP3    H239776   6.820   5.545   7.126 -0.8334 -2.5891  1.6904
 6073TIP3   OH239777   1.346   3.572   1.649  0.2278 -0.2663 -0.1301
 6073TIP3    H139778   1.283   3.506   1.676  1.2062 -1.6717 -1.1190
 6073TIP3    H239779   1.342   3.639   1.718 -2.2584 -0.3118 -0.1548
 6074TIP3   OH239780   1.348   6.798   7.930  0.3631 -0.5388 -0.0344
 6074TIP3    H139781   1.372   6.873   7.984 -1.1842 -1.2072  1.7024
 6074TIP3    H239782   1.425   6.742   7.931  0.5490 -0.2895  1.0990
 6075TIP3   OH239783   0.740   3.059   6.973  0.4869  0.1139  0.3294
 6075TIP3    H139784   0.808   3.015   7.023  1.0917 -0.1029 -0.6555
 6075TIP3    H239785   0.675   2.990   6.956 -1.4644  0.9307  3.6752
 6076TIP3   OH239786   2.613   1.767   7.811 -0.2703  0.1522  0.1050
 6076TIP3    H139787   2.667   1.839   7.844  0.0741 -0.1715  0.2601
 6076TIP3    H239788   2.615   1.777   7.716 -1.8790  1.5251  0.1900
 6077TIP3   OH239789   4.175   4.249   0.825 -0.3470 -0.2613 -0.7064
 6077TIP3    H139790   4.162   4.154   0.823  0.1474 -0.4239  1.7090
 6077TIP3    H239791   4.115   4.282   0.758 -0.3091 -2.2756 -1.8207
 6078TIP3   OH239792   0.131   2.459   8.725 -0.2328 -0.1218  0.2935
 6078TIP3    H139793   0.180   2.507   8.792  0.0751  0.0318 -0.0335
 6078TIP3    H239794   0.051   2.430   8.769 -0.1367  0.1660  0.6638
 6079TIP3   OH239795   1.393   6.162   0.483 -0.0499  0.0423  0.3917
 6079TIP3    H139796   1.433   6.244   0.512 -1.8845  0.7803  0.9993
 6079TIP3    H239797   1.328   6.189   0.418 -0.9034 -0.8932  0.8362
 6080TIP3   OH239798   2.464   2.116   6.937  0.3404 -0.3478  0.2581
 6080TIP3    H139799   2.547   2.102   6.983  0.8334 -0.7283 -0.7219
 6080TIP3    H239800   2.479   2.080   6.849  0.7422  3.6576 -1.5255
 6081TIP3   OH239801   6.336   3.446   0.534 -0.4303  0.3074 -0.0190
 6081TIP3    H139802   6.277   3.507   0.489 -0.8025 -0.6308 -0.8240
 6081TIP3    H239803   6.424   3.480   0.515 -0.6553  1.0897  0.2819
 6082TIP3   OH239804   6.346   2.409   7.336  0.1354 -0.4110  0.1744
 6082TIP3    H139805   6.413   2.414   7.267  0.9121 -0.2947  0.9119
 6082TIP3    H239806   6.286   2.341   7.307  0.1280  0.0428 -0.8924
 6083TIP3   OH239807   4.023   0.566   7.416  0.4021  0.1437 -0.1149
 6083TIP3    H139808   3.996   0.475   7.422 -0.5606  0.2782 -1.7932
 6083TIP3    H239809   3.946   0.612   7.384  1.4011  1.2520 -1.0176
 6084TIP3   OH239810   0.726   1.684   0.508  0.0088  0.3629 -0.0352
 6084TIP3    H139811   0.677   1.602   0.516  1.8371 -0.7053  1.1176
 6084TIP3    H239812   0.766   1.680   0.422  0.2104 -0.0482  0.0732
 6085TIP3   OH239813   6.781   3.210   0.863  0.3615  0.0106 -0.5147
 6085TIP3    H139814   6.842   3.262   0.811 -0.4977  0.5017 -1.0573
 6085TIP3    H239815   6.800   3.120   0.839  0.3229  0.2044 -1.3232
 6086TIP3   OH239816   5.118   4.003   7.177  0.0432 -0.3504 -0.4083
 6086TIP3    H139817   5.140   3.910   7.171  0.3996 -0.2214 -1.3951
 6086TIP3    H239818   5.034   4.006   7.222  0.2943 -1.1084  0.1291
 6087TIP3   OH239819   1.776   2.189   0.777 -0.7603  0.6642  0.1633
 6087TIP3    H139820   1.720   2.230   0.712 -1.8688  0.9689  1.2853
 6087TIP3    H239821   1.726   2.193   0.859  0.5020  0.0952  0.9976
 6088TIP3   OH239822   1.544   3.170   8.052  0.6748  0.4245 -0.4585
 6088TIP3    H139823   1.505   3.132   7.973 -1.3222  1.9559 -0.2886
 6088TIP3    H239824   1.620   3.220   8.020  0.5853  0.0665 -1.2500
 6089TIP3   OH239825   2.576   5.823   7.602  0.1808  0.0113  0.3561
 6089TIP3    H139826   2.585   5.773   7.683  0.6551 -0.3445  0.0863
 6089TIP3    H239827   2.632   5.778   7.539 -2.9100 -1.8980 -1.2345
 6090TIP3   OH239828   3.417   6.412   1.458 -0.4222  0.3381 -0.3402
 6090TIP3    H139829   3.358   6.451   1.393  0.6161  0.7774 -1.0369
 6090TIP3    H239830   3.372   6.426   1.542 -1.3649  0.5470 -0.8620
 6091TIP3   OH239831   1.168   1.700   0.574 -0.0775 -0.5791 -0.1301
 6091TIP3    H139832   1.159   1.631   0.508  1.2697 -0.0263 -0.9452
 6091TIP3    H239833   1.080   1.712   0.609 -1.2166  0.1774 -2.9718
 6092TIP3   OH239834   0.624   0.931   6.743 -0.6652 -0.8782 -0.8645
 6092TIP3    H139835   0.716   0.912   6.723 -0.3555 -2.5893  1.7006
 6092TIP3    H239836   0.596   0.989   6.673  3.5517  3.2943  0.4044
 6093TIP3   OH239837   4.989   0.753   7.532 -0.0076 -0.0837  0.1391
 6093TIP3    H139838   4.924   0.687   7.557  1.2302 -2.1151 -1.6784
 6093TIP3    H239839   5.064   0.736   7.589  1.6197 -2.6601 -2.5231
 6094TIP3   OH239840   1.289   1.279   8.480 -0.0350  0.4514 -0.6666
 6094TIP3    H139841   1.243   1.226   8.545 -0.4460 -0.3200 -1.5661
 6094TIP3    H239842   1.229   1.284   8.406 -0.3948  2.9858 -0.2656
 6095TIP3   OH239843   5.410   3.791   8.610  0.2548  0.1543 -0.2176
 6095TIP3    H139844   5.427   3.697   8.605 -1.5551 -0.2989  1.1249
 6095TIP3    H239845   5.422   3.813   8.703 -1.9146  0.6660 -0.0153
 6096TIP3   OH239846   3.191   6.551   8.654  0.2229 -0.2205  0.3310
 6096TIP3    H139847   3.275   6.516   8.682  0.4580 -0.1884 -0.3056
 6096TIP3    H239848   3.176   6.510   8.568 -1.1003 -1.3501  1.0644
 6097TIP3   OH239849   1.175   5.917   0.985 -0.5438 -0.8500 -0.2862
 6097TIP3    H139850   1.211   5.828   0.984 -0.7880 -0.9500 -0.2908
 6097TIP3    H239851   1.109   5.916   1.055  1.4372  0.1318  1.7153
 6098TIP3   OH239852   4.555   3.429   7.869  0.2033 -0.0447  0.2312
 6098TIP3    H139853   4.491   3.365   7.899  1.9440 -2.0244 -0.0318
 6098TIP3    H239854   4.619   3.436   7.940 -0.7527  2.7291  0.9645
 6099TIP3   OH239855   4.741   5.530   0.170  0.4900  0.0435 -0.3463
 6099TIP3    H139856   4.672   5.520   0.235  0.5514  0.4852 -0.2056
 6099TIP3    H239857   4.750   5.625   0.160 -0.5831  0.0184 -2.1138
 6100TIP3   OH239858   1.653   5.818   7.152 -0.2584 -0.3513  0.5576
 6100TIP3    H139859   1.729   5.772   7.190  0.0960 -0.9391 -0.8059
 6100TIP3    H239860   1.618   5.757   7.088 -1.6612  0.0900  0.8832
 6101TIP3   OH239861   3.059   1.234   0.926  0.2182 -0.5648 -0.0832
 6101TIP3    H139862   3.067   1.138   0.924 -0.6022 -0.7086  1.7070
 6101TIP3    H239863   2.995   1.251   0.995  0.7243  1.3116 -0.0384
 6102TIP3   OH239864   0.729   2.794   8.568 -0.3761  0.0303 -0.4142
 6102TIP3    H139865   0.672   2.867   8.544 -2.0489 -1.7016 -1.9795
 6102TIP3    H239866   0.697   2.767   8.655  0.2464  1.1064  0.1693
 6103TIP3   OH239867   1.509   0.787   1.439  0.2203 -0.6981  0.0809
 6103TIP3    H139868   1.429   0.796   1.491  0.3767 -0.8028  0.3445
 6103TIP3    H239869   1.492   0.836   1.359  0.5065  0.6893  0.8367
 6104TIP3   OH239870   3.829   4.461   0.117  1.3292  0.1268  0.4563
 6104TIP3    H139871   3.805   4.411   0.039  0.9300  0.5221  0.3187
 6104TIP3    H239872   3.849   4.548   0.084  2.1195  0.0341  0.6816
 6105TIP3   OH239873   0.065   4.889   1.390  0.4425  0.0031  0.5074
 6105TIP3    H139874   0.011   4.957   1.348  0.9318  0.3644  0.4479
 6105TIP3    H239875   0.153   4.904   1.355  1.3884  1.7802  3.3269
 6106TIP3   OH239876   2.091   3.849   1.808  0.3809 -0.1892 -0.1847
 6106TIP3    H139877   2.049   3.927   1.846 -1.1158 -0.8035 -0.5111
 6106TIP3    H239878   2.130   3.804   1.883  0.2347  0.2657  0.1703
 6107TIP3   OH239879   1.979   4.994   0.495 -0.6328  0.0520 -0.8100
 6107TIP3    H139880   2.064   5.009   0.452  0.7456 -0.5626  1.5028
 6107TIP3    H239881   1.995   4.921   0.555 -1.9043  1.8364  1.9219
 6108TIP3   OH239882   3.518   1.808   0.796 -0.2996  0.0863  0.4453
 6108TIP3    H139883   3.484   1.756   0.869  0.1055 -1.0477 -0.1429
 6108TIP3    H239884   3.463   1.784   0.721  0.3159 -0.0212  0.0175
 6109TIP3   OH239885   4.493   1.625   6.725 -0.1808  0.8731  0.0372
 6109TIP3    H139886   4.475   1.560   6.792  2.0734 -1.5602 -1.5322
 6109TIP3    H239887   4.411   1.631   6.675 -0.4395 -0.7523  0.2325
 6110TIP3   OH239888   0.710   0.995   7.078 -0.1034 -0.3679  0.0015
 6110TIP3    H139889   0.705   1.089   7.059 -1.8989 -0.9038 -2.7444
 6110TIP3    H239890   0.803   0.973   7.070  0.3993  1.1939  1.0776
 6111TIP3   OH239891   1.399   2.857   2.127 -0.1802  0.3648  0.1463
 6111TIP3    H139892   1.473   2.865   2.188 -0.4080 -0.4652  0.5428
 6111TIP3    H239893   1.411   2.771   2.087 -0.6929  0.4130 -0.1080
 6112TIP3   OH239894   6.674   5.016   7.310  0.0865  0.1620  0.0682
 6112TIP3    H139895   6.610   5.020   7.382 -0.3154  0.9254 -0.3282
 6112TIP3    H239896   6.631   4.962   7.244 -0.1303  0.6382 -0.1799
 6113TIP3   OH239897   1.647   2.650   8.024  0.0243 -0.2504 -0.0485
 6113TIP3    H139898   1.564   2.682   7.990  0.6484  2.2152  0.4936
 6113TIP3    H239899   1.712   2.711   7.988  1.4427 -1.3560  0.5363
 6114TIP3   OH239900   6.056   6.544   0.185  0.1867 -1.1243 -0.3092
 6114TIP3    H139901   5.977   6.538   0.131 -0.3047 -3.9850  0.5727
 6114TIP3    H239902   6.127   6.520   0.125  0.0509 -1.1681 -0.4549
 6115TIP3   OH239903   3.141   1.415   6.943 -0.3566  0.1045 -0.1771
 6115TIP3    H139904   3.237   1.420   6.941 -0.3568  3.8478  1.6170
 6115TIP3    H239905   3.115   1.423   6.851  1.0314  0.9664 -0.5217
 6116TIP3   OH239906   0.920   2.322   6.261 -0.3747 -0.0829 -0.2834
 6116TIP3    H139907   1.008   2.285   6.254 -1.7502 -4.0201  0.4843
 6116TIP3    H239908   0.911   2.378   6.184  2.2143 -0.8952 -1.2924
 6117TIP3   OH239909   2.472   5.391   1.404 -0.0029 -0.2065  0.4421
 6117TIP3    H139910   2.442   5.302   1.423 -0.6809 -0.2747 -0.8530
 6117TIP3    H239911   2.563   5.380   1.376 -0.7705 -0.8365 -2.0609
 6118TIP3   OH239912   0.425   5.166   8.250 -0.2097  0.9521  0.3788
 6118TIP3    H139913   0.420   5.258   8.276 -0.2194  1.3695 -1.0031
 6118TIP3    H239914   0.397   5.165   8.159  1.3505 -0.1777 -0.1429
 6119TIP3   OH239915   2.951   4.648   1.228 -0.1945  0.1661 -0.4205
 6119TIP3    H139916   2.965   4.572   1.285  0.0793  1.7744  1.7889
 6119TIP3    H239917   3.011   4.714   1.262 -2.0197  2.1133 -0.8060
 6120TIP3   OH239918   6.225   0.040   8.273 -0.0682 -0.1104 -0.3200
 6120TIP3    H139919   6.221   0.129   8.239 -1.6775  0.7201  1.8272
 6120TIP3    H239920   6.307   0.036   8.322  0.2490  0.0058 -0.8344
 6121TIP3   OH239921   4.571   2.198   1.973  0.5525 -0.6091 -0.1624
 6121TIP3    H139922   4.513   2.175   2.046  1.7552 -0.8323  0.7537
 6121TIP3    H239923   4.519   2.258   1.919 -0.2976 -0.2708  0.9914
 6122TIP3   OH239924   3.039   0.852   1.205 -0.8814  0.0080 -0.0978
 6122TIP3    H139925   3.116   0.889   1.162 -0.8553 -0.1055 -0.1475
 6122TIP3    H239926   3.071   0.774   1.250 -0.7876  0.4550  0.6223
 6123TIP3   OH239927   1.834   0.397   0.682 -0.1362  0.1946  0.1788
 6123TIP3    H139928   1.827   0.335   0.755  1.3892  0.1957  0.3464
 6123TIP3    H239929   1.765   0.461   0.700  0.0721  0.0817  1.5182
 6124TIP3   OH239930   1.500   4.951   0.231 -0.3128 -0.6968 -0.6235
 6124TIP3    H139931   1.533   5.032   0.268 -0.4524  0.2247 -2.3904
 6124TIP3    H239932   1.406   4.951   0.251 -0.6098  0.3521 -1.8556
 6125TIP3   OH239933   2.089   0.414   2.161  0.6351  0.2913  0.0510
 6125TIP3    H139934   2.043   0.352   2.105  0.6833 -2.0733  2.4583
 6125TIP3    H239935   2.181   0.389   2.154  0.5440 -0.7502  1.8732
 6126TIP3   OH239936   0.151   2.873   8.764 -0.1288 -0.8148 -0.4985
 6126TIP3    H139937   0.176   2.912   8.680  0.3250  0.9338  0.4042
 6126TIP3    H239938   0.059   2.848   8.752 -0.1657 -0.2936 -1.4291
 6127TIP3   OH239939   6.002   2.273   8.581 -0.1650  0.0775  0.2828
 6127TIP3    H139940   5.931   2.298   8.640 -0.6401  1.8683 -0.9478
 6127TIP3    H239941   6.060   2.350   8.579 -0.1271  0.0445 -1.4714
 6128TIP3   OH239942   4.561   6.033   6.369 -0.4625 -0.4102 -0.2629
 6128TIP3    H139943   4.630   6.014   6.432  0.1673  3.3145  0.3618
 6128TIP3    H239944   4.480   6.004   6.412  0.4043 -2.5988  0.0061
 6129TIP3   OH239945   0.776   2.554   8.018  0.4537  0.2420 -0.5526
 6129TIP3    H139946   0.775   2.493   7.944  1.2762 -2.3028  1.3941
 6129TIP3    H239947   0.868   2.562   8.041  0.2760  1.6050 -0.2070
 6130TIP3   OH239948   2.464   0.569   0.542  0.1649  0.2408  0.1284
 6130TIP3    H139949   2.469   0.526   0.628 -0.7709 -0.3883 -0.1191
 6130TIP3    H239950   2.386   0.625   0.548 -0.5916 -0.6978 -0.6906
 6131TIP3   OH239951   1.499   1.227   6.955 -0.2108 -0.4336  0.2365
 6131TIP3    H139952   1.530   1.243   6.866 -1.1770 -0.1856 -0.0652
 6131TIP3    H239953   1.404   1.216   6.946 -0.7583  2.4290  1.5824
 6132TIP3   OH239954   0.986   3.396   8.559  0.1500 -0.1932 -0.1443
 6132TIP3    H139955   0.898   3.360   8.572 -0.3748  0.0588 -2.6493
 6132TIP3    H239956   0.976   3.490   8.571  0.5785 -0.3386  1.7221
 6133TIP3   OH239957   5.741   2.397   0.096 -0.7840  0.7122 -0.0391
 6133TIP3    H139958   5.753   2.377   0.003 -2.7491  1.2027 -0.4465
 6133TIP3    H239959   5.729   2.492   0.099  0.3347  0.8427  0.8644
 6134TIP3   OH239960   1.128   2.079   6.564 -1.0118  0.1334  0.5028
 6134TIP3    H139961   1.053   2.139   6.563 -0.2800  1.0759 -1.2515
 6134TIP3    H239962   1.203   2.135   6.583 -0.0033  0.2927 -3.1947
 6135TIP3   OH239963   1.430   2.888   7.010  0.4249 -0.0283  0.6421
 6135TIP3    H139964   1.494   2.848   7.069 -0.8740 -1.1319  1.3721
 6135TIP3    H239965   1.416   2.822   6.942  0.6624  0.5478  0.0253
 6136TIP3   OH239966   2.308   0.321   8.706 -0.4929 -0.0877 -0.0501
 6136TIP3    H139967   2.329   0.291   8.794 -0.0493  0.1876 -0.0577
 6136TIP3    H239968   2.215   0.341   8.708 -0.1045  1.8856  0.9615
 6137TIP3   OH239969   3.706   6.009   7.678  0.1045 -0.4044 -0.0249
 6137TIP3    H139970   3.719   5.952   7.754  0.8311 -0.1850  0.0255
 6137TIP3    H239971   3.629   6.061   7.700  0.4463 -0.1826  0.6740
 6138TIP3   OH239972   6.334   1.669   0.661 -0.4713 -0.3649  0.0925
 6138TIP3    H139973   6.334   1.691   0.568  1.6269  0.9144  0.3423
 6138TIP3    H239974   6.250   1.703   0.694 -0.8578 -0.0669 -1.1516
 6139TIP3   OH239975   4.330   5.501   0.493  0.0206 -0.2930  0.5384
 6139TIP3    H139976   4.238   5.505   0.520 -0.4655 -1.3078 -0.8454
 6139TIP3    H239977   4.341   5.413   0.458  1.4830 -0.1241  0.5160
 6140TIP3   OH239978   2.397   1.193   0.141 -0.3796 -0.5780 -0.2825
 6140TIP3    H139979   2.366   1.105   0.160 -3.0341 -0.8980 -4.8090
 6140TIP3    H239980   2.475   1.181   0.088 -0.3567 -0.1506 -0.3510
 6141TIP3   OH239981   5.640   3.039   7.078  0.4773 -0.0513 -0.5980
 6141TIP3    H139982   5.723   2.991   7.080  1.4297  1.4092 -2.0129
 6141TIP3    H239983   5.665   3.128   7.054 -1.3826  0.7810  0.3417
 6142TIP3   OH239984   0.032   1.636   8.100  0.8613  0.4748 -0.2024
 6142TIP3    H139985   0.059   1.714   8.051 -0.4368 -0.4485 -2.5705
 6142TIP3    H239986  -0.058   1.654   8.125  1.2989  0.6447  1.3269
 6143TIP3   OH239987   0.004   3.136   8.084  0.2115 -0.8305 -0.1905
 6143TIP3    H139988   0.085   3.145   8.035  0.5264 -0.4769  0.3782
 6143TIP3    H239989   0.019   3.185   8.165 -1.3994  1.3518 -1.0790
 6144TIP3   OH239990   3.551   6.056   1.023 -0.4979 -0.8640 -0.1746
 6144TIP3    H139991   3.464   6.032   1.055 -0.6157  0.0152  0.2085
 6144TIP3    H239992   3.598   5.973   1.017 -0.8574 -1.1944  1.1534
 6145TIP3   OH239993   6.233   0.184   7.924  0.3335 -0.5129  0.9167
 6145TIP3    H139994   6.252   0.264   7.875 -0.7664 -0.7973 -0.0364
 6145TIP3    H239995   6.181   0.213   7.999 -2.9184 -0.5489 -1.1232
 6146TIP3   OH239996   5.764   0.137   0.380  0.4416  0.2721  0.1604
 6146TIP3    H139997   5.715   0.054   0.372 -0.4849  0.7576  0.5548
 6146TIP3    H239998   5.712   0.188   0.443  0.7474  1.3344 -0.4411
 6147TIP3   OH239999   5.799   6.449   1.896  0.1755  0.4122  0.5057
 6147TIP3    H140000   5.722   6.400   1.925  1.6192 -2.3194  0.1014
 6147TIP3    H240001   5.788   6.457   1.801  1.0691 -1.4990  0.1794
 6148TIP3   OH240002   1.503   4.275   8.637  0.0912 -0.5142  0.0968
 6148TIP3    H140003   1.454   4.257   8.717 -0.0035 -0.4443  0.0543
 6148TIP3    H240004   1.590   4.302   8.668  0.1618 -0.8219  0.1679
 6149TIP3   OH240005   4.162   2.416   8.179  0.5707 -0.2691  0.1174
 6149TIP3    H140006   4.155   2.411   8.275  2.6807 -0.1933  0.3249
 6149TIP3    H240007   4.106   2.491   8.155  0.0460 -0.2642  1.2779
 6150TIP3   OH240008   1.098   6.151   0.306  0.0076 -0.3663 -0.3795
 6150TIP3    H140009   1.076   6.239   0.275  1.4366  0.2026  0.1300
 6150TIP3    H240010   1.103   6.098   0.226 -0.2277  0.1581 -0.7490
 6151TIP3   OH240011   0.780   1.360   7.984  0.0546  0.2233 -0.0136
 6151TIP3    H140012   0.864   1.321   8.007 -1.3924 -2.5598  0.9321
 6151TIP3    H240013   0.787   1.451   8.013  2.2450 -0.2898  1.2887
 6152TIP3   OH240014   0.969   2.994   8.500 -0.2401 -0.1948  0.7585
 6152TIP3    H140015   1.007   2.984   8.587  0.6164  1.2164  0.5747
 6152TIP3    H240016   1.022   3.062   8.458 -2.6078  1.5368  0.3248
 6153TIP3   OH240017   6.293   0.250   6.618 -0.3908  0.6484  0.3315
 6153TIP3    H140018   6.354   0.248   6.692 -0.5074  1.7020  0.4791
 6153TIP3    H240019   6.227   0.185   6.639  1.1293 -1.1510 -0.2447
 6154TIP3   OH240020   5.616   1.923   2.610  0.2818  0.0472 -0.1272
 6154TIP3    H140021   5.650   1.862   2.546  0.5632 -0.7698  0.7763
 6154TIP3    H240022   5.657   2.007   2.588  0.1513 -0.1497 -1.1698
 6155TIP3   OH240023   0.249   0.986   6.706  0.0588 -0.2234 -0.1487
 6155TIP3    H140024   0.323   1.040   6.734  0.1866 -0.4104 -0.1222
 6155TIP3    H240025   0.278   0.945   6.624 -0.2410  0.1683 -0.4524
 6156TIP3   OH240026   4.361   0.045   8.239 -0.4510 -0.7566 -0.2644
 6156TIP3    H140027   4.354   0.036   8.144  0.7692 -1.3484 -0.3076
 6156TIP3    H240028   4.347  -0.043   8.273 -3.4164 -0.1896  0.3277
 6157TIP3   OH240029   5.093   6.035   0.284  0.3061 -0.3524  0.7742
 6157TIP3    H140030   5.165   6.005   0.228 -0.2164 -0.2324  0.0341
 6157TIP3    H240031   5.079   5.962   0.345 -0.5208 -1.3810 -0.5955
 6158TIP3   OH240032   2.580   3.287   0.419  0.0152 -0.1449  0.2961
 6158TIP3    H140033   2.676   3.287   0.422  0.2842  1.3610 -3.1952
 6158TIP3    H240034   2.556   3.200   0.388  0.4785  0.1734 -1.0174
 6159TIP3   OH240035   5.086   5.389   7.743  0.0305 -0.0297  0.3083
 6159TIP3    H140036   5.041   5.319   7.790 -0.7530 -0.2931 -0.7842
 6159TIP3    H240037   5.142   5.431   7.809  0.1452 -1.3623  1.0909
 6160TIP3   OH240038   2.583   1.621   8.352  0.2116 -0.2418 -0.2567
 6160TIP3    H140039   2.563   1.540   8.306  1.9559 -1.2168  0.6106
 6160TIP3    H240040   2.612   1.681   8.284 -1.3597 -0.2175 -0.9456
 6161TIP3   OH240041   2.228   0.249   0.169  0.0685  0.3511 -0.0709
 6161TIP3    H140042   2.254   0.157   0.165 -1.2352 -0.0526 -0.0007
 6161TIP3    H240043   2.242   0.275   0.260 -0.2776 -0.0144  0.0885
 6162TIP3   OH240044   4.203   0.966   0.749 -0.2525  0.3795  0.2478
 6162TIP3    H140045   4.186   1.047   0.797  0.7754  0.5905  0.2735
 6162TIP3    H240046   4.297   0.966   0.733 -0.3576 -0.4074 -0.4870
 6163TIP3   OH240047   6.478   0.441   0.920 -0.1514  0.2531 -0.0668
 6163TIP3    H140048   6.437   0.355   0.913  0.3062  0.1005 -0.9340
 6163TIP3    H240049   6.551   0.439   0.859 -0.2614  1.3342 -0.2624
 6164TIP3   OH240050   2.911   2.614   7.652 -0.0126 -0.1910  0.1303
 6164TIP3    H140051   2.889   2.596   7.744 -0.1253 -0.7799 -0.0106
 6164TIP3    H240052   2.871   2.700   7.635  0.6243  0.2608  0.8372
 6165TIP3   OH240053   1.775   1.607   8.748  0.7034  0.1131  0.7404
 6165TIP3    H140054   1.684   1.619   8.775  0.3141  1.1507 -0.8393
 6165TIP3    H240055   1.797   1.689   8.704  1.5069 -1.1016 -1.2811
 6166TIP3   OH240056   4.051   2.392   0.406 -0.1862  0.1163  0.0214
 6166TIP3    H140057   4.061   2.359   0.317  0.4669  1.0826 -0.2816
 6166TIP3    H240058   4.097   2.476   0.405  0.8384 -0.3843  1.5714
 6167TIP3   OH240059   5.960   0.990   0.701 -0.4473 -0.1518 -0.4511
 6167TIP3    H140060   5.978   0.897   0.708  1.4439  0.2440  0.6268
 6167TIP3    H240061   5.965   1.009   0.607  2.9394 -0.5215 -0.4502
 6168TIP3   OH240062   2.063   5.313   7.575  0.5258 -0.0659  0.2073
 6168TIP3    H140063   2.039   5.287   7.486 -0.1957 -1.7262  0.8351
 6168TIP3    H240064   2.117   5.391   7.564 -0.6624  0.5590 -1.5907
 6169TIP3   OH240065   0.536   6.100   7.014 -0.1311  0.1352 -0.5344
 6169TIP3    H140066   0.611   6.153   7.041 -2.5022  2.9437  1.2044
 6169TIP3    H240067   0.514   6.133   6.927 -0.1155  0.2064 -0.5116
 6170TIP3   OH240068   3.098   6.304   1.275  0.0483 -0.4150  0.6869
 6170TIP3    H140069   3.036   6.345   1.335  1.5303  0.0099  2.0027
 6170TIP3    H240070   3.105   6.365   1.202 -0.8241 -0.3201  0.6746
 6171TIP3   OH240071   2.920   1.062   7.734 -0.7016 -0.2745 -0.2877
 6171TIP3    H140072   2.898   1.106   7.652  0.6085  1.0705  0.0492
 6171TIP3    H240073   2.872   0.979   7.730 -2.8768  0.9317 -1.1570
 6172TIP3   OH240074   4.125   4.765   6.583 -0.3136 -0.0207  0.1836
 6172TIP3    H140075   4.144   4.856   6.606 -1.0282  0.1885 -0.0428
 6172TIP3    H240076   4.208   4.720   6.596  0.8276  1.1477 -2.2761
 6173TIP3   OH240077   2.160   0.772   6.760 -0.4233  0.1224  0.8495
 6173TIP3    H140078   2.128   0.822   6.685 -0.1980  1.9645  1.9251
 6173TIP3    H240079   2.201   0.694   6.722 -1.9073  0.1016 -0.8101
 6174TIP3   OH240080   5.132   2.846   1.163 -0.0042 -0.5743 -0.1758
 6174TIP3    H140081   5.113   2.840   1.257 -0.7606  0.2337 -0.2609
 6174TIP3    H240082   5.187   2.924   1.155  0.4789 -0.9349 -0.3404
 6175TIP3   OH240083   2.008   0.629   8.576  0.5183  0.3463  0.4317
 6175TIP3    H140084   1.996   0.676   8.659  1.3954  1.9310 -0.3068
 6175TIP3    H240085   1.948   0.672   8.515  1.4347  0.6212 -0.2964
 6176TIP3   OH240086   1.806   2.552   7.353 -0.0309 -0.0093 -0.9452
 6176TIP3    H140087   1.748   2.489   7.311 -0.1761  0.0160 -0.7843
 6176TIP3    H240088   1.881   2.500   7.382  1.6857  0.4328 -4.1013
 6177TIP3   OH240089   3.842   5.111   8.387 -0.3352 -0.6206  0.2051
 6177TIP3    H140090   3.766   5.058   8.412 -0.0029 -0.4068  1.8087
 6177TIP3    H240091   3.808   5.199   8.376 -0.4692 -0.6945  0.0320
 6178TIP3   OH240092   1.999   2.022   7.885 -0.0842 -0.5937 -0.1287
 6178TIP3    H140093   2.023   1.990   7.971 -3.3176  0.0889  1.1548
 6178TIP3    H240094   1.981   2.115   7.898 -0.5102 -0.4485 -1.5680
 6179TIP3   OH240095   2.372   0.205   6.221 -0.1170 -0.4617  0.1307
 6179TIP3    H140096   2.344   0.247   6.303 -0.1426  0.1888 -0.2026
 6179TIP3    H240097   2.314   0.242   6.155  2.0741  1.6906 -0.7512
 6180TIP3   OH240098   3.875   5.699   8.668  0.1150  0.8212  0.1794
 6180TIP3    H140099   3.921   5.699   8.584  0.8646 -0.3231  0.5700
 6180TIP3    H240100   3.826   5.617   8.668 -0.3564  1.0961  0.6255
 6181TIP3   OH240101   2.542   6.154   0.221 -0.0264 -0.3969  0.0367
 6181TIP3    H140102   2.512   6.186   0.136 -1.6925 -0.1472  0.6758
 6181TIP3    H240103   2.549   6.233   0.275  0.2128 -0.6378  0.3585
 6182TIP3   OH240104   5.771   0.417   1.572 -0.3303  0.0697  0.0622
 6182TIP3    H140105   5.807   0.379   1.492  1.0698  1.1184  0.1424
 6182TIP3    H240106   5.774   0.346   1.636 -0.0123 -0.3556 -0.4196
 6183TIP3   OH240107   6.734   0.903   8.362  0.0326  0.4842  0.3073
 6183TIP3    H140108   6.807   0.852   8.328 -0.0821 -0.5410  1.5103
 6183TIP3    H240109   6.668   0.838   8.385 -0.1737  1.1756  1.7631
 6184TIP3   OH240110   1.817   4.129   7.473 -0.1480  0.7355  0.5269
 6184TIP3    H140111   1.723   4.116   7.469  0.1645 -1.3972 -1.4079
 6184TIP3    H240112   1.841   4.158   7.385  0.9522  2.0635  1.2150
 6185TIP3   OH240113   4.405   4.629   0.695 -0.1671  0.5720  0.6194
 6185TIP3    H140114   4.393   4.581   0.777 -0.4636  0.0372  0.2627
 6185TIP3    H240115   4.489   4.598   0.661 -0.0088  0.8480  0.7536
 6186TIP3   OH240116   6.361   2.430   0.815  0.0482  0.0130  0.1014
 6186TIP3    H140117   6.370   2.453   0.723 -0.4802  0.4677  0.1605
 6186TIP3    H240118   6.396   2.341   0.820 -0.0119 -0.0574 -0.5590
 6187TIP3   OH240119   6.662   0.966   6.763  0.2904  0.0011  0.3882
 6187TIP3    H140120   6.592   0.928   6.816  1.2120 -1.7857  0.4247
 6187TIP3    H240121   6.679   0.900   6.696  2.3114  0.1044  0.7376
 6188TIP3   OH240122   5.807   3.811   1.895 -0.2392  0.2833 -0.2754
 6188TIP3    H140123   5.770   3.856   1.819  1.5999  1.5189 -0.4975
 6188TIP3    H240124   5.808   3.719   1.870 -1.0727  0.4915 -1.1322
 6189TIP3   OH240125   4.154   0.146   2.217 -0.0743  0.3363 -0.0012
 6189TIP3    H140126   4.201   0.229   2.225 -0.4086  0.4730  0.5394
 6189TIP3    H240127   4.076   0.157   2.270  0.7296 -0.9462  1.5455
 6190TIP3   OH240128   0.246   3.516   8.050 -0.3303 -0.6689 -0.0832
 6190TIP3    H140129   0.275   3.532   7.961 -0.6982 -0.2571 -0.1367
 6190TIP3    H240130   0.176   3.580   8.064  2.4613  2.3111  1.9054
 6191TIP3   OH240131   3.666   5.426   7.112 -0.0921 -0.0702  0.8486
 6191TIP3    H140132   3.663   5.508   7.162  0.5005 -0.6416  1.8481
 6191TIP3    H240133   3.614   5.365   7.164 -2.5962  0.2601 -1.0856
 6192TIP3   OH240134   1.022   3.797   6.710  0.0461 -0.5375  0.3371
 6192TIP3    H140135   1.097   3.838   6.752  0.9409 -0.8948 -0.8567
 6192TIP3    H240136   0.974   3.870   6.671 -0.0881 -0.3384  0.8610
 6193TIP3   OH240137   4.585   5.986   2.512 -0.3086 -0.3246  0.2240
 6193TIP3    H140138   4.553   5.934   2.439  2.1901 -1.1577 -0.3889
 6193TIP3    H240139   4.568   6.077   2.485  1.0815 -0.5663 -1.7531
 6194TIP3   OH240140   1.585   3.861   1.935  0.2978 -0.1789  0.8076
 6194TIP3    H140141   1.564   3.770   1.954 -0.9120 -0.0962 -0.0118
 6194TIP3    H240142   1.523   3.912   1.988  0.3017  0.1422  0.5066
 6195TIP3   OH240143   5.974   5.412   1.411 -0.2020 -0.0977 -0.2371
 6195TIP3    H140144   6.027   5.408   1.490 -0.7587  1.9903  0.3231
 6195TIP3    H240145   5.974   5.323   1.377  1.5384 -0.6707  1.1156
 6196TIP3   OH240146   1.530   4.421   1.333 -0.3734 -0.2831 -0.0219
 6196TIP3    H140147   1.542   4.504   1.288  1.3788 -0.4479  0.0823
 6196TIP3    H240148   1.549   4.355   1.267 -0.9681 -0.5934  0.1107
 6197TIP3   OH240149   4.252   4.999   1.496  0.0379  0.4565 -0.4347
 6197TIP3    H140150   4.233   4.909   1.523 -0.8126  0.6806 -0.2700
 6197TIP3    H240151   4.184   5.021   1.433 -1.7484  2.0746  1.9105
 6198TIP3   OH240152   4.580   1.152   7.686 -0.0850  0.7627 -0.3855
 6198TIP3    H140153   4.498   1.180   7.726  0.4104  0.7583  0.6558
 6198TIP3    H240154   4.592   1.062   7.716  0.2574  0.7338 -0.6052
 6199TIP3   OH240155   5.123   0.258   6.348  0.0386  0.2551  0.0791
 6199TIP3    H140156   5.087   0.184   6.298  0.4906  0.7477 -1.0082
 6199TIP3    H240157   5.057   0.276   6.415 -0.5390 -0.4959 -0.2689
 6200TIP3   OH240158   4.422   0.219   6.845 -0.2683 -0.3425  0.2676
 6200TIP3    H140159   4.447   0.174   6.925 -0.4763 -1.0001 -0.0221
 6200TIP3    H240160   4.457   0.163   6.775 -0.1127  0.2077 -0.0945
 6201TIP3   OH240161   3.647   0.669   2.418  0.1863 -0.9170  0.4429
 6201TIP3    H140162   3.727   0.630   2.452  0.8471 -1.4533 -1.5666
 6201TIP3    H240163   3.604   0.598   2.370 -1.2362 -0.4986  1.0642
 6202TIP3   OH240164   3.655   1.724   8.803 -0.2883  0.2688  0.2171
 6202TIP3    H140165   3.571   1.712   8.760 -2.4186  2.4781  3.3074
 6202TIP3    H240166   3.671   1.641   8.848 -1.4035  0.1494  0.4268
 6203TIP3   OH240167   3.281   2.994   7.165  0.4342 -0.2060  0.5902
 6203TIP3    H140168   3.230   3.066   7.201  1.9558  2.0754 -1.4490
 6203TIP3    H240169   3.227   2.916   7.179 -2.2513  1.6178  1.0669
 6204TIP3   OH240170   3.578   1.756   1.399  0.3156  0.1291 -0.0922
 6204TIP3    H140171   3.611   1.677   1.357 -0.3893 -1.3252  1.9720
 6204TIP3    H240172   3.613   1.752   1.489 -1.6303  0.9271  0.7527
 6205TIP3   OH240173   2.480   4.512   0.968 -0.3156 -0.2499 -0.4075
 6205TIP3    H140174   2.497   4.481   1.057 -2.5873 -1.4162 -0.3130
 6205TIP3    H240175   2.495   4.606   0.972 -1.6160 -0.0768  1.5730
 6206TIP3   OH240176   2.542   1.814   8.813 -0.3562  0.1233 -0.2961
 6206TIP3    H140177   2.537   1.738   8.756  0.8232  0.9314 -1.5591
 6206TIP3    H240178   2.599   1.787   8.884  0.0222 -0.2007 -0.7144
 6207TIP3   OH240179   6.346   6.025   7.232 -1.0531 -0.1553 -0.3381
 6207TIP3    H140180   6.440   6.026   7.215 -0.3781  2.3930  2.6766
 6207TIP3    H240181   6.307   6.063   7.153  0.8051  1.5241 -0.5294
 6208TIP3   OH240182   1.249   5.907   7.207  0.0588  0.1706  0.1844
 6208TIP3    H140183   1.194   5.985   7.199  2.1267  1.5925 -1.2219
 6208TIP3    H240184   1.273   5.905   7.300 -3.7870 -1.6787  1.3652
 6209TIP3   OH240185   5.303   1.100   1.224  0.3147  0.4514 -0.7226
 6209TIP3    H140186   5.350   1.031   1.177  0.9946  0.0705  0.4621
 6209TIP3    H240187   5.352   1.179   1.205  1.7306 -0.0012  0.7993
 6210TIP3   OH240188   3.709   3.579   0.410  0.6171  0.8472  0.1933
 6210TIP3    H140189   3.789   3.538   0.445 -0.3309 -1.0933  0.2255
 6210TIP3    H240190   3.639   3.542   0.463 -0.5127  0.7522 -1.3092
 6211TIP3   OH240191   0.143   2.325   6.988  0.3193  0.5389  0.5338
 6211TIP3    H140192   0.153   2.332   7.083  0.9991 -1.6494  0.6885
 6211TIP3    H240193   0.231   2.306   6.956  0.1604  1.6117 -0.6128
 6212TIP3   OH240194   2.411   1.948   7.688 -0.1403 -0.2850  0.1447
 6212TIP3    H140195   2.382   2.031   7.728  0.8826  0.0082  0.3019
 6212TIP3    H240196   2.480   1.917   7.746 -1.2702 -1.8550  0.7209
 6213TIP3   OH240197   4.847   6.110   0.774  0.3517  0.6507  0.3776
 6213TIP3    H140198   4.847   6.194   0.727 -0.0845  1.5397  1.8904
 6213TIP3    H240199   4.915   6.119   0.841 -0.5717  0.3120  1.3936
 6214TIP3   OH240200   2.336   1.623   7.071  0.2002 -0.3220 -0.0886
 6214TIP3    H140201   2.406   1.563   7.049  2.0082  1.4814  0.4558
 6214TIP3    H240202   2.379   1.707   7.085 -2.2925  1.4329 -1.9056
 6215TIP3   OH240203   3.860   4.725   0.096  0.4975 -0.1473  0.3596
 6215TIP3    H140204   3.928   4.770   0.046 -0.0812 -0.3949 -0.6922
 6215TIP3    H240205   3.797   4.793   0.118 -0.3508 -0.3906 -1.1843
 6216TIP3   OH240206   4.650   6.176   6.165  0.5143 -0.0040  0.1433
 6216TIP3    H140207   4.582   6.173   6.098 -0.4392 -0.1942  1.0908
 6216TIP3    H240208   4.626   6.106   6.226  2.7764 -1.5580 -0.6165
 6217TIP3   OH240209   0.270   0.635   6.709  0.9268  0.5738 -0.0055
 6217TIP3    H140210   0.362   0.659   6.723  1.4453 -0.9242 -0.6073
 6217TIP3    H240211   0.252   0.663   6.619  0.6764  1.1696  0.2245
 6218TIP3   OH240212   2.360   2.367   8.390 -0.1008 -0.0746 -0.1310
 6218TIP3    H140213   2.297   2.298   8.415  0.6065  0.0911  2.3863
 6218TIP3    H240214   2.386   2.407   8.473  1.7437  1.2858 -1.2831
 6219TIP3   OH240215   1.250   6.288   8.267  0.3810 -0.0655 -0.0150
 6219TIP3    H140216   1.224   6.351   8.199 -1.8396  1.0241  1.7288
 6219TIP3    H240217   1.338   6.260   8.241  0.3144  1.6123 -2.3700
 6220TIP3   OH240218   5.872   0.750   6.795  0.9239  0.0714 -0.5774
 6220TIP3    H140219   5.807   0.817   6.773  0.3389  0.9980  3.2411
 6220TIP3    H240220   5.824   0.668   6.793 -1.1488  0.8821  3.7530
 6221TIP3   OH240221   6.747   1.902   2.493 -0.3992  0.0676  0.5527
 6221TIP3    H140222   6.752   1.934   2.583 -2.8243 -0.9502  1.1159
 6221TIP3    H240223   6.738   1.981   2.440 -0.4836  0.5875  1.3326
 6222TIP3   OH240224   0.183   6.388   7.275  0.0383  0.4798 -0.1038
 6222TIP3    H140225   0.215   6.459   7.219 -0.1176 -0.3312 -1.2539
 6222TIP3    H240226   0.262   6.339   7.299 -0.0409 -0.0237 -0.8358
 6223TIP3   OH240227   6.208   5.373   0.534 -0.4618 -0.2809  0.0146
 6223TIP3    H140228   6.177   5.354   0.445  0.7452 -0.3589 -0.3986
 6223TIP3    H240229   6.137   5.342   0.591 -1.2716 -0.1683 -0.9152
 6224TIP3   OH240230   2.962   4.459   1.661 -0.6223 -0.8326  0.1260
 6224TIP3    H140231   2.949   4.453   1.755  0.8692 -1.3523  0.3333
 6224TIP3    H240232   3.031   4.395   1.642 -2.0792 -1.9929 -1.5845
 6225TIP3   OH240233   4.812   5.999   8.527 -0.5277  0.4789  0.4937
 6225TIP3    H140234   4.787   6.024   8.617  0.0103 -0.0459  0.7964
 6225TIP3    H240235   4.768   6.064   8.472  0.0546  1.5104  1.1961
 6226TIP3   OH240236   1.435   1.682   1.801  0.0821 -0.3985  0.5486
 6226TIP3    H140237   1.354   1.725   1.827 -0.1517 -0.6387  0.2268
 6226TIP3    H240238   1.504   1.739   1.835 -0.2180  0.6277 -0.4617
 6227TIP3   OH240239   1.455   0.678   7.743  0.5197  0.0078  0.2533
 6227TIP3    H140240   1.527   0.741   7.753 -2.0944  2.9535  3.0773
 6227TIP3    H240241   1.394   0.721   7.683  1.1276 -2.6599 -2.5075
 6228TIP3   OH240242   1.231   0.087   6.977  0.2014 -0.6195 -0.1710
 6228TIP3    H140243   1.171   0.150   6.936 -0.2333 -0.7002  0.3283
 6228TIP3    H240244   1.275   0.045   6.903 -0.6779 -0.8670 -0.5737
 6229TIP3   OH240245   5.773   3.226   6.938 -0.1780 -0.1990  0.7499
 6229TIP3    H140246   5.866   3.225   6.959 -0.3786  1.0032  1.7765
 6229TIP3    H240247   5.770   3.221   6.842  0.9303 -0.2142  0.7060
 6230TIP3   OH240248   3.820   4.569   7.805  0.1368  0.1709 -0.5413
 6230TIP3    H140249   3.873   4.527   7.737 -0.7052 -0.6731 -0.6871
 6230TIP3    H240250   3.846   4.527   7.886  0.7861  0.8383 -0.3876
 6231TIP3   OH240251   0.266   2.186   0.387 -0.4649  0.3698 -0.0804
 6231TIP3    H140252   0.332   2.156   0.324  1.1284  0.4399  1.4606
 6231TIP3    H240253   0.218   2.107   0.411 -1.0542  0.3345 -1.3072
 6232TIP3   OH240254   0.962   4.633   1.825 -0.0253  0.5530  0.5747
 6232TIP3    H140255   0.873   4.670   1.829 -0.7410 -1.0734  0.7286
 6232TIP3    H240256   1.000   4.653   1.910 -0.5687  0.5384  0.8258
 6233TIP3   OH240257   5.963   5.502   7.064  0.5389  0.6021  0.6119
 6233TIP3    H140258   5.991   5.481   6.974 -0.7828  0.6285  0.1722
 6233TIP3    H240259   5.980   5.421   7.113  0.1431  0.1605  0.0476
 6234TIP3   OH240260   4.144   6.561   8.013  0.3143 -0.0292  0.2237
 6234TIP3    H140261   4.188   6.476   8.018 -1.3240 -1.1120 -2.0419
 6234TIP3    H240262   4.115   6.567   7.922 -3.2111  1.1031  1.2968
 6235TIP3   OH240263   0.524   6.372   0.056 -0.2043  0.2738  0.3951
 6235TIP3    H140264   0.484   6.320   0.126  1.2125 -0.4006  0.7513
 6235TIP3    H240265   0.499   6.462   0.076 -0.3351  0.0223  1.4311
 6236TIP3   OH240266   1.418   2.678   2.395  0.4363 -0.1013  0.5820
 6236TIP3    H140267   1.466   2.756   2.366  1.0869 -0.4555  0.6840
 6236TIP3    H240268   1.484   2.609   2.398 -0.3783 -1.0028 -0.8266
 6237TIP3   OH240269   1.353   6.122   1.111  0.8226  0.0231 -0.2858
 6237TIP3    H140270   1.337   6.208   1.073 -0.2322  0.9956  2.1301
 6237TIP3    H240271   1.288   6.065   1.069  0.8793  0.6121 -1.1945
 6238TIP3   OH240272   5.388   5.870   2.198  0.3229 -0.2832 -0.1419
 6238TIP3    H140273   5.297   5.885   2.221 -0.0393 -1.9305 -0.4128
 6238TIP3    H240274   5.434   5.870   2.282 -0.4418 -2.5491  0.3611
 6239TIP3   OH240275   1.785   3.709   7.445  0.0422 -0.1275 -0.0930
 6239TIP3    H140276   1.831   3.787   7.479  0.0230 -0.5430  0.9192
 6239TIP3    H240277   1.718   3.745   7.387  0.0943  0.6186  0.2873
 6240TIP3   OH240278   2.345   0.192   1.490  0.0225 -0.1472  0.2460
 6240TIP3    H140279   2.353   0.278   1.530 -0.0385 -0.6218  1.3318
 6240TIP3    H240280   2.387   0.201   1.404 -2.0744  1.5723 -0.6848
 6241TIP3   OH240281   3.708   5.809   0.278  0.1117 -0.2371  0.1286
 6241TIP3    H140282   3.692   5.804   0.372  1.2529  0.9904  0.4236
 6241TIP3    H240283   3.621   5.814   0.239 -0.4535 -2.4513  0.9525
 6242TIP3   OH240284   1.925   6.470   8.536  0.0824 -0.0677  0.1235
 6242TIP3    H140285   2.013   6.483   8.571  0.5664  1.0863 -1.4508
 6242TIP3    H240286   1.926   6.381   8.500  1.1789  0.5225 -1.3974
 6243TIP3   OH240287   2.124   6.493   8.817 -0.0518 -0.1248  0.6970
 6243TIP3    H140288   2.115   6.411   8.866 -1.6114  0.4755  1.4681
 6243TIP3    H240289   2.067   6.555   8.863 -1.6636  0.4559 -1.9152
 6244TIP3   OH240290   4.447   2.040   1.757 -0.4651 -0.1269  0.2043
 6244TIP3    H140291   4.477   2.130   1.743  1.4941 -0.9400 -1.1939
 6244TIP3    H240292   4.527   1.987   1.755 -1.5793 -1.9278  0.8980
 6245TIP3   OH240293   2.104   2.235   1.058  0.3671  0.0668  0.3519
 6245TIP3    H140294   2.068   2.179   0.989 -0.0303  1.2834 -0.4500
 6245TIP3    H240295   2.192   2.259   1.027 -0.1060  1.2476 -0.1281
 6246TIP3   OH240296   3.066   5.938   7.617  0.0396 -0.0380  0.7525
 6246TIP3    H140297   3.044   5.847   7.637 -0.2722  0.2833  1.9393
 6246TIP3    H240298   3.073   5.940   7.522 -2.3366 -0.7808  0.4894
 6247TIP3   OH240299   4.651   1.855   1.803 -0.2595 -0.2679  0.4022
 6247TIP3    H140300   4.703   1.783   1.767 -0.5791  0.4963 -1.7400
 6247TIP3    H240301   4.568   1.814   1.827  0.2143 -0.9411  0.9343
 6248TIP3   OH240302   1.616   5.544   1.017 -0.2239 -0.1207 -0.6286
 6248TIP3    H140303   1.639   5.602   1.089  0.6843 -0.4314 -0.6481
 6248TIP3    H240304   1.566   5.473   1.058 -1.0299  0.4746 -0.5527
 6249TIP3   OH240305   4.928   5.467   7.508 -0.0208  0.3795  0.0026
 6249TIP3    H140306   4.979   5.399   7.463 -0.2524  0.5221 -0.4817
 6249TIP3    H240307   4.963   5.468   7.597  2.3784  2.0128 -0.8554
 6250TIP3   OH240308   6.770   4.499   7.284  0.1483 -0.0149 -0.1202
 6250TIP3    H140309   6.770   4.432   7.216  0.6157  1.0365 -1.1818
 6250TIP3    H240310   6.682   4.536   7.282 -0.7370 -1.8047  1.7530
 6251TIP3   OH240311   1.078   5.123   6.511  0.4660 -0.0011 -0.0165
 6251TIP3    H140312   1.134   5.052   6.480  0.2886 -0.7101  1.2226
 6251TIP3    H240313   1.138   5.185   6.552  0.6463  0.6987 -1.3000
 6252TIP3   OH240314   3.997   5.350   0.993 -0.0307  0.0971 -0.1366
 6252TIP3    H140315   3.936   5.423   0.980  0.4146  0.8547  1.6999
 6252TIP3    H240316   3.962   5.303   1.069  1.0538 -0.1228  0.2378
 6253TIP3   OH240317   1.314   1.126   2.014 -0.1609 -0.1385  0.1579
 6253TIP3    H140318   1.394   1.100   1.968 -0.5087 -0.4240 -0.2972
 6253TIP3    H240319   1.338   1.206   2.060  0.5275 -0.4911  0.4303
 6254TIP3   OH240320   0.532   5.961   7.860 -0.1288 -0.2903 -0.5620
 6254TIP3    H140321   0.595   5.906   7.812 -0.6106 -0.9466 -0.4639
 6254TIP3    H240322   0.456   5.965   7.802 -1.4385 -2.5886  0.8215
 6255TIP3   OH240323   6.583   1.669   8.168 -0.3902  0.0034  0.1177
 6255TIP3    H140324   6.536   1.741   8.209 -1.0737  0.1504 -0.8830
 6255TIP3    H240325   6.544   1.590   8.205  0.3737  0.1230  1.2328
 6256TIP3   OH240326   4.003   6.763   8.528 -0.1039  0.1229 -0.1369
 6256TIP3    H140327   3.952   6.792   8.604 -1.3090  0.5183 -1.0684
 6256TIP3    H240328   4.058   6.838   8.506 -0.9323  0.6056 -0.6223
 6257TIP3   OH240329   1.511   1.939   8.719  0.1186  0.4948 -0.3598
 6257TIP3    H140330   1.603   1.943   8.744  0.4739  1.6240 -1.7344
 6257TIP3    H240331   1.504   1.864   8.661  0.3075  0.7768 -0.7487
 6258TIP3   OH240332   4.392   0.902   1.860  0.2986 -0.4414 -0.4469
 6258TIP3    H140333   4.361   0.911   1.770 -0.9914 -0.8217 -0.0545
 6258TIP3    H240334   4.486   0.883   1.851  0.2218 -0.3044 -1.6943
 6259TIP3   OH240335   0.265   3.144   0.301  0.4592 -0.0617 -0.1892
 6259TIP3    H140336   0.315   3.096   0.235  0.4315 -0.0121 -0.2461
 6259TIP3    H240337   0.321   3.219   0.323  0.9926 -0.6938  0.6851
 6260TIP3   OH240338   5.933   4.461   1.063  0.1402 -0.1458  0.4502
 6260TIP3    H140339   5.974   4.496   1.142 -0.7484  1.1049  0.3859
 6260TIP3    H240340   5.986   4.384   1.041  1.1817  0.2273  1.5190
 6261TIP3   OH240341   3.929   0.631   0.562 -0.5840  0.4206 -0.0618
 6261TIP3    H140342   3.912   0.672   0.477  0.2753 -0.4533 -0.6790
 6261TIP3    H240343   3.912   0.700   0.626  0.5550  1.6581 -1.0402
 6262TIP3   OH240344   5.767   1.350   0.092  0.0265 -0.0795  0.2354
 6262TIP3    H140345   5.842   1.348   0.033 -0.8541  0.9040 -0.9850
 6262TIP3    H240346   5.799   1.311   0.174  1.6685 -0.2449 -0.4494
 6263TIP3   OH240347   0.657   1.994   6.035 -0.4042 -0.0574 -0.0979
 6263TIP3    H140348   0.742   1.993   5.991 -0.5447  0.5093 -0.3979
 6263TIP3    H240349   0.663   2.065   6.098  0.3430 -1.8570  1.9583
 6264TIP3   OH240350   5.311   5.947   0.644  0.6249  0.1880  0.4957
 6264TIP3    H140351   5.269   5.943   0.558  1.1652  0.6132  0.2007
 6264TIP3    H240352   5.271   5.876   0.694 -0.9125  0.9737  0.4524
 6265TIP3   OH240353   2.148   0.976   0.461 -0.0030  0.2195  0.2145
 6265TIP3    H140354   2.186   0.890   0.473  0.5375  0.4337  0.0779
 6265TIP3    H240355   2.126   0.980   0.368  0.8213  0.5562  0.0182
 6266TIP3   OH240356   5.897   5.772   7.873 -0.3554 -0.2940  0.0736
 6266TIP3    H140357   5.985   5.733   7.871  0.0125  0.5369 -0.3872
 6266TIP3    H240358   5.898   5.828   7.951 -0.1808  0.3668 -0.3960
 6267TIP3   OH240359   2.611   2.077   1.609 -0.4565 -0.5721  0.4362
 6267TIP3    H140360   2.625   1.984   1.596 -0.0060 -0.3975 -0.4143
 6267TIP3    H240361   2.678   2.102   1.673 -0.2880 -0.7521  0.3315
 6268TIP3   OH240362   1.161   5.542   1.762 -0.0947  0.2002  0.0515
 6268TIP3    H140363   1.089   5.489   1.797 -0.2796  1.2164  1.2807
 6268TIP3    H240364   1.185   5.498   1.680 -1.3223 -0.8281  0.2041
 6269TIP3   OH240365   1.221   0.534   0.579 -0.0172  0.2569  0.4195
 6269TIP3    H140366   1.212   0.521   0.484  1.4574  1.0441  0.1528
 6269TIP3    H240367   1.246   0.448   0.612  1.7782  0.4741 -0.2501
 6270TIP3   OH240368   4.321   6.128   0.393 -0.2211  0.0040  0.2909
 6270TIP3    H140369   4.289   6.041   0.369 -1.9554  0.1703  1.7765
 6270TIP3    H240370   4.362   6.116   0.478 -1.0484  0.7247  0.8089
 6271TIP3   OH240371   2.870   3.911   7.212 -0.0672 -0.7519  0.2019
 6271TIP3    H140372   2.834   3.944   7.295  1.0607 -2.0560  1.2594
 6271TIP3    H240373   2.898   3.990   7.165  0.0404 -0.0235  1.4412
 6272TIP3   OH240374   4.567   1.985   8.441 -0.1992 -0.2797 -0.1725
 6272TIP3    H140375   4.531   1.948   8.360  0.2140 -1.2692  0.0810
 6272TIP3    H240376   4.625   2.055   8.411  1.0105 -1.5109 -0.8476
 6273TIP3   OH240377   5.013   3.440   6.398 -0.3150 -0.0600  0.2618
 6273TIP3    H140378   5.030   3.534   6.387  1.5466 -0.4537 -0.7622
 6273TIP3    H240379   4.975   3.412   6.315  1.5796 -0.6311 -0.4911
 6274TIP3   OH240380   5.145   5.514   1.650  0.4322 -0.1370  0.1076
 6274TIP3    H140381   5.153   5.589   1.710 -0.7468 -0.5902  0.8811
 6274TIP3    H240382   5.235   5.490   1.629  0.8553  0.5979  0.9989
 6275TIP3   OH240383   6.473   2.889   8.316  0.3635 -0.1613 -0.0561
 6275TIP3    H140384   6.555   2.849   8.287  0.9706 -0.7713  2.2541
 6275TIP3    H240385   6.487   2.906   8.409 -1.3758  1.7406 -0.0669
 6276TIP3   OH240386   5.154   6.343   0.341 -0.2790  0.1761  0.1314
 6276TIP3    H140387   5.158   6.249   0.323  1.5906 -0.1122  1.7554
 6276TIP3    H240388   5.064   6.358   0.370 -0.7107 -1.0107 -0.5308
 6277TIP3   OH240389   0.316   1.704   2.513  0.6100 -0.5765 -0.6474
 6277TIP3    H140390   0.353   1.617   2.495  1.1757 -0.5609  0.3771
 6277TIP3    H240391   0.248   1.689   2.578 -0.9304 -0.5376 -2.1877
 6278TIP3   OH240392   0.916   0.582   0.149  0.3497 -0.0439  0.1977
 6278TIP3    H140393   0.890   0.519   0.082 -0.3425 -1.0433  1.3656
 6278TIP3    H240394   0.895   0.668   0.111 -1.0933 -0.6399 -0.4287
 6279TIP3   OH240395   2.519   5.854   1.657 -0.2850  0.3302 -0.4441
 6279TIP3    H140396   2.515   5.872   1.563 -2.0819 -0.0008 -0.4628
 6279TIP3    H240397   2.515   5.940   1.698  3.0998  0.7186 -0.6196
 6280TIP3   OH240398   1.311   3.185   0.750  0.3564 -0.3844  0.0863
 6280TIP3    H140399   1.220   3.207   0.733  0.1760 -0.1881  1.2339
 6280TIP3    H240400   1.308   3.124   0.824  1.0209 -2.2589 -1.3239
 6281TIP3   OH240401   1.234   1.974   8.758  0.0905  0.3205 -0.9133
 6281TIP3    H140402   1.207   1.883   8.766 -0.1646  0.3017 -1.7889
 6281TIP3    H240403   1.318   1.970   8.711  1.2910  0.4229  1.1131
 6282TIP3   OH240404   0.649   2.591   7.335  0.5178 -0.3144  0.7294
 6282TIP3    H140405   0.592   2.622   7.265  0.2918 -0.4198  0.8640
 6282TIP3    H240406   0.596   2.600   7.414  0.6353 -0.5481  0.8363
 6283TIP3   OH240407   6.797   0.359   8.264 -0.0483  0.8688  0.1438
 6283TIP3    H140408   6.714   0.361   8.313  0.3043 -0.0980  0.8102
 6283TIP3    H240409   6.772   0.330   8.176 -0.4496  0.7722  0.2869
 6284TIP3   OH240410   0.317   4.773   1.813  0.2397 -0.1984  0.3818
 6284TIP3    H140411   0.236   4.809   1.850 -0.1571 -1.1178  0.4371
 6284TIP3    H240412   0.387   4.814   1.863 -0.2798 -1.1303  1.9283
 6285TIP3   OH240413   1.556   4.914   8.582  0.2978  0.2987 -0.7741
 6285TIP3    H140414   1.561   4.822   8.607  0.3176  0.7728  1.0875
 6285TIP3    H240415   1.536   4.961   8.663  2.6141  2.1796 -1.1772
 6286TIP3   OH240416   3.168   3.937   2.356 -0.4257 -0.8462 -0.4349
 6286TIP3    H140417   3.092   3.906   2.307 -1.1240 -0.8262  0.6126
 6286TIP3    H240418   3.134   4.008   2.411  0.4505 -0.5127 -0.3085
 6287TIP3   OH240419   4.230   2.175   7.814  0.3008 -0.4874  0.4307
 6287TIP3    H140420   4.163   2.123   7.858  0.8484 -1.6332 -0.0518
 6287TIP3    H240421   4.255   2.123   7.738  0.0149  1.0434 -0.7494
 6288TIP3   OH240422   5.107   4.868   0.898 -0.2051 -0.5838  0.4357
 6288TIP3    H140423   5.156   4.796   0.858  2.4007 -0.1939  2.6366
 6288TIP3    H240424   5.134   4.868   0.989 -0.7573  2.6776  0.7277
 6289TIP3   OH240425   1.686   2.044   1.651 -0.3283  0.4942  0.4276
 6289TIP3    H140426   1.635   2.108   1.701  2.5517  1.7149  2.0142
 6289TIP3    H240427   1.735   2.096   1.588 -1.7290 -0.7682 -1.8228
 6290TIP3   OH240428   4.725   1.349   6.770 -0.6100 -0.0720  0.0340
 6290TIP3    H140429   4.691   1.276   6.717 -0.3110 -0.2394  0.0683
 6290TIP3    H240430   4.747   1.309   6.854 -1.3480  0.2480  0.3923
 6291TIP3   OH240431   6.445   1.522   6.900 -0.1404  0.6453  0.6231
 6291TIP3    H140432   6.429   1.437   6.859  0.4362  0.2375  1.2284
 6291TIP3    H240433   6.393   1.521   6.980  1.4791  0.0023  1.7140
 6292TIP3   OH240434   1.509   5.022   8.827  0.6662  0.1792 -0.7129
 6292TIP3    H140435   1.490   4.987   8.914 -0.7453  0.0567 -1.0409
 6292TIP3    H240436   1.491   5.116   8.834  1.2278  0.2851 -0.6919
 6293TIP3   OH240437   2.145   4.642   0.182  0.3239 -0.5462  0.0412
 6293TIP3    H140438   2.159   4.736   0.192 -0.5678 -0.5133  1.2039
 6293TIP3    H240439   2.209   4.602   0.241  0.0055 -0.6194  0.3428
 6294TIP3   OH240440   1.261   2.271   7.164 -0.0367 -0.4729 -0.1069
 6294TIP3    H140441   1.206   2.335   7.209  0.0413  0.5049 -1.3316
 6294TIP3    H240442   1.228   2.269   7.074  0.3065 -1.7798 -0.2324
 6295TIP3   OH240443   3.638   6.595   7.933  0.4077  0.1141 -0.2401
 6295TIP3    H140444   3.640   6.509   7.891  1.9188 -0.3489  0.6692
 6295TIP3    H240445   3.589   6.581   8.014  0.3118  0.2098 -0.2816
 6296TIP3   OH240446   4.558   6.042   0.891 -0.2108 -0.2278 -0.4052
 6296TIP3    H140447   4.646   6.056   0.854 -0.9126  0.3498 -1.9590
 6296TIP3    H240448   4.538   5.951   0.870 -1.1812  0.4838 -2.8797
 6297TIP3   OH240449   3.929   2.290   8.011  0.3185 -0.9859  0.4237
 6297TIP3    H140450   3.970   2.227   7.952 -1.8109 -0.7040 -1.4981
 6297TIP3    H240451   3.949   2.376   7.973 -0.5730 -0.7609  0.4257
 6298TIP3   OH240452   4.525   2.422   7.529 -0.0848 -0.7874 -0.3233
 6298TIP3    H140453   4.440   2.458   7.505  0.0641 -0.3269 -0.1667
 6298TIP3    H240454   4.510   2.327   7.535 -1.1592 -0.5331  1.9265
 6299TIP3   OH240455   6.658   6.310   7.912 -0.1783 -0.2936  0.3546
 6299TIP3    H140456   6.587   6.375   7.919  0.9225  0.9553  0.3552
 6299TIP3    H240457   6.718   6.333   7.983  0.8894 -0.4892 -0.4591
 6300TIP3   OH240458   2.822   0.155   1.368  0.8512 -0.2165  0.2990
 6300TIP3    H140459   2.793   0.082   1.422 -2.4417  0.4895 -0.3041
 6300TIP3    H240460   2.811   0.232   1.424 -0.4957  0.2924 -0.6190
 6301TIP3   OH240461   6.485   2.931   7.686 -0.0129  0.5224  0.1675
 6301TIP3    H140462   6.419   2.943   7.618 -0.3243 -0.1604  0.3366
 6301TIP3    H240463   6.450   2.860   7.741  0.5819  0.5559  0.6011
 6302TIP3   OH240464   6.742   0.203   1.180  0.2810  0.2603 -0.3963
 6302TIP3    H140465   6.719   0.287   1.139  1.2466  0.7995  0.1337
 6302TIP3    H240466   6.787   0.227   1.261  0.1096 -0.7830  0.0288
 6303TIP3   OH240467   4.205   5.262   8.588  0.7326  0.0956  0.1675
 6303TIP3    H140468   4.171   5.313   8.515  0.7176 -0.5038 -0.2515
 6303TIP3    H240469   4.164   5.300   8.666  1.4743  1.3508 -0.0304
 6304TIP3   OH240470   1.025   2.155   8.452 -0.2999  0.6009  0.3121
 6304TIP3    H140471   1.000   2.176   8.542  0.5034  0.7305  0.5150
 6304TIP3    H240472   1.036   2.241   8.410 -1.0532  0.5400 -0.0248
 6305TIP3   OH240473   4.461   3.809   7.522 -0.1097 -0.0662 -0.2977
 6305TIP3    H140474   4.482   3.876   7.588 -0.6494 -1.7583  1.7089
 6305TIP3    H240475   4.370   3.827   7.499  0.6384  1.7300 -2.1613
 6306TIP3   OH240476   1.850   6.436   7.548 -0.1824 -0.2185  0.6659
 6306TIP3    H140477   1.895   6.400   7.471  2.3834  1.9252  1.0331
 6306TIP3    H240478   1.836   6.360   7.604  2.1478 -1.2032  0.0504
 6307TIP3   OH240479   5.723   0.709   8.509 -0.2077  0.0391 -0.2229
 6307TIP3    H140480   5.744   0.619   8.534  0.5980  0.1832 -0.3456
 6307TIP3    H240481   5.803   0.759   8.530 -0.4210  0.6090 -0.7337
 6308TIP3   OH240482   3.349   1.356   6.601  0.3436  0.4183  0.5879
 6308TIP3    H140483   3.258   1.386   6.608  0.1394 -0.2903  1.0850
 6308TIP3    H240484   3.374   1.377   6.511 -0.9952 -1.2232 -0.2202
 6309TIP3   OH240485   5.673   1.060   1.568 -0.4218  0.1082 -0.4969
 6309TIP3    H140486   5.615   0.995   1.530  0.4711 -1.3616  0.5384
 6309TIP3    H240487   5.740   1.009   1.613 -0.1149  1.7526  1.0256
 6310TIP3   OH240488   2.157   0.923   6.540  0.1268 -0.3780  0.3809
 6310TIP3    H140489   2.137   0.947   6.449 -0.7140 -0.2927  0.5767
 6310TIP3    H240490   2.232   0.977   6.563  1.5866 -1.7922 -0.8689
 6311TIP3   OH240491   0.487   2.997   8.552 -0.5093  0.2308 -0.3162
 6311TIP3    H140492   0.511   3.038   8.635  0.5007  0.6441 -0.7997
 6311TIP3    H240493   0.547   3.034   8.488 -0.4526 -1.0015 -1.0186
 6312TIP3   OH240494   6.616   3.214   8.391 -0.6140 -0.3669 -0.0323
 6312TIP3    H140495   6.703   3.245   8.366 -0.3242  2.0549  3.3628
 6312TIP3    H240496   6.564   3.293   8.402 -2.3348 -1.5763  1.0847
 6313TIP3   OH240497   2.968   4.638   8.160  0.0031 -0.1705  0.4033
 6313TIP3    H140498   2.902   4.623   8.229 -0.9855 -0.7287 -0.6296
 6313TIP3    H240499   2.928   4.603   8.081  2.2240 -2.1310  0.0335
 6314TIP3   OH240500   5.344   0.125   6.385 -0.2323  0.4319 -0.3095
 6314TIP3    H140501   5.359   0.084   6.299  0.2723  1.2209 -0.6183
 6314TIP3    H240502   5.274   0.188   6.369 -2.5167 -1.7166  0.6437
 6315TIP3   OH240503   4.271   5.200   7.244 -0.4608  0.1172  0.3152
 6315TIP3    H140504   4.351   5.245   7.218 -0.0980 -1.1216 -0.8061
 6315TIP3    H240505   4.278   5.113   7.205 -2.2234 -0.1178  0.4181
 6316TIP3   OH240506   1.626   6.589   0.269  0.3776  0.1665 -0.1276
 6316TIP3    H140507   1.710   6.571   0.310  0.2861 -2.4032 -0.8448
 6316TIP3    H240508   1.612   6.514   0.210 -1.4500  1.5509 -1.5807
 6317TIP3   OH240509   5.931   3.808   7.268 -0.2395 -0.1982 -0.7693
 6317TIP3    H140510   6.019   3.785   7.238  0.4547  0.6790  0.4915
 6317TIP3    H240511   5.878   3.811   7.189  1.3317  1.2867 -1.8335
 6318TIP3   OH240512   0.591   6.534   8.548  0.1356  0.1207  0.0694
 6318TIP3    H140513   0.567   6.626   8.537 -0.3216  0.3633  2.4666
 6318TIP3    H240514   0.671   6.523   8.496  0.4997  2.0115  0.1580
 6319TIP3   OH240515   0.931   6.441   1.068 -0.0357 -0.5385 -0.3877
 6319TIP3    H140516   0.903   6.439   1.160  1.6221 -2.1066  0.1430
 6319TIP3    H240517   1.011   6.493   1.069  0.0793 -0.7004 -0.9137
 6320TIP3   OH240518   3.860   2.210   2.177  0.0347  0.0357  0.0683
 6320TIP3    H140519   3.790   2.147   2.161 -0.3966  0.6355 -0.4143
 6320TIP3    H240520   3.921   2.163   2.235 -0.3460 -0.7723 -0.1711
 6321TIP3   OH240521   3.512   5.760   8.354  0.2796  0.0816 -0.2067
 6321TIP3    H140522   3.596   5.719   8.337  0.4838  0.1300  0.6440
 6321TIP3    H240523   3.520   5.848   8.319  0.3547 -0.1179 -0.7020
 6322TIP3   OH240524   1.647   4.127   7.838  0.2138 -1.2588  0.9637
 6322TIP3    H140525   1.564   4.108   7.793  0.1348 -1.3357  1.1386
 6322TIP3    H240526   1.681   4.041   7.862  0.2652 -1.2188  1.0332
 6323TIP3   OH240527   2.102   2.456   7.931  0.4602  0.1696  0.3891
 6323TIP3    H140528   2.053   2.514   7.872  1.4966  1.2883  0.5788
 6323TIP3    H240529   2.087   2.493   8.018 -0.1904 -0.8432  0.7236
 6324TIP3   OH240530   1.730   5.984   8.352 -0.6731  0.1130 -0.5804
 6324TIP3    H140531   1.799   6.046   8.375 -1.8477  0.7403  1.5141
 6324TIP3    H240532   1.710   6.002   8.261  0.5506  1.2849 -0.6376
 6325TIP3   OH240533   5.138   3.463   7.061  0.5500 -0.6097  0.1371
 6325TIP3    H140534   5.205   3.421   7.008 -0.1160 -1.2633 -0.2116
 6325TIP3    H240535   5.138   3.414   7.144 -0.1141 -1.2034 -0.2076
 6326TIP3   OH240536   2.038   6.173   0.046 -0.1296 -0.3082 -0.0190
 6326TIP3    H140537   2.106   6.125   0.094  0.0727 -0.2144 -0.2088
 6326TIP3    H240538   2.084   6.210  -0.029 -0.3794 -0.1891 -0.1140
 6327TIP3   OH240539   5.599   1.109   8.515  0.2570  0.1242 -0.3299
 6327TIP3    H140540   5.670   1.147   8.463 -0.6736  2.4766 -0.0055
 6327TIP3    H240541   5.601   1.158   8.597 -1.4505 -0.0619 -0.1516
 6328TIP3   OH240542   4.608   1.420   8.586  0.6653 -0.1108 -0.2526
 6328TIP3    H140543   4.669   1.463   8.526  1.4529  0.1937  0.7368
 6328TIP3    H240544   4.639   1.330   8.591  0.1656 -0.3254 -0.8386
 6329TIP3   OH240545   6.184   5.062   1.655 -0.0241  0.3955  0.4382
 6329TIP3    H140546   6.129   5.002   1.705 -1.5656  1.7328  0.4338
 6329TIP3    H240547   6.260   5.078   1.711  0.2645 -1.2950  0.5575
 6330TIP3   OH240548   6.235   2.931   7.111 -0.2200  0.6103 -0.1058
 6330TIP3    H140549   6.282   2.850   7.093  1.7346  1.2370  1.7532
 6330TIP3    H240550   6.163   2.905   7.170  1.6913  0.3939  2.3028
 6331TIP3   OH240551   1.458   3.226   1.478 -0.1261 -0.7988 -0.0944
 6331TIP3    H140552   1.474   3.319   1.466 -3.1174  0.0980  1.6741
 6331TIP3    H240553   1.433   3.194   1.391 -2.6552  0.9960 -0.1502
 6332TIP3   OH240554   4.886   0.967   7.702 -0.4196 -0.0036  0.1121
 6332TIP3    H140555   4.916   0.900   7.640  1.5277  1.6541 -0.8500
 6332TIP3    H240556   4.946   0.961   7.775 -0.1850  0.7151 -0.0119
 6333TIP3   OH240557   4.758   4.625   8.096 -0.2986  0.3855 -0.2677
 6333TIP3    H140558   4.827   4.574   8.140 -1.0447  0.4305  0.9941
 6333TIP3    H240559   4.792   4.715   8.096 -0.0085  0.2778 -0.3607
 6334TIP3   OH240560   1.025   2.655   0.390 -0.3416 -0.2895  0.6485
 6334TIP3    H140561   0.969   2.580   0.411 -1.2481  0.0271 -0.5069
 6334TIP3    H240562   1.030   2.654   0.294  1.6539 -0.2964  0.7187
 6335TIP3   OH240563   4.533   0.181   0.554  0.6009  0.0030 -0.0198
 6335TIP3    H140564   4.543   0.110   0.617 -0.8851  0.9685  1.4075
 6335TIP3    H240565   4.614   0.231   0.561  0.7380 -0.3005  0.6480
 6336TIP3   OH240566   6.552   3.448   0.088 -0.2926 -0.7499 -0.2274
 6336TIP3    H140567   6.517   3.505   0.020  0.6257  0.8147  0.5516
 6336TIP3    H240568   6.519   3.486   0.170  2.0517 -0.0040  0.4411
 6337TIP3   OH240569   0.918   2.867   7.427 -0.4886 -0.3052 -0.5042
 6337TIP3    H140570   0.966   2.934   7.377 -3.4915 -0.2232 -3.6554
 6337TIP3    H240571   0.941   2.784   7.383  1.1170 -1.1151  1.6811
 6338TIP3   OH240572   1.130   2.483   0.668  0.2162  0.4056 -0.0252
 6338TIP3    H140573   1.110   2.390   0.679  1.3988  0.3052  1.6221
 6338TIP3    H240574   1.047   2.527   0.686  0.0178 -0.2657  0.7768
 6339TIP3   OH240575   2.639   2.602   8.273  0.5623  0.3073  0.4656
 6339TIP3    H140576   2.694   2.670   8.236 -0.8880  1.2248 -0.1065
 6339TIP3    H240577   2.628   2.626   8.365  0.7658  0.3592  0.4750
 6340TIP3   OH240578   2.619   2.668   1.424  0.1641  0.3095  0.0542
 6340TIP3    H140579   2.663   2.639   1.344  0.1480  2.6280 -0.8774
 6340TIP3    H240580   2.663   2.621   1.494 -0.0143 -2.0143 -1.2979
 6341TIP3   OH240581   2.888   6.483   1.722 -0.0385 -0.3769 -0.1470
 6341TIP3    H140582   2.801   6.496   1.758 -0.9728 -3.3040 -1.0225
 6341TIP3    H240583   2.947   6.495   1.796 -1.5947 -2.5629  1.5833
 6342TIP3   OH240584   5.158   6.036   8.307  0.0131  0.9797  0.1353
 6342TIP3    H140585   5.227   6.035   8.241 -0.4631 -0.9493 -0.3990
 6342TIP3    H240586   5.092   6.095   8.272  0.9058  2.0222  0.1580
 6343TIP3   OH240587   3.457   6.495   6.565  0.0851  0.3917  0.0451
 6343TIP3    H140588   3.416   6.419   6.523 -0.0875  1.2151 -1.3286
 6343TIP3    H240589   3.400   6.514   6.640 -0.9159  0.2799 -0.6653
 6344TIP3   OH240590   2.565   3.655   7.477 -0.1487 -0.1786 -0.5605
 6344TIP3    H140591   2.562   3.711   7.554 -0.6663 -3.0001  1.6305
 6344TIP3    H240592   2.656   3.659   7.447 -0.0901  1.4642 -0.2490
 6345TIP3   OH240593   5.373   4.894   1.584  0.2944 -0.1473 -0.2206
 6345TIP3    H140594   5.384   4.814   1.532 -0.1371 -1.0977  1.1001
 6345TIP3    H240595   5.308   4.870   1.650  0.0806  1.3457  0.1359
 6346TIP3   OH240596   4.153   3.785   8.798  0.1822 -0.0087  0.3996
 6346TIP3    H140597   4.212   3.846   8.754 -0.1635  0.7448  0.9516
 6346TIP3    H240598   4.160   3.704   8.748  2.4383 -0.2674  1.0301
 6347TIP3   OH240599   0.855   2.769   1.295 -0.2434  0.3853 -0.3250
 6347TIP3    H140600   0.764   2.741   1.307 -0.6679  1.6106 -0.5500
 6347TIP3    H240601   0.858   2.858   1.330  0.9486  0.2586 -0.0490
 6348TIP3   OH240602   5.597   1.648   2.235 -0.1421  0.0936  0.2276
 6348TIP3    H140603   5.618   1.613   2.322  1.0923 -0.4782 -0.2781
 6348TIP3    H240604   5.570   1.738   2.251  1.9527  0.6425  1.0557
 6349TIP3   OH240605   2.963   6.745   7.495  0.1400  0.6395 -0.4189
 6349TIP3    H140606   2.974   6.767   7.587  0.4583 -0.4963 -0.1691
 6349TIP3    H240607   3.050   6.756   7.457  0.1357  0.5575 -0.4538
 6350TIP3   OH240608   1.604   0.371   7.263  0.2883  0.4138 -0.1603
 6350TIP3    H140609   1.604   0.314   7.340 -0.0363 -1.8305 -1.7306
 6350TIP3    H240610   1.529   0.342   7.211  1.0169  1.2406 -1.7598
 6351TIP3   OH240611   2.707   0.003   7.734 -0.5011 -0.7085 -0.5822
 6351TIP3    H140612   2.685   0.074   7.794  0.5759 -1.2139  0.4359
 6351TIP3    H240613   2.728   0.047   7.651  0.0910  0.1452  0.0114
 6352TIP3   OH240614   2.683   1.766   6.634 -0.0397  0.7998  0.0701
 6352TIP3    H140615   2.736   1.835   6.595  1.7498 -0.2727  0.4925
 6352TIP3    H240616   2.744   1.694   6.647 -1.1999  0.1469  2.2879
 6353TIP3   OH240617   1.535   2.441   8.304  0.5127  0.2650  0.3792
 6353TIP3    H140618   1.629   2.457   8.301  0.5487 -0.0141 -0.0743
 6353TIP3    H240619   1.496   2.517   8.262  0.5364  0.3582  0.5239
 6354TIP3   OH240620   1.125   3.410   8.045  0.4941 -0.0147 -0.2247
 6354TIP3    H140621   1.093   3.499   8.056 -0.3672 -0.4508  0.9919
 6354TIP3    H240622   1.072   3.358   8.105  1.4156 -1.2530 -0.4497
 6355TIP3   OH240623   6.140   3.464   1.169 -0.1067  0.3120 -0.7486
 6355TIP3    H140624   6.197   3.392   1.194  0.0806  0.7532  0.1445
 6355TIP3    H240625   6.197   3.541   1.170 -0.8554  0.8856  0.9158
 6356TIP3   OH240626   4.721   4.955   6.869 -0.1256  0.5432  0.2350
 6356TIP3    H140627   4.651   4.913   6.919 -0.5627 -1.6429 -2.0393
 6356TIP3    H240628   4.680   5.031   6.829 -0.8872 -0.0473 -0.1180
 6357TIP3   OH240629   4.008   3.585   8.206 -0.3726  0.3982  0.3456
 6357TIP3    H140630   4.073   3.623   8.265  1.4449 -1.2737 -0.4274
 6357TIP3    H240631   4.016   3.490   8.219 -3.3730  0.1157  0.8527
 6358TIP3   OH240632   2.557   0.845   0.051  0.1614 -0.0269 -0.5721
 6358TIP3    H140633   2.560   0.757   0.088 -0.9934  0.5825  1.1015
 6358TIP3    H240634   2.594   0.902   0.118 -1.3475  1.0383 -0.5703
 6359TIP3   OH240635   2.800   2.142   1.211  0.3418 -0.7177 -0.6296
 6359TIP3    H140636   2.719   2.176   1.175 -0.2058  0.1023  1.2482
 6359TIP3    H240637   2.786   2.048   1.218 -1.0091 -0.4377  0.9246
 6360TIP3   OH240638   1.358   4.946   7.359  0.2960  0.0701 -0.5593
 6360TIP3    H140639   1.376   4.856   7.386  2.3090  0.2554 -1.1362
 6360TIP3    H240640   1.385   5.000   7.433 -0.3992  0.2297 -0.4194
 6361TIP3   OH240641   2.481   3.809   6.871 -0.4194  1.0325 -0.6193
 6361TIP3    H140642   2.501   3.773   6.958 -3.5379  2.3953  0.8242
 6361TIP3    H240643   2.471   3.732   6.815  1.6518  0.1167  0.1508
 6362TIP3   OH240644   5.088   5.827   6.616  0.0192 -0.3119 -0.6900
 6362TIP3    H140645   5.159   5.772   6.583 -1.0223 -0.9881 -1.9050
 6362TIP3    H240646   5.097   5.909   6.567  0.0280 -0.3633 -0.7753
 6363TIP3   OH240647   4.183   5.180   0.212 -0.3918  0.0204  0.3863
 6363TIP3    H140648   4.268   5.224   0.213  0.2021 -1.0878  1.2613
 6363TIP3    H240649   4.170   5.150   0.302 -2.1005  0.8598  0.4628
 6364TIP3   OH240650   5.853   3.007   0.361 -0.6742  0.1911  0.6068
 6364TIP3    H140651   5.820   2.956   0.287  0.2285  0.4802 -0.0061
 6364TIP3    H240652   5.892   2.942   0.420  0.3643  0.1471 -0.1136
 6365TIP3   OH240653   4.333   6.531   6.824 -0.2495 -0.4809  0.0447
 6365TIP3    H140654   4.288   6.447   6.827  0.8781 -1.2130 -1.8172
 6365TIP3    H240655   4.290   6.580   6.755 -1.2802  0.7726  1.4950
 6366TIP3   OH240656   4.565   5.559   6.158 -0.3247 -0.0799  0.4636
 6366TIP3    H140657   4.523   5.514   6.085  1.9864  0.9471 -1.6333
 6366TIP3    H240658   4.557   5.652   6.137 -1.3520  0.3685  2.5967
 6367TIP3   OH240659   0.774   5.589   8.405  0.4291 -0.0547  0.5349
 6367TIP3    H140660   0.713   5.576   8.478  1.4976 -0.0993  1.4638
 6367TIP3    H240661   0.787   5.502   8.368  0.2903 -0.1194  0.6406
 6368TIP3   OH240662   1.359   4.677   6.332  0.6818 -0.0596 -0.1549
 6368TIP3    H140663   1.323   4.756   6.373 -0.1609 -0.9996  1.0279
 6368TIP3    H240664   1.443   4.704   6.296 -0.4484  1.8477 -1.5563
 6369TIP3   OH240665   3.018   4.524   0.001 -0.3449  0.0658  0.0076
 6369TIP3    H140666   2.960   4.487  -0.065  0.8533 -1.5767 -0.1723
 6369TIP3    H240667   2.989   4.484   0.083  1.0166 -1.4356 -0.2011
 6370TIP3   OH240668   5.096   1.459   6.681 -0.3895 -0.0152 -0.2341
 6370TIP3    H140669   5.124   1.436   6.769  0.6272 -0.1031 -0.5679
 6370TIP3    H240670   5.169   1.434   6.625 -0.8368  0.4530 -1.0521
 6371TIP3   OH240671   2.746   2.579   6.213 -0.3451  0.9651  0.1950
 6371TIP3    H140672   2.788   2.630   6.282 -1.2852  0.9242  0.8177
 6371TIP3    H240673   2.652   2.591   6.228 -0.5877  1.5281 -1.5074
 6372TIP3   OH240674   5.009   5.119   0.896  0.3403 -0.3406  0.0372
 6372TIP3    H140675   5.020   5.129   0.990 -0.4158 -1.4502  0.2588
 6372TIP3    H240676   5.041   5.030   0.877  0.2749 -0.2145 -0.7164
 6373TIP3   OH240677   3.843   0.769   0.830  0.3908  0.5906 -0.0735
 6373TIP3    H140678   3.881   0.811   0.908  2.0221  0.5814 -0.8286
 6373TIP3    H240679   3.769   0.826   0.807  1.0344  1.6613  0.3938
 6374TIP3   OH240680   0.351   4.575   8.529  0.1897  0.1010  0.6487
 6374TIP3    H140681   0.304   4.496   8.558  2.2310 -0.5122  2.6298
 6374TIP3    H240682   0.301   4.606   8.454 -2.0464 -1.7368  1.2291
 6375TIP3   OH240683   5.718   3.123   8.155 -0.7923 -0.2801 -0.4599
 6375TIP3    H140684   5.757   3.202   8.117  0.5226 -0.0000  1.3370
 6375TIP3    H240685   5.677   3.152   8.235  0.1983 -1.4639  0.5328
 6376TIP3   OH240686   0.880   2.335   6.713 -0.3545  0.8633  0.4484
 6376TIP3    H140687   0.839   2.281   6.645 -2.4671  3.4163 -0.4662
 6376TIP3    H240688   0.966   2.358   6.676  0.1410 -0.9012  0.4039
 6377TIP3   OH240689   2.446   2.154   8.659  0.2626 -0.0143  0.0076
 6377TIP3    H140690   2.523   2.101   8.637 -0.5390 -0.3070 -2.4038
 6377TIP3    H240691   2.399   2.103   8.724  0.7903 -1.0836 -0.4160
 6378TIP3   OH240692   0.660   1.402   7.604  0.5483  0.5781  0.4094
 6378TIP3    H140693   0.751   1.375   7.618  0.2918 -2.9469 -2.7591
 6378TIP3    H240694   0.667   1.486   7.559  2.5061 -0.5755 -1.6949
 6379TIP3   OH240695   3.372   6.035   6.936  0.2984  0.1428 -0.2416
 6379TIP3    H140696   3.443   5.999   6.882  1.1991  0.4442  0.7095
 6379TIP3    H240697   3.416   6.066   7.015 -0.0839  4.9553 -1.6180
 6380TIP3   OH240698   0.415   6.128   1.981  0.4029  0.3971  0.0917
 6380TIP3    H140699   0.364   6.070   2.037  1.1612  0.7347  1.1735
 6380TIP3    H240700   0.489   6.074   1.951  0.0078  0.2224 -0.5719
 6381TIP3   OH240701   5.982   4.931   1.167 -0.1961 -0.2680 -0.5151
 6381TIP3    H140702   5.902   4.982   1.150  0.4073  0.3551 -1.6470
 6381TIP3    H240703   6.003   4.892   1.082  0.9951  0.0210 -0.3692
 6382TIP3   OH240704   5.032   0.290   0.665 -0.4619  0.5393  0.4314
 6382TIP3    H140705   5.027   0.244   0.581  2.3656 -0.7927  0.8592
 6382TIP3    H240706   4.956   0.261   0.714 -0.2002 -1.6283 -0.3472
 6383TIP3   OH240707   3.337   6.680   1.891  0.0395  0.0970 -0.2997
 6383TIP3    H140708   3.366   6.768   1.914  0.9942 -0.7471  2.0114
 6383TIP3    H240709   3.409   6.622   1.917 -0.7097 -1.4076 -1.3924
 6384TIP3   OH240710   5.552   0.509   8.332  0.4135  0.0040 -0.3121
 6384TIP3    H140711   5.511   0.429   8.365 -1.1890  0.7071 -0.5001
 6384TIP3    H240712   5.643   0.484   8.314 -0.1843 -1.9087 -0.8850
 6385TIP3   OH240713   5.902   3.476   1.308 -0.0961 -0.4980 -0.4808
 6385TIP3    H140714   5.992   3.458   1.282 -0.2099 -0.3278 -1.0071
 6385TIP3    H240715   5.887   3.420   1.384  0.9232  0.5518  0.5325
 6386TIP3   OH240716   5.399   3.349   7.239 -0.8698 -0.3000  0.3760
 6386TIP3    H140717   5.377   3.434   7.275 -1.2718 -0.6869  1.0753
 6386TIP3    H240718   5.440   3.302   7.312 -0.9529 -0.8141  0.0972
 6387TIP3   OH240719   0.293   5.633   0.765  0.0609 -0.0810 -0.1095
 6387TIP3    H140720   0.370   5.652   0.711  1.0946  1.0918  1.6601
 6387TIP3    H240721   0.254   5.555   0.726  2.0579 -0.6081 -1.1738
 6388TIP3   OH240722   4.438   3.650   8.107 -0.0707 -0.5170 -0.5519
 6388TIP3    H140723   4.493   3.636   8.184  0.4249 -1.0373 -0.9881
 6388TIP3    H240724   4.374   3.579   8.110 -0.1329 -0.4607 -0.5498
 6389TIP3   OH240725   2.572   1.126   7.037  0.4242  0.7763 -0.5885
 6389TIP3    H140726   2.646   1.087   6.989 -0.8604 -0.5224 -1.5853
 6389TIP3    H240727   2.544   1.058   7.097  0.2195  1.3935  0.0330
 6390TIP3   OH240728   3.201   3.867   0.197 -0.0139 -0.1741  0.1808
 6390TIP3    H140729   3.280   3.920   0.193  0.1778 -0.5170 -1.0969
 6390TIP3    H240730   3.157   3.883   0.114 -1.2381 -0.0815  0.8264
 6391TIP3   OH240731   1.709   3.754   6.914 -0.2644  0.0505  0.5833
 6391TIP3    H140732   1.634   3.779   6.861 -0.9753 -0.2199  1.4545
 6391TIP3    H240733   1.754   3.836   6.934 -0.2370  0.1955 -0.0556
 6392TIP3   OH240734   0.762   0.630   1.326  0.3995 -0.1556  0.0269
 6392TIP3    H140735   0.777   0.675   1.409  1.0471  1.0663 -0.7173
 6392TIP3    H240736   0.674   0.593   1.335  0.3287  0.2278  1.1304
 6393TIP3   OH240737   6.183   2.456   8.675 -0.1805 -0.0577  0.3812
 6393TIP3    H140738   6.215   2.539   8.641 -0.5807  0.4615  1.2287
 6393TIP3    H240739   6.260   2.414   8.713  0.2307 -0.5630 -0.9738
 6394TIP3   OH240740   6.332   1.286   7.065  0.0439  0.1684 -0.0314
 6394TIP3    H140741   6.283   1.209   7.093  0.1493  0.3156  0.5895
 6394TIP3    H240742   6.269   1.357   7.069 -0.0228  0.1333 -0.4874
 6395TIP3   OH240743   0.735   4.834   7.596  0.2184  0.6490 -0.1337
 6395TIP3    H140744   0.707   4.915   7.553  0.2802  0.9457  0.3762
 6395TIP3    H240745   0.791   4.791   7.531 -1.1756  0.1815 -1.0579
 6396TIP3   OH240746   0.822   0.691   8.132 -0.3833  0.0782  0.2985
 6396TIP3    H140747   0.792   0.739   8.054 -2.1730 -0.2758  0.7340
 6396TIP3    H240748   0.836   0.602   8.101  0.5271  0.2969  0.0414
 6397TIP3   OH240749   4.476   6.519   8.060 -0.8329 -0.6685  0.3238
 6397TIP3    H140750   4.396   6.469   8.046 -0.7834 -0.6071 -0.2140
 6397TIP3    H240751   4.513   6.531   7.972 -1.3704  1.1753  0.3026
 6398TIP3   OH240752   2.257   3.452   1.135  0.1814 -0.2960 -0.0027
 6398TIP3    H140753   2.249   3.423   1.045  1.1670 -0.4714 -0.0363
 6398TIP3    H240754   2.172   3.429   1.175 -0.6425  0.6800 -1.1142
 6399TIP3   OH240755   5.536   2.351   8.265 -0.1392 -0.4584 -0.7158
 6399TIP3    H140756   5.549   2.256   8.270 -0.2956 -0.6833 -3.3283
 6399TIP3    H240757   5.503   2.366   8.177 -2.2832  1.8233  0.3557
 6400TIP3   OH240758   1.845   1.072   7.852  0.2806 -0.3064  0.4352
 6400TIP3    H140759   1.855   1.111   7.939 -1.7840 -2.4686  1.7472
 6400TIP3    H240760   1.820   1.146   7.796 -0.8880  0.7514  2.2387
 6401TIP3   OH240761   5.680   2.436   7.878 -0.1012  0.2687  0.0528
 6401TIP3    H140762   5.752   2.382   7.844  0.0508  1.1574 -1.0966
 6401TIP3    H240763   5.687   2.428   7.973  0.3684 -1.1347 -0.0726
 6402TIP3   OH240764   6.509   4.395   1.207 -0.4503  0.0507  0.2830
 6402TIP3    H140765   6.508   4.488   1.229 -0.5097  0.1048  0.0563
 6402TIP3    H240766   6.583   4.386   1.147 -0.6661  0.0187  0.0209
 6403TIP3   OH240767   5.455   1.825   7.574  0.0889  0.1756  0.3908
 6403TIP3    H140768   5.548   1.806   7.568  0.1044  0.6853 -3.7410
 6403TIP3    H240769   5.411   1.749   7.536 -1.0282  0.9149  0.1410
 6404TIP3   OH240770   6.151   4.000   0.522  0.1999  0.0144  0.3906
 6404TIP3    H140771   6.153   4.077   0.465 -0.5693  1.0609  1.7316
 6404TIP3    H240772   6.075   3.950   0.490 -0.5207  0.8328  0.7585
 6405TIP3   OH240773   3.888   2.300   1.367 -0.0399  0.1245  0.0681
 6405TIP3    H140774   3.926   2.251   1.439  0.0892  1.0794  0.6699
 6405TIP3    H240775   3.881   2.237   1.295 -0.5781 -0.9514  1.0430
 6406TIP3   OH240776   6.482   4.797   6.822  0.0044  0.1200 -0.0444
 6406TIP3    H140777   6.470   4.818   6.729  0.8224  1.3775  0.1188
 6406TIP3    H240778   6.458   4.878   6.868  0.9903 -0.0185  0.7466
 6407TIP3   OH240779   3.691   1.859   7.926 -0.1411 -0.0444 -0.6275
 6407TIP3    H140780   3.681   1.882   8.018  1.2790  0.4776 -0.5728
 6407TIP3    H240781   3.643   1.777   7.916 -0.0867 -0.2468  0.6390
 6408TIP3   OH240782   3.695   6.036   7.353 -0.1956 -0.4940 -0.3910
 6408TIP3    H140783   3.774   5.985   7.334  0.2593  0.4161 -1.0510
 6408TIP3    H240784   3.671   6.013   7.442  0.5212 -1.1687 -0.3696
 6409TIP3   OH240785   4.679   4.706   6.692 -0.7848  0.9031  0.3648
 6409TIP3    H140786   4.708   4.797   6.685 -0.6788  0.9567  1.2928
 6409TIP3    H240787   4.598   4.702   6.642  0.7004  0.7816 -2.2049
 6410TIP3   OH240788   3.649   3.293   6.692  0.5221 -0.2057 -0.4565
 6410TIP3    H140789   3.703   3.365   6.724  0.9084 -1.1945  1.2205
 6410TIP3    H240790   3.663   3.293   6.597 -0.3498  2.5873 -0.6681
 6411TIP3   OH240791   2.462   0.504   8.567 -0.5194 -0.5757 -0.0621
 6411TIP3    H140792   2.521   0.458   8.507 -0.7855  0.4349 -1.1352
 6411TIP3    H240793   2.401   0.437   8.597  0.2812 -1.3267 -0.0702
 6412TIP3   OH240794   1.323   0.947   0.621  0.3092  0.2762  0.1953
 6412TIP3    H140795   1.245   0.989   0.585 -0.4809 -1.2127  0.1074
 6412TIP3    H240796   1.320   0.968   0.715  0.1862  0.7885  0.0807
 6413TIP3   OH240797   6.510   4.877   1.063  0.3534  0.7450  0.1029
 6413TIP3    H140798   6.484   4.942   1.128  1.1696  0.6963  0.4917
 6413TIP3    H240799   6.429   4.853   1.018 -0.0996  1.3175  0.6124
 6414TIP3   OH240800   5.616   0.055   7.997 -0.0285  0.3162 -0.3033
 6414TIP3    H140801   5.560   0.129   8.018 -0.6938 -0.5376  1.1023
 6414TIP3    H240802   5.556  -0.014   7.969  0.3777 -0.2794  0.2301
 6415TIP3   OH240803   6.135   3.611   7.909 -0.2631  0.6944 -0.3374
 6415TIP3    H140804   6.151   3.563   7.828  1.0978 -0.1898  0.4216
 6415TIP3    H240805   6.205   3.677   7.912 -0.9354  1.4215 -0.3889
 6416TIP3   OH240806   5.427   0.495   1.119 -0.1846  0.0636 -0.2262
 6416TIP3    H140807   5.426   0.552   1.196 -0.1140 -1.5773  1.0440
 6416TIP3    H240808   5.494   0.430   1.138  0.2027 -0.0727 -1.9274
 6417TIP3   OH240809   5.065   5.769   8.143  0.1690  0.2582 -0.7215
 6417TIP3    H140810   5.055   5.686   8.189 -1.9998  0.9935  0.2875
 6417TIP3    H240811   5.137   5.755   8.081  0.7761 -1.8925  0.4055
 6418TIP3   OH240812   5.752   2.855   8.398  0.5339  0.1474 -0.0661
 6418TIP3    H140813   5.682   2.920   8.393  0.4957  0.1219  0.1299
 6418TIP3    H240814   5.706   2.770   8.398  0.5591  0.1331  0.1562
 6419TIP3   OH240815   6.042   0.338   6.838  0.2997 -0.0908  0.1121
 6419TIP3    H140816   6.051   0.260   6.782  0.2393 -0.9037  1.1928
 6419TIP3    H240817   6.072   0.410   6.783  2.0369 -1.0995 -0.3636
 6420TIP3   OH240818   1.698   6.260   0.551  0.2515 -0.1788  0.3424
 6420TIP3    H140819   1.691   6.212   0.469  0.2473  0.6291 -0.1452
 6420TIP3    H240820   1.741   6.200   0.611 -0.7116 -1.1640  0.0672
 6421TIP3   OH240821   6.027   1.477   8.640 -0.3189  0.0237 -0.2544
 6421TIP3    H140822   6.003   1.541   8.707 -3.3949 -0.2437 -0.9435
 6421TIP3    H240823   6.005   1.392   8.680  0.9570 -0.4128 -0.4324
 6422TIP3   OH240824   6.051   1.346   7.686 -0.5544 -0.5382 -0.3427
 6422TIP3    H140825   6.004   1.374   7.607  0.9272 -0.3703 -1.2260
 6422TIP3    H240826   6.083   1.259   7.665  1.4028  0.2079 -0.7157
 6423TIP3   OH240827   6.412   5.154   0.461  0.0780  0.3440  0.5731
 6423TIP3    H140828   6.420   5.225   0.398 -1.4179  1.1539  1.2450
 6423TIP3    H240829   6.425   5.195   0.546 -4.0285  0.6279  1.2799
 6424TIP3   OH240830   5.686   4.559   6.368 -0.2119 -0.2391 -0.4505
 6424TIP3    H140831   5.706   4.477   6.322  0.0748 -1.3286  1.5273
 6424TIP3    H240832   5.767   4.610   6.361  0.8059 -1.5361  1.1051
 6425TIP3   OH240833   6.381   3.628   1.167 -0.5296  0.7375  0.6503
 6425TIP3    H140834   6.433   3.656   1.092  0.9113 -2.6281  0.2253
 6425TIP3    H240835   6.439   3.641   1.242  1.0669 -2.8062  0.2008
 6426TIP3   OH240836   0.877   3.490   1.879  0.2504 -0.3364 -0.4261
 6426TIP3    H140837   0.961   3.445   1.882 -0.2272 -1.2381  1.8452
 6426TIP3    H240838   0.845   3.476   1.790  1.2057 -2.4832 -0.4966
 6427TIP3   OH240839   6.772   5.332   8.340  0.0251  1.3318  0.8598
 6427TIP3    H140840   6.814   5.312   8.423 -2.0589 -1.2658  1.4454
 6427TIP3    H240841   6.681   5.353   8.363 -1.1719 -1.4120 -0.7028
 6428TIP3   OH240842   4.651   2.907   1.114  0.4409 -0.0526 -0.0681
 6428TIP3    H140843   4.640   2.983   1.170 -0.9532  1.3571 -2.1347
 6428TIP3    H240844   4.738   2.919   1.075 -0.5441  1.6499 -1.9123
 6429TIP3   OH240845   6.621   5.544   7.756 -0.0194 -0.1105 -0.7343
 6429TIP3    H140846   6.659   5.565   7.671  2.3279 -0.1107  0.2544
 6429TIP3    H240847   6.635   5.624   7.808  2.9578 -1.6283  1.0417
 6430TIP3   OH240848   2.499   3.013   0.379 -0.2156  0.3755  0.1348
 6430TIP3    H140849   2.441   2.937   0.373 -0.4192  0.5606 -0.2501
 6430TIP3    H240850   2.512   3.041   0.289 -1.2161  1.6009  0.3320
 6431TIP3   OH240851   0.129   0.545   8.445 -0.1388 -0.6326  0.3505
 6431TIP3    H140852   0.087   0.480   8.389  1.0340 -0.8345 -0.3177
 6431TIP3    H240853   0.163   0.495   8.519  0.2503 -0.7086  0.1259
 6432TIP3   OH240854   1.341   2.137   7.580  0.2556 -0.1429 -0.4387
 6432TIP3    H140855   1.333   2.141   7.484  3.2305  0.2139 -0.7581
 6432TIP3    H240856   1.366   2.047   7.598 -1.0382 -0.4160  0.1432
 6433TIP3   OH240857   3.235   2.003   7.241  0.2548  0.0594  0.3520
 6433TIP3    H140858   3.323   1.984   7.272  0.0036  0.0139  1.0563
 6433TIP3    H240859   3.247   2.038   7.153  1.0337  0.9274  0.7982
 6434TIP3   OH240860   0.711   0.458   0.366  0.7917  0.3897  0.0639
 6434TIP3    H140861   0.675   0.370   0.362  1.2650  0.1970  0.0584
 6434TIP3    H240862   0.802   0.449   0.340  1.4916  0.5146  2.3179
 6435TIP3   OH240863   5.959   2.071   6.060  0.1697  0.1835  0.5638
 6435TIP3    H140864   5.985   2.163   6.053  2.1430 -0.2826  1.0306
 6435TIP3    H240865   5.888   2.071   6.124 -0.9751  1.5301 -0.6237
 6436TIP3   OH240866   4.328   1.250   7.731 -0.6457  0.1601  0.1578
 6436TIP3    H140867   4.288   1.173   7.772 -3.5431  2.2163  1.5429
 6436TIP3    H240868   4.294   1.249   7.641 -1.1451  0.1529  0.3464
 6437TIP3   OH240869   3.135   1.886   0.346 -0.0423 -0.0121 -0.3739
 6437TIP3    H140870   3.132   1.798   0.308 -2.5547  0.3269 -1.1830
 6437TIP3    H240871   3.220   1.921   0.319 -0.5022 -0.8686 -3.3243
 6438TIP3   OH240872   6.418   2.548   7.769  0.0985  0.4954 -0.1983
 6438TIP3    H140873   6.502   2.587   7.794  0.0058  1.3351 -1.1104
 6438TIP3    H240874   6.425   2.456   7.796  0.8799  0.8143  0.7175
 6439TIP3   OH240875   3.315   3.211   8.262  0.1537  0.3927 -0.1855
 6439TIP3    H140876   3.271   3.287   8.224  0.4378  0.1283 -1.0774
 6439TIP3    H240877   3.244   3.150   8.282  0.0730  0.0049 -1.5334
 6440TIP3   OH240878   2.278   4.051   0.676  0.5196  0.3044 -0.2043
 6440TIP3    H140879   2.257   3.999   0.755 -1.0727 -1.2782 -1.5620
 6440TIP3    H240880   2.272   4.142   0.705 -0.5468 -0.2274  1.4191
 6441TIP3   OH240881   4.052   6.524   7.757 -0.1579 -0.7948 -0.3813
 6441TIP3    H140882   4.079   6.497   7.669 -0.3817 -0.2525 -0.6181
 6441TIP3    H240883   3.975   6.471   7.776  0.1512 -1.2334 -0.3255
 6442TIP3   OH240884   6.089   2.539   1.324 -0.5135  0.1058  0.1186
 6442TIP3    H140885   6.012   2.545   1.268 -0.5460 -2.0212 -0.1386
 6442TIP3    H240886   6.088   2.449   1.358  2.2419 -0.2682 -0.5162
 6443TIP3   OH240887   6.783   4.660   8.333  0.1549  0.3765 -0.3987
 6443TIP3    H140888   6.827   4.701   8.407  0.8347 -0.5537 -0.2735
 6443TIP3    H240889   6.707   4.617   8.372 -0.4425  1.3048 -0.5011
 6444TIP3   OH240890   2.633   3.108   7.064 -0.2299  0.4816  0.3246
 6444TIP3    H140891   2.595   3.188   7.102  0.6029  0.5386  1.0742
 6444TIP3    H240892   2.721   3.135   7.037  0.0946 -0.1971  0.6825
 6445TIP3   OH240893   5.249   6.791   2.094  0.3389 -0.1841  0.3733
 6445TIP3    H140894   5.161   6.809   2.062  0.8652  0.9835 -0.5137
 6445TIP3    H240895   5.297   6.873   2.079  1.9424 -1.2243 -0.4821
 6446TIP3   OH240896   4.610   4.418   0.688  0.1546 -0.0611 -1.1250
 6446TIP3    H140897   4.564   4.339   0.657 -1.4617 -0.0506  1.0164
 6446TIP3    H240898   4.671   4.386   0.754 -0.4924  0.4222 -0.2628
 6447TIP3   OH240899   1.852   4.815   8.138 -0.0280 -0.5553 -0.1901
 6447TIP3    H140900   1.817   4.847   8.221  1.5714 -0.5660  0.5198
 6447TIP3    H240901   1.802   4.863   8.071 -1.1039 -0.2980  0.7710
 6448TIP3   OH240902   2.929   1.932   7.079  0.2755 -0.1540  0.2628
 6448TIP3    H140903   3.024   1.932   7.088  0.4551  0.5673 -1.4097
 6448TIP3    H240904   2.913   1.919   6.986 -1.3266 -2.1858  0.7468
 6449TIP3   OH240905   0.888   4.350   8.830 -0.0926  0.3762  0.1591
 6449TIP3    H140906   0.892   4.366   8.735 -1.3233 -0.0961  0.0079
 6449TIP3    H240907   0.829   4.417   8.863  0.0251  0.2946  0.5378
 6450TIP3   OH240908   6.673   1.740   0.591  0.2164  0.2278 -0.4838
 6450TIP3    H140909   6.647   1.779   0.674 -0.8923 -4.5209  1.7451
 6450TIP3    H240910   6.769   1.738   0.595  0.2850  1.9257 -0.4234
 6451TIP3   OH240911   2.502   4.247   6.377  0.1128  0.4502 -0.4584
 6451TIP3    H140912   2.418   4.292   6.383  0.4809  1.0460  0.5200
 6451TIP3    H240913   2.565   4.316   6.356  0.6752  0.4284  1.0082
 6452TIP3   OH240914   0.432   5.276   7.323 -0.3321  0.3265  0.1766
 6452TIP3    H140915   0.348   5.311   7.294  0.0874  1.2816  0.0495
 6452TIP3    H240916   0.496   5.314   7.263  0.0315 -1.8248 -0.8704
 6453TIP3   OH240917   2.813   4.452   8.665 -0.2951 -0.0780  0.1637
 6453TIP3    H140918   2.806   4.360   8.640 -0.3844  0.1443 -0.6788
 6453TIP3    H240919   2.746   4.464   8.732 -1.5167 -0.2348 -0.9820
 6454TIP3   OH240920   0.577   3.475   8.141 -0.0418 -0.2922  0.0859
 6454TIP3    H140921   0.514   3.523   8.194  1.2352  0.2819  1.1322
 6454TIP3    H240922   0.523   3.425   8.079 -1.5411 -0.3203  1.3569
 6455TIP3   OH240923   5.974   0.794   8.555 -0.2038 -0.2370 -0.5522
 6455TIP3    H140924   6.005   0.716   8.508 -0.1739  0.5058 -1.8161
 6455TIP3    H240925   6.032   0.801   8.630 -0.1231 -1.3582 -0.4879
 6456TIP3   OH240926   6.445   4.362   8.806 -0.2402  0.0316 -0.0875
 6456TIP3    H140927   6.469   4.271   8.823 -1.4736  0.0016  1.6518
 6456TIP3    H240928   6.390   4.357   8.727  0.6323 -0.5579 -0.6897
 6457TIP3   OH240929   3.171   4.094   7.035  0.3681  0.1404  0.0848
 6457TIP3    H140930   3.142   4.139   7.114  1.4906 -0.2308  0.7286
 6457TIP3    H240931   3.247   4.145   7.006  0.2594 -0.0144 -0.4759
 6458TIP3   OH240932   3.757   3.985   1.293 -0.5116  0.3813  0.1729
 6458TIP3    H140933   3.835   3.938   1.324  0.8804  2.6362  0.2953
 6458TIP3    H240934   3.750   4.061   1.351 -1.2343  1.6367 -1.4856
 6459TIP3   OH240935   5.288   1.852   1.156  0.9092  0.8252  0.3399
 6459TIP3    H140936   5.202   1.879   1.188 -0.1324 -0.9027 -0.8531
 6459TIP3    H240937   5.323   1.795   1.224  0.7423  0.8785  0.4686
 6460TIP3   OH240938   0.389   4.895   7.582 -0.6262  0.1981  0.3635
 6460TIP3    H140939   0.434   4.939   7.510  0.7409  0.0025  1.0548
 6460TIP3    H240940   0.344   4.965   7.629 -0.5372  0.5022  0.0010
 6461TIP3   OH240941   3.414   3.384   0.196  0.2366  0.2060  0.5029
 6461TIP3    H140942   3.341   3.351   0.249 -0.3896  0.7959  0.0272
 6461TIP3    H240943   3.415   3.478   0.213  1.1063  0.1569  0.7570
 6462TIP3   OH240944   4.161   4.618   7.960  0.2856  0.8012  0.2305
 6462TIP3    H140945   4.203   4.546   7.913  3.3691  1.6581  1.4095
 6462TIP3    H240946   4.133   4.679   7.892 -0.4416 -0.5186 -0.6831
 6463TIP3   OH240947   6.142   2.840   8.537 -0.3271 -0.3166  0.1721
 6463TIP3    H140948   6.211   2.775   8.554  0.0718  0.3513  1.1553
 6463TIP3    H240949   6.112   2.867   8.623 -1.0294  0.2478 -0.2382
 6464TIP3   OH240950   3.653   3.378   8.480  0.3257 -0.8368  0.2051
 6464TIP3    H140951   3.662   3.334   8.396  1.3463  0.5949 -0.4849
 6464TIP3    H240952   3.645   3.471   8.458  1.3789 -0.3462  1.6881
 6465TIP3   OH240953   4.917   2.107   8.610 -0.7165 -0.1807 -0.9877
 6465TIP3    H140954   4.870   2.190   8.598 -0.4107  0.1947  0.1997
 6465TIP3    H240955   4.965   2.094   8.528  1.2228  2.1551 -0.3557
 6466TIP3   OH240956   2.769   1.169   1.130 -0.2549  0.3581  0.0240
 6466TIP3    H140957   2.863   1.161   1.151  0.1671 -1.8136 -2.2402
 6466TIP3    H240958   2.730   1.090   1.166 -0.7721  0.0771 -1.1220
 6467TIP3   OH240959   0.061   2.985   2.250 -0.3175  0.4392 -0.5510
 6467TIP3    H140960   0.003   2.913   2.271 -0.4551  0.8020  0.3607
 6467TIP3    H240961   0.138   2.944   2.210 -0.9531 -0.0824 -1.2720
 6468TIP3   OH240962   1.340   5.465   0.849 -0.1636 -0.0547  0.4154
 6468TIP3    H140963   1.406   5.441   0.783 -0.1972  0.8903  0.0258
 6468TIP3    H240964   1.258   5.472   0.799 -0.5054 -0.8617  0.8362
 6469TIP3   OH240965   5.103   6.535   1.419  0.0823  0.2028  0.2190
 6469TIP3    H140966   5.140   6.581   1.494  3.5146 -0.6925 -0.7081
 6469TIP3    H240967   5.124   6.590   1.344  0.4169 -0.8170 -0.4620
 6470TIP3   OH240968   2.941   0.665   0.913 -0.2701  0.4124  0.2101
 6470TIP3    H140969   2.950   0.604   0.840  0.5185  0.3957  0.3096
 6470TIP3    H240970   2.949   0.752   0.874  1.3016  0.3786  0.4092
 6471TIP3   OH240971   5.682   1.583   0.752 -0.1087 -0.2556 -0.7836
 6471TIP3    H140972   5.688   1.677   0.731 -2.0066  0.0293 -0.1968
 6471TIP3    H240973   5.604   1.575   0.806  0.5228 -2.0692 -0.0670
 6472TIP3   OH240974   6.428   1.291   8.433  0.1427  0.2237  0.4935
 6472TIP3    H140975   6.339   1.320   8.416 -0.5226 -0.5708  2.3694
 6472TIP3    H240976   6.450   1.235   8.359 -0.8960  0.4682 -0.0105
 6473TIP3   OH240977   3.288   5.036   1.410 -0.1871  0.2900 -0.1719
 6473TIP3    H140978   3.271   5.108   1.350  1.8709 -0.2935 -1.5840
 6473TIP3    H240979   3.248   5.062   1.493  0.8935  3.2544 -0.4944
 6474TIP3   OH240980   0.544   4.509   6.613  0.2892  0.6301 -0.0891
 6474TIP3    H140981   0.520   4.574   6.546  1.6333  0.6742 -0.5552
 6474TIP3    H240982   0.633   4.533   6.639  1.3660 -1.7536 -1.2294
 6475TIP3   OH240983   2.712   3.279   6.426 -0.2557 -0.3997 -0.1468
 6475TIP3    H140984   2.642   3.335   6.459 -0.5906 -0.5085 -0.6624
 6475TIP3    H240985   2.733   3.315   6.340  2.7075  1.8001  1.3202
 6476TIP3   OH240986   3.622   3.264   8.228 -0.0699  0.1356  0.5571
 6476TIP3    H140987   3.539   3.218   8.223  0.0385 -0.0056  0.0329
 6476TIP3    H240988   3.611   3.340   8.171  1.0116 -1.2298 -1.5721
 6477TIP3   OH240989   5.614   0.711   7.578  0.1302 -0.4833  0.2403
 6477TIP3    H140990   5.644   0.713   7.487 -1.7353 -2.3247 -0.4862
 6477TIP3    H240991   5.694   0.694   7.629  1.5067  2.3031 -0.7939
 6478TIP3   OH240992   4.149   6.318   1.312  0.5019 -0.1135  0.0793
 6478TIP3    H140993   4.193   6.260   1.249  1.0207  0.0369  0.2932
 6478TIP3    H240994   4.122   6.394   1.259  1.3326  0.2167  0.1053
 6479TIP3   OH240995   3.346   5.207   7.580 -0.1224 -0.0433 -0.1804
 6479TIP3    H140996   3.357   5.272   7.649 -1.2452 -0.0334  0.0072
 6479TIP3    H240997   3.318   5.128   7.626  1.5701 -0.7868 -0.3644
 6480TIP3   OH240998   5.298   4.119   8.835 -0.0622  0.3229 -0.2398
 6480TIP3    H140999   5.203   4.129   8.842  0.0554  0.6453  1.3494
 6480TIP3    H241000   5.332   4.203   8.865  0.7469 -0.1411  0.1609
 6481TIP3   OH241001   1.371   5.979   6.386 -0.1653 -0.6696  0.7590
 6481TIP3    H141002   1.432   5.952   6.455 -1.4681 -2.0024  1.4262
 6481TIP3    H241003   1.327   6.056   6.421 -0.9120 -1.4164  1.4990
 6482TIP3   OH241004   4.025   0.409   8.255  0.1801  0.8604  0.0956
 6482TIP3    H141005   4.014   0.457   8.172  2.3735 -2.1955 -2.1798
 6482TIP3    H241006   4.120   0.398   8.264 -0.1506 -1.5806  1.3370
 6483TIP3   OH241007   6.234   2.776   0.075  0.4470  0.5753 -0.5243
 6483TIP3    H141008   6.264   2.707   0.135  0.7489 -2.1830 -3.5900
 6483TIP3    H241009   6.315   2.813   0.039  0.2560  0.6402 -0.8880
 6484TIP3   OH241010   1.617   3.243   0.583  0.4742 -0.0276  0.6890
 6484TIP3    H141011   1.536   3.192   0.584  0.5701 -0.2431 -0.4808
 6484TIP3    H241012   1.673   3.202   0.649  0.7749 -1.8866 -0.6125
 6485TIP3   OH241013   2.394   1.878   0.764  0.0262  0.6867  0.1056
 6485TIP3    H141014   2.368   1.970   0.754  0.9816  0.9143 -0.3591
 6485TIP3    H241015   2.480   1.882   0.805 -0.5521 -0.0542  1.4693
 6486TIP3   OH241016   0.416   5.597   6.185 -0.2905  0.4641  0.5941
 6486TIP3    H141017   0.477   5.665   6.158 -0.3995 -0.0761 -1.1650
 6486TIP3    H241018   0.341   5.644   6.221 -0.2162  1.2727 -0.2853
 6487TIP3   OH241019   3.095   2.748   6.864 -0.0957 -0.0899 -0.1798
 6487TIP3    H141020   3.152   2.750   6.788  2.5757  1.5449  1.6923
 6487TIP3    H241021   3.008   2.766   6.829  0.5633 -1.8476 -3.0660
 6488TIP3   OH241022   2.380   2.301   7.131 -0.1696 -0.3847  0.0349
 6488TIP3    H141023   2.412   2.245   7.059  0.2757 -1.6770  1.1928
 6488TIP3    H241024   2.377   2.243   7.207 -2.0807  0.5500  0.7598
 6489TIP3   OH241025   0.401   0.519   8.597  0.6561  0.3935  0.2812
 6489TIP3    H141026   0.493   0.545   8.602  0.1792  2.7112 -1.5272
 6489TIP3    H241027   0.352   0.601   8.602 -1.2849 -0.6814 -0.0028
 6490TIP3   OH241028   1.633   0.894   7.813 -0.1270 -0.2744 -0.5214
 6490TIP3    H141029   1.676   0.840   7.879 -1.3427 -1.6641 -0.8023
 6490TIP3    H241030   1.695   0.964   7.795  0.7820 -0.5978  1.1296
 6491TIP3   OH241031   2.764   2.941   1.508  0.2556 -0.2381 -0.1402
 6491TIP3    H141032   2.752   2.848   1.526  0.4881 -0.2095  0.1722
 6491TIP3    H241033   2.782   2.980   1.594 -1.2648  0.3234 -0.0512
 6492TIP3   OH241034   6.507   5.172   1.430  0.4017 -0.1483  0.0850
 6492TIP3    H141035   6.472   5.171   1.519  0.6269  1.4209  0.2128
 6492TIP3    H241036   6.602   5.160   1.441  0.2669 -1.6044 -0.0829
 6493TIP3   OH241037   4.464   6.283   0.222 -0.5621  0.7889 -0.4946
 6493TIP3    H141038   4.400   6.235   0.274 -0.3132 -0.8523 -1.6155
 6493TIP3    H241039   4.417   6.306   0.141 -0.0715  0.5574 -0.8520
 6494TIP3   OH241040   4.984   6.090   6.771 -0.1997 -0.1857  0.2674
 6494TIP3    H141041   5.027   6.006   6.786 -0.1438 -0.2939 -0.4617
 6494TIP3    H241042   4.979   6.098   6.675 -1.7887 -0.1728  0.3115
 6495TIP3   OH241043   5.506   2.968   0.955  0.2380  0.3847  0.3644
 6495TIP3    H141044   5.463   2.960   0.869  1.0553  0.6820 -0.0890
 6495TIP3    H241045   5.452   3.030   1.004  0.1449  0.7566 -0.1952
 6496TIP3   OH241046   3.421   3.621   7.237  0.1959 -0.8798  0.1814
 6496TIP3    H141047   3.475   3.584   7.306  1.2426 -1.5149 -0.9347
 6496TIP3    H241048   3.402   3.547   7.179 -0.3306 -0.2876 -0.4232
 6497TIP3   OH241049   0.311   3.658   1.074 -0.0480  0.2162  1.0494
 6497TIP3    H141050   0.284   3.615   1.155  1.5285 -0.8802  1.0410
 6497TIP3    H241051   0.363   3.593   1.028  0.0330  1.2045 -0.3187
 6498TIP3   OH241052   5.507   4.557   8.282 -0.5014  0.0484  0.3842
 6498TIP3    H141053   5.591   4.595   8.304 -0.4940  0.1043  0.2634
 6498TIP3    H241054   5.528   4.484   8.224 -0.5358  0.0558  0.3626
 6499TIP3   OH241055   3.607   6.285   0.166  0.3315 -0.1364  0.2676
 6499TIP3    H141056   3.541   6.253   0.228  1.7596 -0.8714  1.4894
 6499TIP3    H241057   3.616   6.214   0.102 -1.1873  0.6462 -0.8670
 6500TIP3   OH241058   6.453   4.794   1.558 -0.3016  0.1786  0.8972
 6500TIP3    H141059   6.429   4.877   1.599 -2.5486  0.4760 -0.8325
 6500TIP3    H241060   6.412   4.727   1.613 -0.1757  0.3361  1.1834
 6501TIP3   OH241061   4.963   1.765   8.824  0.2052 -0.1130  0.3020
 6501TIP3    H141062   4.913   1.776   8.743 -0.0253  0.2226  0.4884
 6501TIP3    H241063   4.907   1.712   8.880 -0.5916  1.4755  1.0611
 6502TIP3   OH241064   2.640   1.813   7.525 -0.1631  0.1743 -0.4154
 6502TIP3    H141065   2.709   1.796   7.460  0.0563 -0.3450 -0.0520
 6502TIP3    H241066   2.582   1.738   7.519  0.4049 -0.3869  0.6761
 6503TIP3   OH241067   1.168   2.257   6.301  0.0024 -0.1903 -0.0018
 6503TIP3    H141068   1.206   2.274   6.388  0.6597  2.0025 -0.6559
 6503TIP3    H241069   1.227   2.192   6.262  0.5295 -0.1342  0.6803
 6504TIP3   OH241070   3.682   3.480   1.945  0.3066  0.0703 -0.8761
 6504TIP3    H141071   3.767   3.452   1.911  0.5752 -0.6527  0.3198
 6504TIP3    H241072   3.657   3.410   2.006 -0.4857  0.9646 -0.1494
 6505TIP3   OH241073   2.165   6.228   0.737  0.8453  0.2660  0.1752
 6505TIP3    H141074   2.178   6.311   0.781 -1.4040 -0.0208  1.5354
 6505TIP3    H241075   2.143   6.252   0.647  0.7028  1.1342  0.4336
 6506TIP3   OH241076   0.774   1.814   8.246 -0.2562 -0.3498 -0.0866
 6506TIP3    H141077   0.790   1.833   8.154 -0.7883  1.1677  0.0999
 6506TIP3    H241078   0.794   1.897   8.291 -0.6647 -0.8652  1.0750
 6507TIP3   OH241079   6.669   1.164   0.316 -1.0766 -0.8695  0.0882
 6507TIP3    H141080   6.614   1.115   0.255 -0.1117  0.3160 -1.8267
 6507TIP3    H241081   6.752   1.116   0.318 -0.9585 -0.6650  0.1460
 6508TIP3   OH241082   5.062   2.430   8.753  0.0029 -0.6079  0.5269
 6508TIP3    H141083   5.015   2.383   8.822 -0.8323 -0.2218  0.2294
 6508TIP3    H241084   5.098   2.507   8.797 -0.4641 -0.4011  0.5491
 6509TIP3   OH241085   3.417   1.412   8.248 -0.4560  0.4190 -0.4843
 6509TIP3    H141086   3.436   1.326   8.209  0.3177 -0.2328  1.1986
 6509TIP3    H241087   3.382   1.464   8.176  1.0073 -0.6620 -2.0677
 6510TIP3   OH241088   0.611   5.308   0.328 -0.1915  0.0235 -0.5776
 6510TIP3    H141089   0.652   5.300   0.242 -1.6094 -0.7337 -1.2344
 6510TIP3    H241090   0.683   5.319   0.390  1.1147 -2.8826 -1.4531
 6511TIP3   OH241091   2.067   6.640   0.351 -0.2459  0.0072  0.1590
 6511TIP3    H141092   2.003   6.666   0.285 -1.1332  1.7165  1.5896
 6511TIP3    H241093   2.130   6.711   0.354  2.0318 -1.8115 -1.4615
 6512TIP3   OH241094   6.434   6.521   7.618 -0.1883 -0.7522 -0.0209
 6512TIP3    H141095   6.379   6.470   7.559  0.8697 -2.4119  0.3665
 6512TIP3    H241096   6.508   6.549   7.564 -0.3868 -0.2465 -0.0401
 6513TIP3   OH241097   0.329   4.907   1.297  0.2222 -0.2051 -0.2121
 6513TIP3    H141098   0.412   4.868   1.323 -0.2235 -0.6780  0.5455
 6513TIP3    H241099   0.350   4.963   1.223  0.8643 -1.9924 -1.4211
 6514TIP3   OH241100   4.687   3.276   6.159  0.1846  0.4962 -0.2513
 6514TIP3    H141101   4.603   3.318   6.143 -1.9980 -3.8895 -1.8400
 6514TIP3    H241102   4.673   3.223   6.238  2.0674  0.9110  0.4283
 6515TIP3   OH241103   0.751   5.956   7.430  0.0068 -0.1330  0.4537
 6515TIP3    H141104   0.756   6.046   7.396  0.5622 -1.3789 -3.1114
 6515TIP3    H241105   0.835   5.916   7.405 -1.0101 -2.2025  0.1606
 6516TIP3   OH241106   6.037   3.642   2.006 -0.8167 -0.4273 -0.4023
 6516TIP3    H141107   6.040   3.737   2.019 -0.3225 -0.6868  1.8590
 6516TIP3    H241108   5.974   3.629   1.936 -0.8422  1.5741 -0.8076
 6517TIP3   OH241109   0.928   0.208   7.844  0.1440  0.3231  0.2040
 6517TIP3    H141110   0.974   0.142   7.895  0.8114  1.2566  0.8467
 6517TIP3    H241111   0.877   0.158   7.780  1.8468 -0.7680 -0.3837
 6518TIP3   OH241112   6.437   3.878   1.362 -0.0258  0.1083  0.1142
 6518TIP3    H141113   6.447   3.947   1.297  0.7863 -1.3872 -1.4388
 6518TIP3    H241114   6.524   3.839   1.370  0.2920  1.1233  3.2574
 6519TIP3   OH241115   6.794   4.430   7.841  0.8165  0.3713  0.1010
 6519TIP3    H141116   6.700   4.415   7.829  0.9684 -1.4247  0.8035
 6519TIP3    H241117   6.832   4.418   7.754  0.7168 -2.1390  0.3309
 6520TIP3   OH241118   3.045   4.163   8.786 -0.1566 -0.3504  0.3282
 6520TIP3    H141119   3.044   4.069   8.805 -1.4724 -0.3758  0.2445
 6520TIP3    H241120   2.972   4.175   8.726  0.1493  0.6952  0.1604
 6521TIP3   OH241121   4.708   3.620   1.274  0.7632  0.1756 -0.5151
 6521TIP3    H141122   4.641   3.589   1.213  0.5085  1.0877 -0.7023
 6521TIP3    H241123   4.723   3.545   1.332 -0.1825 -0.1499 -0.6711
 6522TIP3   OH241124   4.259   4.930   1.113 -0.4564 -0.3949 -0.2035
 6522TIP3    H141125   4.231   4.840   1.133  0.0714  0.1381  3.6130
 6522TIP3    H241126   4.351   4.932   1.137 -0.8502  1.5303  1.3439
 6523TIP3   OH241127   2.037   1.033   6.316 -0.2550 -0.6508 -0.6581
 6523TIP3    H141128   1.955   1.049   6.364 -0.1851 -1.5196 -0.2341
 6523TIP3    H241129   2.009   0.997   6.232 -0.2790 -3.2937  0.4040
 6524TIP3   OH241130   1.252   5.242   0.189  0.2127 -0.6439 -0.3926
 6524TIP3    H141131   1.197   5.289   0.251  1.1182 -0.4707  0.3097
 6524TIP3    H241132   1.240   5.150   0.212 -2.2016 -0.9031 -2.3009
 6525TIP3   OH241133   1.820   3.678   6.673  0.1720  0.3491 -0.1146
 6525TIP3    H141134   1.791   3.698   6.762 -1.4981  1.9387 -0.9490
 6525TIP3    H241135   1.881   3.606   6.684  1.5125  1.7106  2.5191
 6526TIP3   OH241136   1.978   1.302   8.053 -0.4115  0.3760  0.8494
 6526TIP3    H141137   2.027   1.377   8.086 -0.5837  0.5932  0.6077
 6526TIP3    H241138   1.895   1.304   8.100 -0.4285  0.3520  0.8203
 6527TIP3   OH241139   0.343   4.993   0.333  0.1964 -0.0161 -0.0335
 6527TIP3    H141140   0.254   4.963   0.353  0.9545 -1.5741  1.2268
 6527TIP3    H241141   0.396   4.963   0.407  1.7702  0.9963 -0.6852
 6528TIP3   OH241142   3.013   4.466   7.099  0.6552  0.3742  0.0774
 6528TIP3    H141143   3.013   4.561   7.091  0.9974  0.8380  3.8952
 6528TIP3    H241144   3.097   4.445   7.140 -0.0344 -1.3750  0.6873
 6529TIP3   OH241145   1.056   5.250   8.689  0.1190 -0.3436  0.4447
 6529TIP3    H141146   1.046   5.321   8.753  0.1435  0.3622 -0.3235
 6529TIP3    H241147   1.061   5.294   8.605  0.6527 -1.2388 -0.0019
 6530TIP3   OH241148   1.957   5.259   0.031 -0.7421  0.7647  0.0847
 6530TIP3    H141149   1.975   5.350   0.054  3.1490  0.1889 -0.0584
 6530TIP3    H241150   1.929   5.218   0.113 -0.3043  1.6079  0.6662
 6531TIP3   OH241151   3.672   3.375   6.366 -0.4756 -0.2547 -0.2015
 6531TIP3    H141152   3.696   3.296   6.415  1.8047  0.6204  0.2134
 6531TIP3    H241153   3.677   3.349   6.274 -2.0098 -1.1562 -0.0646
 6532TIP3   OH241154   5.405   0.533   7.603  0.0027  0.1229 -0.0982
 6532TIP3    H141155   5.395   0.542   7.698 -1.5129 -0.3136 -0.1772
 6532TIP3    H241156   5.471   0.598   7.579 -0.7362  1.3517  1.0605
 6533TIP3   OH241157   2.302   0.722   8.739  0.1109 -0.7965 -0.9106
 6533TIP3    H141158   2.222   0.677   8.765 -0.5340  0.1808 -1.1220
 6533TIP3    H241159   2.278   0.815   8.739  0.5007 -0.6224 -3.3959
 6534TIP3   OH241160   4.020   1.961   0.035  0.8096  0.0684  0.2519
 6534TIP3    H141161   4.002   1.903   0.109 -0.5883 -1.4798 -1.2182
 6534TIP3    H241162   4.116   1.962   0.029  0.9080 -0.8659  1.2535
 6535TIP3   OH241163   3.814   2.924   7.675  0.4279 -0.5346 -0.9524
 6535TIP3    H141164   3.864   2.907   7.755 -0.1651 -0.1892 -0.5010
 6535TIP3    H241165   3.770   2.842   7.656  0.6908 -0.6637 -1.0192
 6536TIP3   OH241166   0.178   1.190   8.085  0.3063  0.1881  0.2507
 6536TIP3    H141167   0.223   1.214   8.167 -0.8005  0.1493  0.8848
 6536TIP3    H241168   0.202   1.259   8.023  2.1597 -0.4224  0.2142
 6537TIP3   OH241169   4.946   4.722   0.249  0.2220  0.2808  0.3070
 6537TIP3    H141170   4.954   4.709   0.343  0.7525 -0.8219  0.1259
 6537TIP3    H241171   4.852   4.718   0.232  0.1119  0.6450  0.8022
 6538TIP3   OH241172   6.174   3.849   7.090 -0.4174  0.6607 -0.5556
 6538TIP3    H141173   6.120   3.803   7.026 -0.8470 -0.0606  0.3064
 6538TIP3    H241174   6.143   3.940   7.086 -1.0240  0.4467 -0.7583
 6539TIP3   OH241175   3.675   4.113   8.823 -0.5710  0.2410  0.0106
 6539TIP3    H141176   3.615   4.074   8.887  0.0980 -1.5605 -0.3795
 6539TIP3    H241177   3.657   4.065   8.742 -0.2855  1.3648 -0.7293
 6540TIP3   OH241178   0.553   0.675   6.729 -0.0790 -0.0309 -0.1390
 6540TIP3    H141179   0.590   0.649   6.645 -3.0790 -0.0846 -1.5686
 6540TIP3    H241180   0.561   0.770   6.731 -0.0643 -0.0241 -0.5175
 6541TIP3   OH241181   5.470   3.142   6.727  0.5313 -0.5873 -0.3770
 6541TIP3    H141182   5.527   3.216   6.709  1.7167 -1.1083  0.9911
 6541TIP3    H241183   5.502   3.072   6.669 -0.1134 -0.2726 -1.1346
 6542TIP3   OH241184   1.840   6.456   0.383  0.0228 -0.2404 -0.7264
 6542TIP3    H141185   1.806   6.391   0.445  1.4613  0.3413  0.7544
 6542TIP3    H241186   1.902   6.408   0.329 -1.0381 -0.6915 -1.5827
 6543TIP3   OH241187   0.559   3.676   1.734  0.2812 -0.2992  0.0716
 6543TIP3    H141188   0.608   3.645   1.810  0.4790  0.1728  0.1364
 6543TIP3    H241189   0.560   3.602   1.673 -0.0956 -0.7677  0.6299
 6544TIP3   OH241190   4.191   1.389   7.503 -0.0891  0.1473  0.9409
 6544TIP3    H141191   4.183   1.346   7.418  0.6600  0.2358  0.8186
 6544TIP3    H241192   4.259   1.455   7.491 -0.1258  0.3066  1.5493
 6545TIP3   OH241193   3.512   6.523   2.014  0.0109  0.5429 -0.6256
 6545TIP3    H141194   3.596   6.479   1.998 -0.3144  0.3275 -1.7837
 6545TIP3    H241195   3.489   6.498   2.104  1.4526  1.0546 -0.0774
 6546TIP3   OH241196   3.562   1.417   8.497  0.0195  0.6252 -0.2350
 6546TIP3    H141197   3.522   1.335   8.528 -1.5277  1.4409  0.0430
 6546TIP3    H241198   3.520   1.433   8.413 -0.9815  1.9979  0.4996
 6547TIP3   OH241199   4.086   4.804   0.805  0.1842  0.0456  0.2548
 6547TIP3    H141200   4.040   4.837   0.728 -1.8002 -0.1003  1.3250
 6547TIP3    H241201   4.177   4.832   0.792 -0.5195  1.9231 -1.0623
 6548TIP3   OH241202   4.399   2.488   1.381  0.5100 -0.1618  0.2653
 6548TIP3    H141203   4.396   2.530   1.467  1.2472  0.9141 -0.2099
 6548TIP3    H241204   4.392   2.394   1.399  0.9048  0.0398  1.5149
 6549TIP3   OH241205   2.534   0.285   7.165  0.3103 -0.2231  0.1374
 6549TIP3    H141206   2.546   0.238   7.083  0.2190  0.2999 -0.1797
 6549TIP3    H241207   2.440   0.275   7.185 -0.1580  1.5218 -0.9940
 6550TIP3   OH241208   3.694   5.871   7.926  0.3896 -0.1089 -0.2097
 6550TIP3    H141209   3.629   5.812   7.964  0.8550 -1.7155 -1.7690
 6550TIP3    H241210   3.675   5.956   7.965 -1.7716 -0.8087  0.4034
 6551TIP3   OH241211   6.168   0.219   1.567  0.1474  0.5287  0.9211
 6551TIP3    H141212   6.106   0.221   1.640 -0.1653  0.6383  0.6506
 6551TIP3    H241213   6.133   0.155   1.506 -0.4232  1.5614  0.1324
 6552TIP3   OH241214   5.517   1.064   7.162 -0.3790  0.3997 -0.2662
 6552TIP3    H141215   5.580   1.008   7.118  0.1744 -0.1947  1.2274
 6552TIP3    H241216   5.557   1.083   7.248 -0.8125  2.5732 -0.4671
 6553TIP3   OH241217   3.599   2.093   1.844 -0.4661 -0.4043  0.3277
 6553TIP3    H141218   3.617   2.022   1.906  1.8397 -0.0881  0.1109
 6553TIP3    H241219   3.621   2.173   1.892 -2.2560  0.1572  0.2930
 6554TIP3   OH241220   3.382   4.436   0.848 -0.3219  0.9082  0.2593
 6554TIP3    H141221   3.318   4.442   0.778 -0.1007 -0.8915 -0.1341
 6554TIP3    H241222   3.342   4.377   0.912  0.5223  0.5412  0.4623
 6555TIP3   OH241223   0.480   3.650   6.406  0.2889  0.4385 -0.0823
 6555TIP3    H141224   0.428   3.715   6.359 -0.0531  0.7629  0.7265
 6555TIP3    H241225   0.452   3.566   6.371 -0.4800  0.6351  0.0472
 6556TIP3   OH241226   6.426   1.709   7.258 -0.1239  0.3965 -0.0407
 6556TIP3    H141227   6.466   1.637   7.306  0.2078  0.8781  0.4115
 6556TIP3    H241228   6.433   1.785   7.316  2.0374  1.4699 -1.5479
 6557TIP3   OH241229   4.277   2.641   7.737 -0.1317  0.3189 -0.0914
 6557TIP3    H141230   4.339   2.709   7.762 -0.0258 -0.6041  2.5493
 6557TIP3    H241231   4.326   2.559   7.746 -1.4781 -0.3907  1.4537
 6558TIP3   OH241232   3.748   1.927   1.085  0.2989 -0.1158  0.2648
 6558TIP3    H141233   3.808   1.940   1.012 -0.2819  0.7338 -0.0736
 6558TIP3    H241234   3.668   1.974   1.060 -1.1624 -2.5607 -0.0760
 6559TIP3   OH241235   6.556   3.453   8.457  0.3295 -0.3167  0.2697
 6559TIP3    H141236   6.633   3.508   8.445  0.8061 -1.0682 -0.1674
 6559TIP3    H241237   6.578   3.397   8.531  0.5637 -1.1312 -0.4031
 6560TIP3   OH241238   2.002   3.340   1.176  0.6510 -0.0433 -0.7212
 6560TIP3    H141239   2.008   3.281   1.101  1.7178 -0.5095 -0.2876
 6560TIP3    H241240   1.909   3.360   1.183  0.1417 -2.1710 -0.5265
 6561TIP3   OH241241   0.433   2.305   1.294  0.6253 -0.0525  0.2791
 6561TIP3    H141242   0.392   2.274   1.375 -1.9038 -0.2103 -0.9669
 6561TIP3    H241243   0.446   2.399   1.308  1.0183 -0.2280  1.1612
 6562TIP3   OH241244   4.508   0.611   7.981 -0.3145 -0.3987  0.0495
 6562TIP3    H141245   4.492   0.517   7.971  0.1877 -0.4591 -0.2259
 6562TIP3    H241246   4.449   0.652   7.918 -0.0450 -0.5713 -0.3222
 6563TIP3   OH241247   5.359   5.767   8.106  0.0540 -0.1419  0.1146
 6563TIP3    H141248   5.348   5.857   8.078  1.0202 -0.4063 -1.1840
 6563TIP3    H241249   5.366   5.772   8.202  0.0134  1.1417  0.0603
 6564TIP3   OH241250   4.864   5.780   8.402 -0.2952  0.0711 -0.0021
 6564TIP3    H141251   4.952   5.744   8.408 -0.2551 -0.4691 -2.6616
 6564TIP3    H241252   4.874   5.872   8.428  0.9095 -0.1340  0.3387
 6565TIP3   OH241253   4.795   2.036   1.952 -0.0101  0.0875  0.1375
 6565TIP3    H141254   4.734   2.106   1.972  0.2650 -0.3328  2.7374
 6565TIP3    H241255   4.740   1.964   1.920 -0.3900  1.0803 -1.5559
 6566TIP3   OH241256   2.119   4.250   7.337 -0.4435 -0.2497  0.1991
 6566TIP3    H141257   2.148   4.196   7.263 -0.3507 -2.0278  1.4688
 6566TIP3    H241258   2.178   4.225   7.409 -0.6125  1.3373  0.9253
 6567TIP3   OH241259   3.014   3.180   1.680 -0.2362 -0.5574 -0.4127
 6567TIP3    H141260   2.921   3.163   1.696 -0.6253  1.0860 -0.6947
 6567TIP3    H241261   3.054   3.094   1.676 -1.3431 -1.2958  2.0639
 6568TIP3   OH241262   0.645   1.019   8.490  0.4273  0.1415 -0.2483
 6568TIP3    H141263   0.734   1.055   8.489  0.7028 -0.5362 -0.0668
 6568TIP3    H241264   0.646   0.952   8.422 -0.8078  2.1538 -2.4241
 6569TIP3   OH241265   6.219   6.196   1.948 -0.2259  0.1925  0.4068
 6569TIP3    H141266   6.217   6.132   2.019  0.7307  0.4785  0.7044
 6569TIP3    H241267   6.228   6.144   1.869 -0.8253 -0.1046  0.5331
 6570TIP3   OH241268   3.039   2.547   8.668 -0.4500 -0.1915  0.2648
 6570TIP3    H141269   3.090   2.529   8.589 -1.0615 -0.7530 -0.0159
 6570TIP3    H241270   3.077   2.492   8.736  0.3512  0.6112  0.4780
 6571TIP3   OH241271   4.769   2.496   7.638 -0.4081 -0.1393 -0.9086
 6571TIP3    H141272   4.691   2.456   7.600 -0.5799  0.8998 -1.7081
 6571TIP3    H241273   4.811   2.541   7.565  2.3447 -2.7118 -1.0714
 6572TIP3   OH241274   5.282   1.180   7.869  0.3590  0.4357  0.4007
 6572TIP3    H141275   5.370   1.210   7.893 -0.1139  1.9704  0.3141
 6572TIP3    H241276   5.232   1.184   7.951  0.0621  0.7435  0.2076
 6573TIP3   OH241277   3.249   5.273   0.926 -0.0216 -0.5203 -0.2646
 6573TIP3    H141278   3.197   5.230   0.858  0.0371  1.0578 -1.3500
 6573TIP3    H241279   3.184   5.300   0.991 -0.1513 -1.4324  0.0118
 6574TIP3   OH241280   5.582   4.440   0.092 -0.0684 -0.4129  0.3822
 6574TIP3    H141281   5.500   4.444   0.044  0.7145  0.8092 -0.9626
 6574TIP3    H241282   5.627   4.363   0.058 -0.8502 -1.3894  1.5043
 6575TIP3   OH241283   0.347   3.577   8.297 -0.3958  0.6194 -0.4143
 6575TIP3    H141284   0.273   3.590   8.356  0.5286  0.0701  0.9182
 6575TIP3    H241285   0.307   3.557   8.212 -1.7993 -0.7620  0.5196
 6576TIP3   OH241286   4.957   4.176   7.458  0.1760  0.1722 -0.1677
 6576TIP3    H141287   4.963   4.129   7.541  0.9140 -2.1270 -1.4308
 6576TIP3    H241288   4.910   4.116   7.400  0.3654  1.3751 -1.6137
 6577TIP3   OH241289   0.845   4.180   0.209  0.0281  0.0811  0.2457
 6577TIP3    H141290   0.849   4.243   0.137  0.8741 -1.2438 -0.9187
 6577TIP3    H241291   0.853   4.233   0.288  0.5564  1.4404 -0.6870
 6578TIP3   OH241292   2.209   2.108   8.210  0.8199 -0.1419  0.5421
 6578TIP3    H141293   2.176   2.105   8.300  0.0702 -1.5845  0.2425
 6578TIP3    H241294   2.131   2.110   8.155  1.2155 -1.3595 -0.1125
 6579TIP3   OH241295   2.634   1.711   0.232  0.0111 -0.1470 -0.4728
 6579TIP3    H141296   2.549   1.668   0.225  0.4578 -1.1803  0.1617
 6579TIP3    H241297   2.626   1.765   0.311  0.9013 -2.6376  1.4355
 6580TIP3   OH241298   4.418   3.141   2.077 -0.3545 -0.4872  0.1372
 6580TIP3    H141299   4.347   3.078   2.063 -1.6419  1.2235 -1.4621
 6580TIP3    H241300   4.390   3.191   2.154 -0.3040 -0.5581  0.2023
 6581TIP3   OH241301   4.332   5.814   6.302  0.3208  0.5873 -0.0165
 6581TIP3    H141302   4.309   5.866   6.379  1.1326  0.3801  0.3789
 6581TIP3    H241303   4.309   5.725   6.327  0.8625  0.4797  0.1064
 6582TIP3   OH241304   3.926   1.584   2.671  0.4102  0.0877 -0.5200
 6582TIP3    H141305   3.844   1.563   2.715  0.3391 -0.0851 -0.7338
 6582TIP3    H241306   3.930   1.523   2.597  0.2115  0.8047 -1.1311
 6583TIP3   OH241307   4.036   0.943   7.332 -0.2530  0.5066 -0.2435
 6583TIP3    H141308   4.000   0.949   7.243 -0.6541 -1.5081 -0.2793
 6583TIP3    H241309   3.960   0.921   7.387  0.3088 -0.2842  0.2476
 6584TIP3   OH241310   4.438   1.950   7.845  0.4158  0.1602  0.3525
 6584TIP3    H141311   4.381   1.917   7.914 -1.2835  0.9094 -0.6247
 6584TIP3    H241312   4.489   1.874   7.817 -1.4053 -1.0056  0.0284
 6585TIP3   OH241313   6.508   1.531   7.464  0.0147 -0.1252  0.2143
 6585TIP3    H141314   6.587   1.548   7.517  0.4709 -1.8956  0.1480
 6585TIP3    H241315   6.448   1.487   7.524 -0.5398  0.2885 -0.0252
 6586TIP3   OH241316   1.331   0.224   8.124  0.1082  0.0375  0.8337
 6586TIP3    H141317   1.251   0.232   8.071  1.2970  1.5686 -0.8418
 6586TIP3    H241318   1.318   0.143   8.175 -0.7462 -2.0887 -2.4551
 6587TIP3   OH241319   6.464   5.281   7.682 -0.1081  0.2555  0.0547
 6587TIP3    H141320   6.520   5.357   7.694 -0.9556  0.6173  2.0558
 6587TIP3    H241321   6.431   5.289   7.592  1.1603  1.2856 -0.3413
 6588TIP3   OH241322   0.197   2.270   8.544 -0.4202  0.3009  0.0666
 6588TIP3    H141323   0.106   2.247   8.561  0.0471 -0.9299  1.0844
 6588TIP3    H241324   0.207   2.357   8.584 -0.5330 -0.6347  2.3106
 6589TIP3   OH241325   1.838   4.172   0.468 -0.2636 -0.2597  0.5648
 6589TIP3    H141326   1.890   4.251   0.474  0.3816 -0.6184 -0.1801
 6589TIP3    H241327   1.859   4.135   0.383 -0.2836 -1.4242  1.0445
 6590TIP3   OH241328   4.345   5.987   8.386 -0.1216 -0.4462  0.0305
 6590TIP3    H141329   4.418   5.949   8.435  0.2673  0.1095 -0.1076
 6590TIP3    H241330   4.295   5.912   8.355 -2.0876 -0.8932  3.7312
 6591TIP3   OH241331   3.541   2.426   6.874  0.5992 -1.1249 -0.6091
 6591TIP3    H141332   3.497   2.402   6.792 -3.2487 -0.9598  1.1884
 6591TIP3    H241333   3.552   2.521   6.868  2.7406 -1.3766 -1.8653
 6592TIP3   OH241334   1.545   0.218   2.125 -0.7122 -0.1803 -0.1811
 6592TIP3    H141335   1.466   0.271   2.121 -0.5873  0.0297  0.0959
 6592TIP3    H241336   1.615   0.280   2.146 -0.5233 -0.4110 -0.1129
 6593TIP3   OH241337   2.229   2.795   1.553  0.7058 -0.5654  0.0800
 6593TIP3    H141338   2.309   2.805   1.605  1.4581 -0.3082 -1.0980
 6593TIP3    H241339   2.234   2.865   1.488 -0.7876 -0.1695  0.3650
 6594TIP3   OH241340   5.265   0.359   7.877  0.2492 -0.0121  0.0502
 6594TIP3    H141341   5.284   0.310   7.957  1.0698  0.5091  0.1714
 6594TIP3    H241342   5.208   0.431   7.905 -0.2217 -0.3579  0.0082
 6595TIP3   OH241343   4.730   2.225   8.373 -0.2703  0.0113  1.0217
 6595TIP3    H141344   4.795   2.285   8.409  0.3053 -0.0493  0.1061
 6595TIP3    H241345   4.770   2.191   8.293 -1.8266  0.7134 -0.0857
 6596TIP3   OH241346   0.638   1.910   1.265 -0.3772  0.1846 -0.5756
 6596TIP3    H141347   0.683   1.826   1.265  1.1352  0.9691  0.0677
 6596TIP3    H241348   0.564   1.898   1.325 -0.1992 -0.6837 -0.5225
 6597TIP3   OH241349   0.894   3.918   0.279 -0.0677 -0.1932 -0.3339
 6597TIP3    H141350   0.989   3.908   0.270 -0.0775 -1.2858  0.5646
 6597TIP3    H241351   0.879   4.012   0.267  0.8808 -0.2505 -2.4552
 6598TIP3   OH241352   4.348   4.980   8.833  0.0115  0.0890 -0.4643
 6598TIP3    H141353   4.315   4.899   8.871 -0.1004 -0.9650 -2.6594
 6598TIP3    H241354   4.304   5.050   8.881 -2.7208 -1.2111 -0.9214
 6599TIP3   OH241355   0.185   6.611   7.048 -0.4435  0.3305 -0.1151
 6599TIP3    H141356   0.204   6.692   7.001 -1.2086 -0.3063 -1.5891
 6599TIP3    H241357   0.227   6.542   6.995 -1.3969 -0.4105  0.0614
 6600TIP3   OH241358   1.057   1.691   8.060  0.2332  0.3870  0.0167
 6600TIP3    H141359   0.982   1.745   8.035  0.5625  0.3764 -1.0585
 6600TIP3    H241360   1.065   1.627   7.989  0.2755 -0.6440  0.9240
 6601TIP3   OH241361   5.067   6.677   7.417 -0.0974 -0.4514 -0.2334
 6601TIP3    H141362   5.044   6.598   7.369 -0.9341 -0.1339 -0.3678
 6601TIP3    H241363   5.150   6.706   7.378  0.7804 -1.8314  0.5250
 6602TIP3   OH241364   4.364   0.838   1.237  0.1315 -0.3694  0.0634
 6602TIP3    H141365   4.399   0.848   1.149  1.4340  3.5519  0.8160
 6602TIP3    H241366   4.439   0.854   1.294 -1.3783  0.9052  1.8249
 6603TIP3   OH241367   4.755   5.960   7.170 -0.1148  0.5900  0.2140
 6603TIP3    H141368   4.695   5.899   7.126  0.2245  0.6762 -0.3839
 6603TIP3    H241369   4.796   5.907   7.239 -1.4003  0.7254  1.1172
 6604TIP3   OH241370   3.577   4.026   6.788  0.0074 -0.2481  0.2732
 6604TIP3    H141371   3.666   4.047   6.758  0.1703  0.1058  0.9876
 6604TIP3    H241372   3.584   3.937   6.822 -0.5659 -1.3596 -2.2674
 6605TIP3   OH241373   3.103   0.055   1.621  0.3447 -0.1105  0.6987
 6605TIP3    H141374   3.132   0.110   1.548 -0.1541 -0.1884  0.4349
 6605TIP3    H241375   3.079  -0.028   1.581  0.6719 -0.3712  1.0381
 6606TIP3   OH241376   3.456   2.702   7.762 -0.0533  0.4507 -0.7805
 6606TIP3    H141377   3.499   2.777   7.801  0.7144 -0.4654  0.2095
 6606TIP3    H241378   3.363   2.716   7.776  0.1990 -0.3935  2.5771
 6607TIP3   OH241379   3.359   3.356   1.517  0.4302  0.0748 -0.4643
 6607TIP3    H141380   3.346   3.356   1.423 -1.3504 -1.8265 -0.2749
 6607TIP3    H241381   3.277   3.323   1.554  2.3998 -3.3023  1.4832
 6608TIP3   OH241382   2.776   0.592   1.755  0.1460 -0.5387 -0.4531
 6608TIP3    H141383   2.813   0.557   1.837 -2.1543  0.5197  1.1519
 6608TIP3    H241384   2.731   0.672   1.782  1.0466  0.9883 -3.1698
 6609TIP3   OH241385   2.718   2.627   7.123 -0.1991  0.0470  0.0390
 6609TIP3    H141386   2.808   2.602   7.141 -0.5583 -0.4819  1.2229
 6609TIP3    H241387   2.724   2.714   7.082  0.8589 -0.2521 -0.4569
 6610TIP3   OH241388   1.961   0.867   1.864 -0.2627 -0.4615  0.3095
 6610TIP3    H141389   1.868   0.892   1.865 -0.4715 -1.1427 -0.6106
 6610TIP3    H241390   1.965   0.789   1.921 -0.3164 -0.6250  0.0905
 6611TIP3   OH241391   3.529   2.038   0.967 -0.2944 -0.0042  0.1386
 6611TIP3    H141392   3.477   2.111   0.934 -0.6699 -0.2394  0.2049
 6611TIP3    H241393   3.539   1.979   0.892 -0.1999  0.0006  0.1480
 6612TIP3   OH241394   6.466   2.842   8.821  0.3016 -0.7008 -0.0963
 6612TIP3    H141395   6.459   2.916   8.761 -1.0176 -0.6171  0.1441
 6612TIP3    H241396   6.552   2.805   8.802  0.9935  0.8747 -0.2277
 6613TIP3   OH241397   2.432   1.385   8.617 -0.5012  0.5044 -0.7498
 6613TIP3    H141398   2.478   1.340   8.546 -0.5826  2.2322 -1.9335
 6613TIP3    H241399   2.348   1.411   8.579 -0.6463  1.2542  0.0483
 6614TIP3   OH241400   3.850   4.061   1.891 -0.2018 -0.4435 -0.0122
 6614TIP3    H141401   3.831   3.973   1.860 -1.8791 -1.2092  2.8050
 6614TIP3    H241402   3.845   4.055   1.986  1.4344  2.3466  0.3732
 6615TIP3   OH241403   6.764   3.758   8.787  0.2150  0.4436 -0.2077
 6615TIP3    H141404   6.730   3.678   8.747 -2.1613  1.6876 -0.8759
 6615TIP3    H241405   6.859   3.747   8.786 -0.0237 -2.4018 -0.1226
 6616TIP3   OH241406   6.131   0.733   6.894  0.1304  0.5075  0.3577
 6616TIP3    H141407   6.184   0.769   6.823  0.2228 -1.3598 -0.5655
 6616TIP3    H241408   6.041   0.741   6.864  0.2339 -1.9908 -0.9264
 6617TIP3   OH241409   0.003   0.736   7.336 -0.2454  0.5212  0.1254
 6617TIP3    H141410   0.051   0.815   7.314  0.4584  0.6005  1.8133
 6617TIP3    H241411  -0.006   0.690   7.253  1.2370  1.3479 -0.5412
 6618TIP3   OH241412   6.343   5.272   8.598 -0.9560 -0.0326  0.4284
 6618TIP3    H141413   6.305   5.249   8.683 -1.3603 -0.2677  0.1865
 6618TIP3    H241414   6.277   5.246   8.535  0.3597 -2.2568 -0.1518
 6619TIP3   OH241415   5.603   1.583   0.405  0.0636  0.6416 -0.4307
 6619TIP3    H141416   5.514   1.551   0.421 -0.0261  0.8252 -0.5567
 6619TIP3    H241417   5.659   1.506   0.418 -0.0894  0.5824 -0.1127
 6620TIP3   OH241418   3.006   1.505   1.163 -0.2628  0.1104 -0.1165
 6620TIP3    H141419   3.091   1.470   1.189  0.9388  2.7359 -0.2440
 6620TIP3    H241420   3.015   1.600   1.170 -3.5619  0.4670  0.9673
 6621TIP3   OH241421   4.450   1.180   8.279 -0.5141  0.2827  0.4038
 6621TIP3    H141422   4.512   1.189   8.206 -0.6702 -1.7278 -0.0230
 6621TIP3    H241423   4.405   1.265   8.282  0.8289  1.0737 -0.5809
 6622TIP3   OH241424   6.152   0.765   8.775  0.2377  0.4595 -0.2128
 6622TIP3    H141425   6.214   0.700   8.808  0.2083  0.7032  0.3301
 6622TIP3    H241426   6.203   0.846   8.771 -0.3570  0.9284  1.3636
 6623TIP3   OH241427   0.266   0.666   6.424 -0.2193 -0.4799 -0.2585
 6623TIP3    H141428   0.314   0.749   6.418 -0.4691 -0.3679 -0.7206
 6623TIP3    H241429   0.188   0.680   6.371 -1.9198  0.1348  2.2150
 6624TIP3   OH241430   3.008   0.448   1.346 -0.5507  0.1385  0.2741
 6624TIP3    H141431   2.932   0.466   1.401  0.3045  0.3546  1.4158
 6624TIP3    H241432   2.991   0.495   1.265 -1.0130  1.2913  1.0242
 6625TIP3   OH241433   0.204   1.869   6.679  0.2424 -0.0930  0.3704
 6625TIP3    H141434   0.187   1.802   6.613  0.7659  0.8165 -0.7376
 6625TIP3    H241435   0.138   1.854   6.747 -0.8685 -0.5214 -0.7674
 6626TIP3   OH241436   0.894   6.044   8.485  0.5001 -0.4176 -0.6886
 6626TIP3    H141437   0.973   6.042   8.540  2.2953 -2.1169 -3.1209
 6626TIP3    H241438   0.880   6.137   8.468  0.3458  0.1048  1.9008
 6627TIP3   OH241439   3.420   3.983   8.419 -0.5553 -0.1045  0.0117
 6627TIP3    H141440   3.424   3.908   8.479  0.9627  0.2316  0.3513
 6627TIP3    H241441   3.429   4.059   8.475 -0.9805  0.2972 -0.4561
 6628TIP3   OH241442   5.647   5.549   0.832 -0.5646  0.1558  0.3601
 6628TIP3    H141443   5.568   5.525   0.880 -0.0539  2.2256  2.4168
 6628TIP3    H241444   5.617   5.611   0.766 -0.8082  0.2070  0.5161
 6629TIP3   OH241445   1.418   0.618   6.740 -0.3688  0.1332  0.3631
 6629TIP3    H141446   1.387   0.539   6.784 -1.2869 -0.7564 -1.7417
 6629TIP3    H241447   1.468   0.585   6.665  1.1357  1.5777  0.6709
 6630TIP3   OH241448   3.016   2.884   7.106  0.1320  0.8284 -0.0001
 6630TIP3    H141449   2.991   2.964   7.060 -0.4009  0.7429  0.1380
 6630TIP3    H241450   3.027   2.819   7.037 -1.9306  0.3522  0.0444
 6631TIP3   OH241451   3.126   2.467   7.815  0.2591  0.0611 -0.1654
 6631TIP3    H141452   3.045   2.434   7.856  0.4273 -1.5018 -1.0371
 6631TIP3    H241453   3.192   2.401   7.836  0.8111  0.2443 -1.2711
 6632TIP3   OH241454   4.982   0.106   7.739 -0.2630  0.5377 -0.3863
 6632TIP3    H141455   5.018   0.149   7.662  0.1498  0.2234 -0.3726
 6632TIP3    H241456   4.887   0.121   7.734 -0.1385  1.2964 -0.4677
 6633TIP3   OH241457   3.706   1.138   8.663 -0.0018 -0.0826 -0.1322
 6633TIP3    H141458   3.612   1.153   8.672 -0.0277  0.2075 -0.7957
 6633TIP3    H241459   3.746   1.222   8.686  0.0640 -0.0461 -0.3792
 6634TIP3   OH241460   1.141   3.476   1.993  0.1746  0.0783 -0.3069
 6634TIP3    H141461   1.208   3.528   1.949  1.9229 -1.5350  0.3595
 6634TIP3    H241462   1.085   3.540   2.036  1.6495  1.4514 -0.3606
 6635TIP3   OH241463   4.181   0.803   0.406 -0.2952  0.2396 -0.5327
 6635TIP3    H141464   4.237   0.767   0.475 -1.3488  0.8658  0.7009
 6635TIP3    H241465   4.122   0.732   0.382 -1.6056  0.7061  1.0753
 6636TIP3   OH241466   5.428   1.320   6.726  0.2259  0.0966 -0.1314
 6636TIP3    H141467   5.464   1.237   6.694  0.5662 -0.8633  2.4789
 6636TIP3    H241468   5.483   1.387   6.686  1.6948 -1.0978 -0.1888
 6637TIP3   OH241469   5.908   4.083   8.239  0.0793 -0.6398 -0.2968
 6637TIP3    H141470   5.956   4.126   8.310  0.0406  0.1188 -0.7281
 6637TIP3    H241471   5.931   3.991   8.248  0.1886 -0.5413  0.6168
 6638TIP3   OH241472   1.634   2.662   6.847  0.2709  0.3321 -0.6280
 6638TIP3    H141473   1.699   2.625   6.787 -0.7552 -0.1984 -1.4464
 6638TIP3    H241474   1.657   2.755   6.852  0.3737  0.4011 -1.8824
 6639TIP3   OH241475   5.851   1.798   6.857  0.0955 -0.0570 -0.0741
 6639TIP3    H141476   5.884   1.829   6.941 -0.9547 -1.7635  1.0229
 6639TIP3    H241477   5.915   1.831   6.793  2.3434 -0.8483  1.6230
 6640TIP3   OH241478   5.119   3.173   0.307 -0.2545  0.3154  0.3986
 6640TIP3    H141479   5.101   3.085   0.339  3.6696 -1.3276 -1.2377
 6640TIP3    H241480   5.060   3.184   0.233  0.6346 -1.9356 -0.7424
 6641TIP3   OH241481   2.909   1.238   7.524 -0.1993  0.1363 -0.3635
 6641TIP3    H141482   2.899   1.193   7.441 -0.3713  0.0909 -0.3197
 6641TIP3    H241483   2.845   1.309   7.521  0.2543  0.5370 -0.5375
 6642TIP3   OH241484   1.684   1.699   7.655 -0.2795  0.1923  0.2675
 6642TIP3    H141485   1.605   1.662   7.695  0.1780  1.4679  2.5217
 6642TIP3    H241486   1.747   1.705   7.727  1.6736 -0.1547 -1.3200
 6643TIP3   OH241487   0.021   5.405   8.603  0.2138 -0.1539 -0.3376
 6643TIP3    H141488   0.015   5.499   8.617  0.1871 -0.3422  1.1720
 6643TIP3    H241489  -0.038   5.367   8.669 -0.5062 -1.2030 -1.5404
 6644TIP3   OH241490   1.116   1.580   7.505  0.2618  0.1630 -0.2380
 6644TIP3    H141491   1.127   1.500   7.557  0.8066 -0.0121 -0.6108
 6644TIP3    H241492   1.026   1.575   7.474  0.2950 -0.3219 -0.2781
 6645TIP3   OH241493   1.990   5.782   8.649 -0.1698 -0.8144 -0.0453
 6645TIP3    H141494   1.983   5.764   8.555 -0.0189 -0.0760 -0.1998
 6645TIP3    H241495   2.021   5.699   8.686  0.5184 -0.8874 -0.7442
 6646TIP3   OH241496   3.407   5.548   6.672  0.0146 -0.9448  0.1750
 6646TIP3    H141497   3.357   5.594   6.604  0.5021 -3.0117 -1.7199
 6646TIP3    H241498   3.469   5.493   6.622  1.1501 -1.7388  2.3456
 6647TIP3   OH241499   0.162   3.887   1.126 -0.1513 -0.0417 -0.0646
 6647TIP3    H141500   0.105   3.857   1.197 -1.4178 -0.5365 -1.2490
 6647TIP3    H241501   0.215   3.810   1.104  0.3445  0.1540  0.4283
 6648TIP3   OH241502   5.196   1.110   1.537 -0.1139 -0.2416 -0.1815
 6648TIP3    H141503   5.197   1.175   1.466 -1.0880  0.3157  0.2930
 6648TIP3    H241504   5.124   1.051   1.514 -0.5936  0.0847  0.4514
 6649TIP3   OH241505   6.325   1.405   7.640 -0.1764 -0.0642  0.5377
 6649TIP3    H141506   6.231   1.391   7.654  0.0326 -2.5182 -0.0438
 6649TIP3    H241507   6.367   1.359   7.713  0.6057 -0.7537 -0.3316
 6650TIP3   OH241508   3.801   1.988   8.726 -0.0394 -0.2318  0.4809
 6650TIP3    H141509   3.778   1.896   8.731 -0.0092 -0.1697  2.0877
 6650TIP3    H241510   3.873   1.999   8.787  0.6177  0.6813 -0.4211
 6651TIP3   OH241511   1.694   1.591   1.690  0.8506 -0.3831 -0.1274
 6651TIP3    H141512   1.789   1.598   1.694  0.7217  1.5601  2.4310
 6651TIP3    H241513   1.666   1.672   1.646  0.3617 -0.0590  0.7475
 6652TIP3   OH241514   4.658   2.015   8.046  0.1563  0.1516 -0.0893
 6652TIP3    H141515   4.600   2.090   8.035 -0.3664  0.0682  1.7855
 6652TIP3    H241516   4.605   1.950   8.092  0.5332 -1.4990 -1.8453
 6653TIP3   OH241517   2.433   2.715   1.128  0.4285 -0.3310 -0.3889
 6653TIP3    H141518   2.488   2.782   1.089  0.0111  0.1728 -0.1294
 6653TIP3    H241519   2.364   2.764   1.173  0.4447 -0.9149  0.2930
 6654TIP3   OH241520   2.515   5.150   8.109  0.3374  0.1169  0.2955
 6654TIP3    H141521   2.546   5.147   8.019  0.4121  1.1743  0.2707
 6654TIP3    H241522   2.538   5.238   8.139 -0.3196  0.0231  1.1156
 6655TIP3   OH241523   2.087   1.654   8.720  0.0070 -0.6351 -0.2979
 6655TIP3    H141524   2.136   1.728   8.685  1.4634 -0.3762  2.1173
 6655TIP3    H241525   2.005   1.692   8.752 -0.1179 -0.4176 -0.8717
 6656TIP3   OH241526   2.088   1.576   0.243 -0.2170 -0.0628 -0.1544
 6656TIP3    H141527   2.139   1.543   0.318 -0.5342 -0.5652 -0.1552
 6656TIP3    H241528   2.104   1.512   0.173 -2.6393 -1.5546  0.5208
 6657TIP3   OH241529   0.939   5.138   8.176 -0.4399 -0.0357 -0.4349
 6657TIP3    H141530   0.880   5.180   8.239 -0.6005  0.4402 -0.8948
 6657TIP3    H241531   0.896   5.150   8.091 -0.2993 -0.8048 -0.6192
 6658TIP3   OH241532   0.721   3.943   8.251 -0.7172 -0.7000  0.0064
 6658TIP3    H141533   0.802   3.893   8.242 -0.0353  0.3517  0.1089
 6658TIP3    H241534   0.652   3.882   8.228  0.2329 -1.0928 -1.9727
 6659TIP3   OH241535   4.354   6.506   1.489 -0.0855 -0.0843  1.0649
 6659TIP3    H141536   4.280   6.532   1.434  0.4426 -1.0927 -0.1895
 6659TIP3    H241537   4.419   6.575   1.477  0.0335 -0.3059  0.3767
 6660TIP3   OH241538   1.531   1.957   8.230  0.4945 -0.4513  0.1886
 6660TIP3    H141539   1.625   1.965   8.244  0.3937  1.2966  0.0100
 6660TIP3    H241540   1.500   2.046   8.217 -1.3946 -0.8559  1.4283
 6661TIP3   OH241541   2.179   6.213   8.653 -0.3390  0.0073  0.5304
 6661TIP3    H141542   2.192   6.301   8.616 -1.2527 -0.2790 -0.5293
 6661TIP3    H241543   2.123   6.169   8.589 -1.6224 -0.6577  2.0524
 6662TIP3   OH241544   0.313   6.673   1.310 -0.4341  0.0715  0.1532
 6662TIP3    H141545   0.389   6.629   1.271  0.9256  1.2816  1.2906
 6662TIP3    H241546   0.329   6.766   1.294 -2.3810  0.2967 -0.7278
 6663TIP3   OH241547   6.366   5.186   1.212  0.3579 -0.1678  0.3499
 6663TIP3    H141548   6.416   5.165   1.290  3.2826 -1.2937 -1.6437
 6663TIP3    H241549   6.422   5.249   1.164 -0.4379 -0.8880 -1.6464
 6664TIP3   OH241550   5.027   4.814   7.493  0.0333 -0.1883 -0.0795
 6664TIP3    H141551   5.002   4.900   7.460 -0.9320  0.3596  1.9207
 6664TIP3    H241552   4.949   4.760   7.482  0.7767 -0.9912 -1.7521
 6665TIP3   OH241553   4.367   2.642   7.315 -0.3579  0.0226 -0.5905
 6665TIP3    H141554   4.382   2.714   7.254 -1.1177 -0.9321 -1.9671
 6665TIP3    H241555   4.297   2.590   7.275 -0.4784 -0.9766  0.8171
 6666TIP3   OH241556   5.975   2.323   7.851 -0.7648 -0.1156 -0.0846
 6666TIP3    H141557   6.006   2.274   7.775  1.6789 -0.1809  0.8830
 6666TIP3    H241558   6.018   2.408   7.844 -1.8936  0.5227  0.3430
 6667TIP3   OH241559   1.714   2.935   0.392  0.1209  0.2206 -0.5331
 6667TIP3    H141560   1.724   2.840   0.403  1.9325  0.1570 -2.2074
 6667TIP3    H241561   1.663   2.962   0.469  0.0210 -2.0060  0.2824
 6668TIP3   OH241562   5.703   2.167   2.797 -0.5040 -0.6145 -0.6154
 6668TIP3    H141563   5.711   2.256   2.831  1.1550 -0.3734 -1.5329
 6668TIP3    H241564   5.689   2.178   2.703  3.6956 -1.2206 -1.5180
 6669TIP3   OH241565   4.177   6.240   8.531 -0.6071 -0.0118 -0.1903
 6669TIP3    H141566   4.198   6.317   8.584  0.6088  0.6568 -1.5774
 6669TIP3    H241567   4.236   6.172   8.564 -0.7843  0.0106  0.1828
 6670TIP3   OH241568   2.758   1.572   8.020 -0.1861 -0.1152 -0.3004
 6670TIP3    H141569   2.773   1.599   8.110  1.7839  0.7433 -0.8326
 6670TIP3    H241570   2.679   1.619   7.993 -1.5398 -1.3458  1.2995
 6671TIP3   OH241571   3.670   2.886   0.121 -0.4370 -0.4064 -0.3951
 6671TIP3    H141572   3.750   2.923   0.083  0.2664  0.0213  1.4001
 6671TIP3    H241573   3.608   2.958   0.122 -0.3860 -0.3606 -0.5355
 6672TIP3   OH241574   0.979   4.110   8.741 -0.5699 -0.0987 -0.5310
 6672TIP3    H141575   0.990   4.175   8.672 -1.9397 -0.3007 -0.9741
 6672TIP3    H241576   0.943   4.159   8.815 -0.8308 -0.1934 -0.5918
 6673TIP3   OH241577   0.068   4.681   0.426  0.6858  0.4055 -0.4094
 6673TIP3    H141578   0.114   4.725   0.498  0.5021  0.7290 -0.4846
 6673TIP3    H241579   0.050   4.752   0.363  0.9879  0.0978 -0.8480
 6674TIP3   OH241580   3.945   6.051   1.348  0.7125  0.0672 -0.0231
 6674TIP3    H141581   4.034   6.084   1.334  0.1854  0.5746 -2.8581
 6674TIP3    H241582   3.947   5.963   1.310 -0.5487  1.0405 -2.5990
 6675TIP3   OH241583   4.099   3.088   8.382 -0.2709 -0.3928 -0.1563
 6675TIP3    H141584   4.043   3.098   8.459 -0.1087 -1.9416  0.2081
 6675TIP3    H241585   4.186   3.075   8.418 -0.4811 -3.1819 -0.4315
 6676TIP3   OH241586   4.109   5.646   7.924 -0.2390  0.0885 -0.9572
 6676TIP3    H141587   4.098   5.740   7.916  0.3482  0.2443 -0.0781
 6676TIP3    H241588   4.204   5.633   7.918 -0.2439 -0.3459 -0.1424
 6677TIP3   OH241589   3.319   5.436   7.719 -0.1914 -0.6517  0.6042
 6677TIP3    H141590   3.306   5.460   7.627  0.1025  1.2379  1.0210
 6677TIP3    H241591   3.234   5.406   7.748 -0.7712  0.5258  0.1897
 6678TIP3   OH241592   0.741   5.635   2.416  0.1983 -0.5947  0.0371
 6678TIP3    H141593   0.678   5.624   2.486 -1.5742  0.7579 -1.2503
 6678TIP3    H241594   0.721   5.565   2.354 -0.3944  0.0763 -0.5676
 6679TIP3   OH241595   3.932   1.018   1.231  0.0541 -0.2309 -0.3411
 6679TIP3    H141596   4.020   1.056   1.231 -0.0820  0.2422 -2.4099
 6679TIP3    H241597   3.886   1.063   1.302  1.7414 -1.2898  1.5298
 6680TIP3   OH241598   2.807   3.455   1.352 -0.5141 -0.0801 -0.0036
 6680TIP3    H141599   2.788   3.371   1.394 -1.7675  0.0226 -0.3381
 6680TIP3    H241600   2.772   3.447   1.264  1.3695  0.0050 -0.8170
 6681TIP3   OH241601   3.207   0.693   2.303  0.1833  0.1035  0.8071
 6681TIP3    H141602   3.292   0.648   2.305  1.3395  2.1286  0.5908
 6681TIP3    H241603   3.197   0.728   2.392 -1.0400 -1.1309  1.1776
 6682TIP3   OH241604   1.927   1.242   0.213  0.0208 -0.3297  0.3403
 6682TIP3    H141605   1.928   1.307   0.142  3.0193 -0.8592 -0.2158
 6682TIP3    H241606   1.907   1.293   0.291  2.3480  1.3513 -0.0737
 6683TIP3   OH241607   2.038   3.885   8.065 -0.0700 -0.1314 -0.7726
 6683TIP3    H141608   1.964   3.829   8.042  0.1892 -0.5124 -0.6767
 6683TIP3    H241609   1.998   3.970   8.085 -0.4354 -0.1982 -1.2007
 6684TIP3   OH241610   3.189   2.338   7.391  0.0445  0.1355 -0.5818
 6684TIP3    H141611   3.242   2.313   7.315  0.6241 -2.1647  0.4847
 6684TIP3    H241612   3.250   2.384   7.448 -0.1717  1.0801 -1.0891
 6685TIP3   OH241613   6.080   3.189   8.431 -0.2615 -0.4994  0.2284
 6685TIP3    H141614   6.145   3.183   8.361  0.4271  0.5757  0.7418
 6685TIP3    H241615   6.050   3.280   8.429  0.1873 -0.2821  1.6714
 6686TIP3   OH241616   5.621   4.860   1.344 -0.1477  0.3659 -0.3452
 6686TIP3    H141617   5.634   4.781   1.397  1.3641  0.4515 -0.5306
 6686TIP3    H241618   5.541   4.843   1.294 -0.6909 -0.3928  0.7582
 6687TIP3   OH241619   4.386   0.000   6.992 -0.2948 -0.1707  0.4027
 6687TIP3    H141620   4.468  -0.024   7.035 -0.3838 -0.8280  0.2060
 6687TIP3    H241621   4.346  -0.083   6.966 -0.9450  0.1463  0.3452
 6688TIP3   OH241622   3.968   5.937   8.478 -0.5491  0.2593  0.3995
 6688TIP3    H141623   3.928   5.990   8.547 -0.7267  1.7749 -0.7914
 6688TIP3    H241624   4.031   5.997   8.436 -2.1218  0.2375 -2.2440
 6689TIP3   OH241625   3.942   4.137   0.055 -0.5307  0.1099 -0.2405
 6689TIP3    H141626   3.852   4.124   0.027 -0.3445 -0.0288 -0.7796
 6689TIP3    H241627   3.936   4.152   0.150 -1.3087  2.0324 -0.5411
 6690TIP3   OH241628   5.302   0.017   7.138 -0.3145  0.3189 -0.1725
 6690TIP3    H141629   5.263   0.051   7.218 -1.0871  1.8752 -1.1607
 6690TIP3    H241630   5.373   0.078   7.117 -1.3375  1.0698 -1.6547
 6691TIP3   OH241631   6.372   2.676   7.037  0.8230 -0.3130 -0.5419
 6691TIP3    H141632   6.409   2.682   7.125 -0.5324  1.8081 -0.0542
 6691TIP3    H241633   6.366   2.582   7.021  0.1455 -0.8008  2.0632
 6692TIP3   OH241634   2.164   2.462   6.978 -0.4057 -0.4099 -0.1092
 6692TIP3    H141635   2.240   2.449   6.921 -0.5268 -0.0634 -0.3503
 6692TIP3    H241636   2.192   2.427   7.063  0.4343  0.7342  0.1116
 6693TIP3   OH241637   6.457   6.207   8.783 -0.0989  0.5087  0.3659
 6693TIP3    H141638   6.531   6.148   8.768  0.3715  1.2218 -0.1535
 6693TIP3    H241639   6.428   6.231   8.695  0.5372  2.0567  0.5553
 6694TIP3   OH241640   3.655   2.423   2.286 -0.1175  0.2820  0.0401
 6694TIP3    H141641   3.736   2.377   2.264  0.9542  1.7135  0.8356
 6694TIP3    H241642   3.680   2.516   2.286 -1.6622  0.7168  0.7209
 6695TIP3   OH241643   2.148   3.529   6.773 -0.2762 -0.5524  0.0856
 6695TIP3    H141644   2.242   3.525   6.755 -0.3966  0.8495 -0.9786
 6695TIP3    H241645   2.134   3.617   6.808 -1.3011 -0.4630 -0.5221
 6696TIP3   OH241646   2.027   6.022   2.137 -0.0614  0.1437 -0.0455
 6696TIP3    H141647   2.105   6.022   2.194  0.3675  0.0956 -0.6216
 6696TIP3    H241648   1.987   6.107   2.153  1.3100  1.0844 -1.3239
 6697TIP3   OH241649   2.953   2.959   8.553 -0.1119  0.0636 -0.5442
 6697TIP3    H141650   3.036   2.936   8.510  0.3068 -0.2206  0.3908
 6697TIP3    H241651   2.926   3.040   8.510  0.7389  0.2533 -0.7422
 6698TIP3   OH241652   0.723   2.144   0.087  0.5356  0.5351 -0.1823
 6698TIP3    H141653   0.722   2.121   0.180  0.0511  0.5104 -0.1937
 6698TIP3    H241654   0.634   2.128   0.057  0.4645  1.3836 -0.4509
 6699TIP3   OH241655   2.920   6.675   1.255  0.0696 -0.3009  0.1948
 6699TIP3    H141656   2.929   6.710   1.344 -0.1826  1.9088 -0.5858
 6699TIP3    H241657   2.844   6.618   1.259 -2.0488  2.3509  0.7442
 6700TIP3   OH241658   5.464   4.860   8.654  0.8116 -0.5206  0.3098
 6700TIP3    H141659   5.402   4.837   8.585 -0.3226  2.3332  0.2615
 6700TIP3    H241660   5.413   4.912   8.716  2.6149 -0.0885  1.5165
 6701TIP3   OH241661   6.201   1.285   1.425  0.0652  0.2623  0.5450
 6701TIP3    H141662   6.141   1.340   1.477 -1.0888 -0.8600  0.4366
 6701TIP3    H241663   6.183   1.196   1.454  1.6672 -0.1126  0.4586
 6702TIP3   OH241664   3.538   4.375   7.541  0.3940 -0.2178  0.9836
 6702TIP3    H141665   3.566   4.452   7.491 -0.5899  0.0912  0.8874
 6702TIP3    H241666   3.614   4.317   7.541  0.2978 -0.4102 -1.1947
 6703TIP3   OH241667   3.217   0.558   0.670  0.1391 -0.2051 -0.3006
 6703TIP3    H141668   3.197   0.647   0.640 -0.4019 -0.2990 -0.2343
 6703TIP3    H241669   3.249   0.570   0.759 -0.6146 -0.1341 -0.0348
 6704TIP3   OH241670   1.535   5.438   0.288 -0.1113  0.4110 -0.2230
 6704TIP3    H141671   1.573   5.444   0.201 -2.0160 -0.7923 -1.2224
 6704TIP3    H241672   1.557   5.521   0.330  0.2054  1.3480 -2.1259
 6705TIP3   OH241673   0.053   4.411   7.561 -0.5210 -0.4116 -0.1680
 6705TIP3    H141674   0.149   4.418   7.552 -0.4744  0.1148  0.6615
 6705TIP3    H241675   0.020   4.442   7.477 -0.1022  4.7676  1.1901
 6706TIP3   OH241676   5.744   6.416   0.307  0.1651  0.1997 -0.0145
 6706TIP3    H141677   5.705   6.399   0.222  3.1380 -1.5554 -1.1881
 6706TIP3    H241678   5.775   6.331   0.337  1.6475  1.1846  1.4904
 6707TIP3   OH241679   3.999   3.459   0.190  0.7380 -0.0530 -0.1267
 6707TIP3    H141680   3.938   3.390   0.213 -0.3942  1.5258  1.9276
 6707TIP3    H241681   4.083   3.430   0.223  0.4671 -0.8354 -0.1150
 6708TIP3   OH241682   1.848   6.765   8.025 -0.1423  0.0784  0.2577
 6708TIP3    H141683   1.927   6.718   8.050 -0.7193 -0.3074  1.4063
 6708TIP3    H241684   1.813   6.799   8.107  0.5709  3.0846 -0.5283
 6709TIP3   OH241685   1.694   4.943   7.420  0.0579 -0.6236 -0.3669
 6709TIP3    H141686   1.641   4.871   7.454 -2.0592  1.2427  0.5513
 6709TIP3    H241687   1.756   4.901   7.361 -0.9807 -3.1979  0.2266
 6710TIP3   OH241688   1.012   0.427   7.688  0.0486 -0.1719 -0.0677
 6710TIP3    H141689   0.943   0.459   7.631  1.4523 -1.7932 -2.9024
 6710TIP3    H241690   0.981   0.341   7.717 -0.2761  0.2736  0.9509
 6711TIP3   OH241691   5.525   1.323   1.924  0.5647 -0.0040  0.0531
 6711TIP3    H141692   5.449   1.378   1.940  1.0849  1.1234 -1.2270
 6711TIP3    H241693   5.537   1.275   2.007 -0.9739  0.4530  0.5727
 6712TIP3   OH241694   4.525   3.191   8.494 -0.0829 -0.5533 -0.0761
 6712TIP3    H141695   4.596   3.250   8.470 -0.8395  0.5252  0.2246
 6712TIP3    H241696   4.507   3.141   8.415  0.7613 -0.5782 -0.2567
 6713TIP3   OH241697   5.741   4.300   0.870 -0.0972 -0.0323  0.1908
 6713TIP3    H141698   5.777   4.301   0.958  0.5362  2.8561 -0.0201
 6713TIP3    H241699   5.673   4.232   0.873 -0.6491  0.5250  3.1069
 6714TIP3   OH241700   5.895   3.278   0.447  0.5033  0.5293 -0.2043
 6714TIP3    H141701   5.985   3.287   0.476  0.3057 -0.6679  0.8488
 6714TIP3    H241702   5.894   3.200   0.392  0.3530  1.3099 -1.3507
 6715TIP3   OH241703   6.150   1.115   7.208  0.5045 -0.0519  0.2953
 6715TIP3    H141704   6.105   1.165   7.276  0.6117 -0.0622  0.3737
 6715TIP3    H241705   6.083   1.058   7.171  0.4832 -0.1550  0.4944
 6716TIP3   OH241706   5.363   3.206   0.832  0.0336  0.2331 -0.4939
 6716TIP3    H141707   5.399   3.260   0.902  0.0192 -0.8919  0.4192
 6716TIP3    H241708   5.335   3.268   0.765  3.4534  1.2187 -1.1888
 6717TIP3   OH241709   2.362   6.681   7.835 -0.1439 -0.3727 -0.6964
 6717TIP3    H141710   2.361   6.673   7.740 -0.5400 -0.4544 -0.6879
 6717TIP3    H241711   2.452   6.658   7.860  0.0834  0.0798 -1.0825
 6718TIP3   OH241712   3.011   3.051   1.051  0.5975 -0.1869  0.2426
 6718TIP3    H141713   2.965   3.049   1.135 -1.2290 -1.1779 -0.7378
 6718TIP3    H241714   3.019   3.144   1.030  0.5140  0.0466  1.1915
 6719TIP3   OH241715   5.048   6.306   8.420 -0.3714 -0.3594 -0.4317
 6719TIP3    H141716   5.127   6.358   8.405  0.9750 -1.7854  1.2715
 6719TIP3    H241717   5.018   6.331   8.507 -0.4069 -1.4705 -0.1012
 6720TIP3   OH241718   0.099   5.110   6.610  0.0889  0.3866  0.1097
 6720TIP3    H141719   0.010   5.075   6.616  0.0106  0.5336 -0.2116
 6720TIP3    H241720   0.093   5.182   6.548  0.3429  0.6943  0.4363
 6721TIP3   OH241721   0.786   5.908   2.302  0.1374  0.0066 -0.2993
 6721TIP3    H141722   0.858   5.871   2.354 -0.5652 -1.4127 -0.2729
 6721TIP3    H241723   0.723   5.836   2.295 -2.1361  1.7273  1.2203
 6722TIP3   OH241724   2.458   1.597   7.546  0.7977 -0.0076  0.4594
 6722TIP3    H141725   2.445   1.504   7.568  2.5277  0.0779  2.0951
 6722TIP3    H241726   2.386   1.642   7.590  0.7813 -0.4320  0.8716
 6723TIP3   OH241727   6.409   5.344   1.846  0.2685  0.6731  0.0291
 6723TIP3    H141728   6.369   5.372   1.763 -1.2586  0.8978  0.8128
 6723TIP3    H241729   6.502   5.337   1.826  0.1154  2.0262 -1.3669
 6724TIP3   OH241730   6.051   5.878   2.579 -0.1632  0.3585  0.4117
 6724TIP3    H141731   6.077   5.790   2.605  0.4047  0.2633 -0.4577
 6724TIP3    H241732   6.045   5.875   2.484 -1.1573  0.9926  0.4426
 6725TIP3   OH241733   4.666   3.307   6.471  0.0788 -0.0036 -0.1004
 6725TIP3    H141734   4.716   3.227   6.451  0.7310  0.3376  0.1465
 6725TIP3    H241735   4.679   3.320   6.565 -0.0055  0.4171 -0.1479
 6726TIP3   OH241736   5.879   1.923   7.767  0.2381 -0.4119  0.0675
 6726TIP3    H141737   5.819   1.909   7.694 -0.8990 -0.2840  0.9421
 6726TIP3    H241738   5.961   1.883   7.739 -0.9289 -2.7342 -0.2409
 6727TIP3   OH241739   2.984   3.355   0.951  0.7657 -0.1804 -0.3615
 6727TIP3    H141740   3.035   3.378   1.029  0.4770  2.4509 -0.8586
 6727TIP3    H241741   2.893   3.370   0.977  0.5659 -0.6517 -0.7845
 6728TIP3   OH241742   5.829   2.306   0.854 -0.3715 -0.4912 -0.0516
 6728TIP3    H141743   5.908   2.357   0.835  1.0053 -2.3706  0.3360
 6728TIP3    H241744   5.757   2.361   0.823  1.1670  0.6467 -1.8416
 6729TIP3   OH241745   6.336   6.101   0.632  0.0986 -0.2914 -0.3150
 6729TIP3    H141746   6.261   6.147   0.594 -2.6571 -2.2052  2.3036
 6729TIP3    H241747   6.351   6.027   0.575  1.4085  1.1426 -1.9299
 6730TIP3   OH241748   3.588   5.693   0.752  0.1247  0.3959 -0.3426
 6730TIP3    H141749   3.592   5.598   0.754  0.8901  0.4190 -0.1969
 6730TIP3    H241750   3.651   5.718   0.683  0.3154  0.8040 -0.0269
 6731TIP3   OH241751   5.842   2.661   7.894  0.0243  0.0793 -0.0071
 6731TIP3    H141752   5.762   2.609   7.882  0.6433 -0.9745  0.3545
 6731TIP3    H241753   5.865   2.648   7.985  2.2825 -2.1307 -0.7842
 6732TIP3   OH241754   0.973   1.445   8.188  0.2361  0.1084  0.1873
 6732TIP3    H141755   0.989   1.538   8.169  0.9618  0.0581  0.5100
 6732TIP3    H241756   1.056   1.402   8.165 -0.1585 -0.4920 -0.1432
 6733TIP3   OH241757   1.958   5.716   0.370 -0.8170 -0.3469  0.2221
 6733TIP3    H141758   1.876   5.679   0.402 -1.1630  1.6096  1.7972
 6733TIP3    H241759   1.933   5.799   0.329  0.3067 -0.0625  0.0745
 6734TIP3   OH241760   6.448   3.287   0.967 -0.1944  0.2150  0.2720
 6734TIP3    H141761   6.497   3.365   0.992  0.2755  0.0578 -0.1447
 6734TIP3    H241762   6.460   3.280   0.873 -0.6048 -0.1101  0.2435
 6735TIP3   OH241763   5.585   3.232   8.370 -0.1430 -0.1092 -0.1993
 6735TIP3    H141764   5.662   3.205   8.420  0.7996 -3.1569 -2.9348
 6735TIP3    H241765   5.517   3.170   8.397 -0.8228  0.7515  0.1130
 6736TIP3   OH241766   0.087   0.875   6.890  0.0916 -0.3943 -0.5832
 6736TIP3    H141767   0.164   0.929   6.875  0.0874 -0.2977 -0.2622
 6736TIP3    H241768   0.021   0.912   6.832 -0.4935  1.1705  0.9733
 6737TIP3   OH241769   6.074   4.260   6.675 -0.4630  0.0180  0.2991
 6737TIP3    H141770   5.981   4.251   6.654 -0.1128  0.5574 -1.7470
 6737TIP3    H241771   6.114   4.290   6.593  1.3815  0.6814  1.3832
 6738TIP3   OH241772   3.196   2.454   6.528  0.2278 -0.0708  0.1409
 6738TIP3    H141773   3.180   2.538   6.571 -3.3264 -0.9564  0.8251
 6738TIP3    H241774   3.160   2.463   6.440  0.4956 -0.6467 -0.0391
 6739TIP3   OH241775   4.686   0.845   6.827 -0.3154 -0.4766  0.4456
 6739TIP3    H141776   4.639   0.826   6.908  1.1420 -0.2659  1.3953
 6739TIP3    H241777   4.678   0.939   6.815 -0.1782 -0.4449  0.5941
 6740TIP3   OH241778   4.817   2.170   2.351  0.0939  0.0257  0.4770
 6740TIP3    H141779   4.775   2.248   2.315 -1.7281 -1.1415 -0.1225
 6740TIP3    H241780   4.824   2.187   2.445 -4.4581 -0.6895  1.1877
 6741TIP3   OH241781   3.908   0.691   0.290 -0.2549  0.0705 -0.1003
 6741TIP3    H141782   3.985   0.677   0.234 -1.0821 -0.7512 -1.0576
 6741TIP3    H241783   3.837   0.644   0.247 -1.0699 -0.0830  1.3430
 6742TIP3   OH241784   3.327   2.102   6.992 -0.1445  0.0656 -0.4622
 6742TIP3    H141785   3.298   2.095   6.902 -0.5065  0.0607 -0.3465
 6742TIP3    H241786   3.407   2.050   6.996  0.8198  1.4176 -1.1873
 6743TIP3   OH241787   0.650   1.201   1.521  0.3539 -0.0112 -0.0505
 6743TIP3    H141788   0.736   1.207   1.563  0.1406  0.1323  0.3706
 6743TIP3    H241789   0.651   1.116   1.477  1.4313  0.7855 -1.6651
 6744TIP3   OH241790   5.831   0.962   1.809 -0.3668 -0.0537 -0.6808
 6744TIP3    H141791   5.826   0.868   1.826 -0.1019 -0.3294 -1.9928
 6744TIP3    H241792   5.842   1.002   1.895  0.6868 -1.3170 -0.2065
 6745TIP3   OH241793   2.517   4.960   0.342 -0.7908 -0.0289  0.3694
 6745TIP3    H141794   2.512   4.926   0.431 -0.4564 -0.2840  0.2945
 6745TIP3    H241795   2.566   5.042   0.350 -1.1786  0.1946  0.4837
 6746TIP3   OH241796   4.057   5.207   6.863 -0.2340  0.5448  0.2416
 6746TIP3    H141797   4.145   5.218   6.901 -0.0105 -0.2721 -0.0387
 6746TIP3    H241798   4.068   5.143   6.793 -1.1960 -0.1619  0.7110
 6747TIP3   OH241799   5.698   0.088   1.141 -0.1464 -0.0365 -1.0016
 6747TIP3    H141800   5.606   0.095   1.118 -1.0158 -1.0715  1.8381
 6747TIP3    H241801   5.700   0.085   1.237  3.1637  4.4986 -0.5416
 6748TIP3   OH241802   2.938   6.228   0.587  0.2757 -0.0326  0.0496
 6748TIP3    H141803   2.996   6.162   0.626 -1.7424 -1.8161  0.2758
 6748TIP3    H241804   2.938   6.209   0.494  0.9791  0.7612 -0.1193
 6749TIP3   OH241805   2.163   5.179   0.833 -0.1417  0.3094  0.5093
 6749TIP3    H141806   2.178   5.271   0.856 -1.3012  0.7653 -0.4351
 6749TIP3    H241807   2.097   5.182   0.763  0.7091 -1.1771 -0.4102
 6750TIP3   OH241808   6.051   6.672   0.970 -0.4615  0.5945  0.3292
 6750TIP3    H141809   6.047   6.757   1.014  1.1165  1.3798 -0.9649
 6750TIP3    H241810   6.144   6.652   0.962 -0.7789 -0.8258 -0.2154
 6751TIP3   OH241811   2.483   0.848   5.938  0.1938  0.4955  0.7141
 6751TIP3    H141812   2.392   0.822   5.926 -0.7181  2.2490  2.9721
 6751TIP3    H241813   2.511   0.800   6.016  0.7648  0.9460  0.7934
 6752TIP3   OH241814   3.585   3.239   0.411  0.0454 -0.3765 -0.1871
 6752TIP3    H141815   3.554   3.320   0.452  1.0028 -0.2351  0.2967
 6752TIP3    H241816   3.506   3.198   0.375 -0.6643  0.0287  0.8667
 6753TIP3   OH241817   0.392   4.601   0.193 -0.0836 -0.2421 -0.0211
 6753TIP3    H141818   0.407   4.634   0.282 -0.6460 -1.0138  0.3729
 6753TIP3    H241819   0.401   4.679   0.138 -0.4902  0.4091  0.7924
 6754TIP3   OH241820   0.084   6.219   6.906  0.4056  0.4088 -0.3229
 6754TIP3    H141821   0.072   6.161   6.981 -1.1057  0.7760 -0.2396
 6754TIP3    H241822   0.066   6.163   6.830  2.1641 -0.0234 -0.4701
 6755TIP3   OH241823   5.274   0.232   0.446  0.1874  0.6418  0.0004
 6755TIP3    H141824   5.277   0.318   0.405  1.6272  1.4673  1.6842
 6755TIP3    H241825   5.309   0.172   0.380  1.6757  1.7780 -0.2943
 6756TIP3   OH241826   2.904   6.482   8.663 -0.0642  0.3302  0.1514
 6756TIP3    H141827   2.987   6.528   8.675 -0.3800  1.1245 -0.6486
 6756TIP3    H241828   2.920   6.395   8.700 -0.1696  1.7055  3.8975
 6757TIP3   OH241829   5.432   5.355   7.375  0.2769 -0.5176  0.4945
 6757TIP3    H141830   5.434   5.444   7.410  1.1262  0.5300 -1.9480
 6757TIP3    H241831   5.490   5.305   7.432 -0.1775  0.4916  1.8834
 6758TIP3   OH241832   0.699   6.191   7.958 -0.5615  0.1890  0.2478
 6758TIP3    H141833   0.688   6.111   7.905 -0.6778 -0.1176  0.7329
 6758TIP3    H241834   0.792   6.213   7.948 -0.5258 -0.0095  0.1168
 6759TIP3   OH241835   0.209   5.335   0.963  0.4746  0.0626  0.7801
 6759TIP3    H141836   0.206   5.295   1.051 -1.8857  1.1479  1.2686
 6759TIP3    H241837   0.244   5.265   0.907 -1.0314 -1.8238  2.0406
 6760TIP3   OH241838   2.262   5.073   6.636 -0.3352 -0.1548 -0.4435
 6760TIP3    H141839   2.276   4.999   6.577 -0.7333  0.5441 -1.4365
 6760TIP3    H241840   2.348   5.092   6.673 -0.4432 -1.9795  0.9232
 6761TIP3   OH241841   5.335   0.564   8.118  0.8339  0.3163 -0.5885
 6761TIP3    H141842   5.410   0.589   8.172  0.9281  1.3570 -1.1572
 6761TIP3    H241843   5.275   0.521   8.178  1.2180  0.8629  0.2085
 6762TIP3   OH241844   4.911   3.768   0.131  0.0730 -0.0826 -0.0842
 6762TIP3    H141845   4.816   3.761   0.124  0.2320 -1.2767 -1.6621
 6762TIP3    H241846   4.943   3.757   0.042  1.7149 -0.1573  0.4700
 6763TIP3   OH241847   1.599   6.194   7.517 -0.4181  0.2716  0.8641
 6763TIP3    H141848   1.582   6.115   7.466 -0.0830  0.4738  0.4319
 6763TIP3    H241849   1.680   6.176   7.564 -0.9414 -0.0674  1.6417
 6764TIP3   OH241850   1.026   2.215   0.251 -0.1566 -0.0900  0.1870
 6764TIP3    H141851   1.054   2.157   0.322  0.7175  1.9270  1.5823
 6764TIP3    H241852   1.098   2.212   0.188 -0.0043 -0.3242  0.3690
 6765TIP3   OH241853   1.096   4.683   0.764 -0.2769 -0.6521  0.5781
 6765TIP3    H141854   1.120   4.622   0.834  0.2945  1.9332  2.7876
 6765TIP3    H241855   1.049   4.754   0.808 -0.8387  0.6043 -1.8408
 6766TIP3   OH241856   0.925   1.512   1.040 -0.1585 -0.8812  0.3394
 6766TIP3    H141857   0.950   1.429   1.000 -0.7631 -0.4107 -1.1048
 6766TIP3    H241858   0.914   1.492   1.132 -0.6607 -2.4918 -0.0327
 6767TIP3   OH241859   5.531   4.770   7.874 -0.3622  0.1328  0.0536
 6767TIP3    H141860   5.570   4.765   7.787  0.1405 -0.7851  0.3177
 6767TIP3    H241861   5.469   4.698   7.877 -2.0956  1.5380 -0.3330
 6768TIP3   OH241862   6.208   1.108   7.683  0.3643 -0.0596  0.0288
 6768TIP3    H141863   6.172   1.045   7.621  1.4207  0.0102 -0.6809
 6768TIP3    H241864   6.269   1.057   7.737 -0.0815  0.0091  0.6114
 6769TIP3   OH241865   0.183   5.706   1.325  0.2896 -0.0346 -0.3667
 6769TIP3    H141866   0.163   5.794   1.356  0.4372  0.1085 -0.6681
 6769TIP3    H241867   0.275   5.709   1.299  1.1115 -1.0185  2.1182
 6770TIP3   OH241868   5.977   2.361   2.909 -0.3610  0.0223 -0.1219
 6770TIP3    H141869   5.979   2.267   2.890 -0.5236 -0.0429  0.1954
 6770TIP3    H241870   5.887   2.388   2.893 -0.3971  0.0551  0.1351
 6771TIP3   OH241871   3.423   2.935   2.063 -0.3315 -0.4439  0.2382
 6771TIP3    H141872   3.495   2.923   2.001 -1.5342 -0.6716 -1.1973
 6771TIP3    H241873   3.345   2.915   2.011 -1.4089 -0.4307  1.8063
 6772TIP3   OH241874   3.014   4.887   7.589 -0.1767  0.0461 -0.7999
 6772TIP3    H141875   2.922   4.875   7.565 -0.2593  0.9657 -0.9729
 6772TIP3    H241876   3.036   4.975   7.558  0.4234  0.3120  0.3186
 6773TIP3   OH241877   4.093   0.803   1.694 -0.7563  0.2282  0.3260
 6773TIP3    H141878   4.046   0.842   1.768 -1.7619  0.7737 -0.5614
 6773TIP3    H241879   4.026   0.794   1.625  0.1610 -0.1945 -0.5423
 6774TIP3   OH241880   1.692   0.100   1.174  0.4503  0.4181 -0.6000
 6774TIP3    H141881   1.705   0.192   1.151  0.3983  0.3061 -1.0858
 6774TIP3    H241882   1.656   0.102   1.263  1.3280  0.8341 -0.2379
 6775TIP3   OH241883   1.475   4.043   8.464 -0.3850  0.9933  0.2667
 6775TIP3    H141884   1.400   4.044   8.403 -0.0770  0.0992 -0.1421
 6775TIP3    H241885   1.500   4.135   8.471 -0.7558  1.1757 -0.5655
 6776TIP3   OH241886   6.027   4.262   8.060  0.2318  0.1453 -0.3661
 6776TIP3    H141887   5.956   4.317   8.028 -0.5418 -0.6382 -0.0385
 6776TIP3    H241888   5.984   4.200   8.119  1.0636 -0.8823 -0.8207
 6777TIP3   OH241889   1.462   4.038   1.373 -0.1643  0.6930  0.8944
 6777TIP3    H141890   1.465   4.112   1.313 -0.8960  0.0565  0.0563
 6777TIP3    H241891   1.536   4.052   1.432  0.2506  1.5986  0.1776
 6778TIP3   OH241892   4.683   3.283   0.809 -0.4876  0.6088 -0.0050
 6778TIP3    H141893   4.645   3.274   0.896  1.3080  0.2544  0.7856
 6778TIP3    H241894   4.608   3.274   0.749 -1.5474 -0.6037  1.4299
 6779TIP3   OH241895   5.342   0.330   0.079  0.7954  0.2640 -0.1411
 6779TIP3    H141896   5.362   0.421   0.058 -1.0866  0.8332  0.3806
 6779TIP3    H241897   5.266   0.309   0.026 -0.4481 -0.1258  1.7221
 6780TIP3   OH241898   1.258   5.455   8.194 -0.1363 -0.6067 -0.1435
 6780TIP3    H141899   1.259   5.502   8.111 -0.0419  0.7613  0.6001
 6780TIP3    H241900   1.322   5.384   8.183  0.3584 -0.0367 -0.9994
 6781TIP3   OH241901   5.731   3.528   1.571  0.1710  0.2522 -0.3523
 6781TIP3    H141902   5.666   3.576   1.623 -0.3100  1.8381 -2.2650
 6781TIP3    H241903   5.807   3.522   1.628 -1.6315 -1.8286  2.0287
 6782TIP3   OH241904   5.315   5.180   1.590 -0.0054 -0.5352  0.1875
 6782TIP3    H141905   5.226   5.197   1.559 -1.0517 -0.3627  2.9773
 6782TIP3    H241906   5.337   5.094   1.556  0.0544  0.6154 -3.0406
 6783TIP3   OH241907   4.861   2.456   0.708 -0.3017  0.1402  0.0199
 6783TIP3    H141908   4.809   2.487   0.782 -0.0046  0.7477 -0.0217
 6783TIP3    H241909   4.871   2.533   0.651 -0.0949 -0.1894 -0.3986
 6784TIP3   OH241910   2.403   2.746   0.801 -0.0400 -0.0198  0.5139
 6784TIP3    H141911   2.446   2.669   0.764 -1.1097  0.2984 -1.5520
 6784TIP3    H241912   2.475   2.808   0.818  0.5364 -0.2119 -1.0553
 6785TIP3   OH241913   0.073   0.507   0.329 -0.0139 -0.1403  0.4459
 6785TIP3    H141914  -0.017   0.479   0.312  0.1358 -0.1801 -0.2897
 6785TIP3    H241915   0.122   0.426   0.335 -0.1794 -0.1688  1.8320
 6786TIP3   OH241916   4.758   4.051   6.915 -0.1297  0.7312  0.5917
 6786TIP3    H141917   4.730   4.022   7.002 -1.7456 -0.3720 -0.2266
 6786TIP3    H241918   4.786   4.142   6.927  1.0380  0.1630  2.4890
 6787TIP3   OH241919   0.226   6.488   0.410  0.2342  0.8908  0.3304
 6787TIP3    H141920   0.178   6.491   0.493 -1.1416  0.5895 -0.4121
 6787TIP3    H241921   0.192   6.561   0.359 -0.5651 -0.1863 -0.7700
 6788TIP3   OH241922   3.827   3.919   7.575 -0.6053 -0.0194 -0.0939
 6788TIP3    H141923   3.739   3.902   7.610 -0.4302  0.1627  0.4432
 6788TIP3    H241924   3.881   3.849   7.612 -0.7420 -0.8022 -1.3289
 6789TIP3   OH241925   0.882   1.152   0.080  0.0636 -0.2597 -0.1085
 6789TIP3    H141926   0.847   1.069   0.049 -0.4163  0.1640 -0.7284
 6789TIP3    H241927   0.805   1.205   0.101  0.3556 -0.7838  2.6296
 6790TIP3   OH241928   0.136   2.124   8.839  0.2638  0.1698 -0.2169
 6790TIP3    H141929   0.068   2.184   8.868 -0.6532 -1.1905  0.5271
 6790TIP3    H241930   0.148   2.144   8.746  0.9565  2.3973  0.2917
 6791TIP3   OH241931   3.877   6.064   0.240 -0.9448  0.0522  0.1552
 6791TIP3    H141932   3.841   5.976   0.248 -1.0304  0.1499  0.9995
 6791TIP3    H241933   3.826   6.116   0.303 -1.1500  0.7875 -0.5965
 6792TIP3   OH241934   6.363   6.217   8.207  0.1142  0.5644 -0.0262
 6792TIP3    H141935   6.410   6.137   8.184  0.1373  0.4727  0.3270
 6792TIP3    H241936   6.309   6.237   8.131 -0.4573 -0.2077  0.1611
 6793TIP3   OH241937   0.789   0.435   7.512  1.3441 -0.2306  0.5336
 6793TIP3    H141938   0.723   0.367   7.524 -0.5726  0.6851 -3.1454
 6793TIP3    H241939   0.852   0.398   7.451  1.3009  0.6188 -0.0540
 6794TIP3   OH241940   1.516   5.362   1.255 -0.4466 -0.6563 -0.1231
 6794TIP3    H141941   1.530   5.431   1.320 -0.3247  0.7659 -1.6069
 6794TIP3    H241942   1.446   5.309   1.292 -1.8600  1.3536  0.2526
 6795TIP3   OH241943   2.539   0.864   8.548  0.0605  0.4833 -0.0192
 6795TIP3    H141944   2.467   0.927   8.547 -0.6001 -0.2601 -0.8883
 6795TIP3    H241945   2.586   0.879   8.467  0.7471  0.7943  0.4287
 6796TIP3   OH241946   5.528   3.356   0.513  0.3023 -0.3579 -0.2153
 6796TIP3    H141947   5.467   3.312   0.454 -0.2289 -2.6700  1.9286
 6796TIP3    H241948   5.481   3.435   0.542  0.5689  0.8322 -2.7301
 6797TIP3   OH241949   0.043   4.620   7.003 -0.1271  0.2947 -0.2820
 6797TIP3    H141950   0.025   4.609   7.096  2.4206 -1.4476  0.1070
 6797TIP3    H241951   0.075   4.710   6.995 -1.5827  0.8864  0.2532
 6798TIP3   OH241952   1.196   0.903   1.157  0.7445  0.1147 -0.2397
 6798TIP3    H141953   1.105   0.887   1.184  1.2959 -0.7825  1.2570
 6798TIP3    H241954   1.189   0.938   1.068 -1.0317 -0.5657 -0.4224
 6799TIP3   OH241955   3.974   1.054   7.644 -0.2245  0.1139  0.0037
 6799TIP3    H141956   3.938   1.114   7.709  1.0176 -0.5730  1.3810
 6799TIP3    H241957   3.957   1.097   7.560 -2.4469  0.7196  0.6898
 6800TIP3   OH241958   1.958   6.693   7.671 -0.1892 -0.2773  0.5941
 6800TIP3    H141959   1.906   6.751   7.726 -0.7984 -0.9130  0.7023
 6800TIP3    H241960   1.894   6.650   7.614  0.2051 -1.0798  0.7352
 6801TIP3   OH241961   3.624   6.655   7.643  0.1905  0.1536  0.0808
 6801TIP3    H141962   3.687   6.673   7.713  0.6803 -0.0892 -0.2913
 6801TIP3    H241963   3.539   6.681   7.680  0.8667  4.2071 -0.7325
 6802TIP3   OH241964   6.445   6.494   7.903 -0.6621  0.0107 -0.2490
 6802TIP3    H141965   6.474   6.573   7.949  1.3874 -0.5017 -0.5621
 6802TIP3    H241966   6.424   6.524   7.815  0.5681  0.1778 -0.5106
 6803TIP3   OH241967   6.729   6.716   0.499 -0.2624  0.6582  0.2779
 6803TIP3    H141968   6.697   6.629   0.477  0.4660 -0.5254  3.3752
 6803TIP3    H241969   6.688   6.736   0.584 -0.2167  3.2494 -0.2175
 6804TIP3   OH241970   2.678   0.785   7.100 -0.0613 -0.2903  0.1835
 6804TIP3    H141971   2.657   0.871   7.135  1.6444 -0.4116  1.6231
 6804TIP3    H241972   2.718   0.803   7.015  0.3300  0.3330  0.4981
 6805TIP3   OH241973   2.170   1.076   8.026 -0.5821 -0.0543 -0.5969
 6805TIP3    H141974   2.117   1.154   8.040 -1.1416 -0.2174 -1.7116
 6805TIP3    H241975   2.210   1.058   8.111 -5.4006 -2.2287  1.5621
 6806TIP3   OH241976   2.490   2.919   7.176 -0.6551 -0.5868  0.1685
 6806TIP3    H141977   2.522   3.004   7.146 -0.9098 -0.9726 -1.2484
 6806TIP3    H241978   2.476   2.869   7.096  1.3208 -2.6611  1.0202
 6807TIP3   OH241979   5.918   6.677   0.385 -0.0808  0.6329 -0.1514
 6807TIP3    H141980   5.918   6.759   0.336 -0.7425  1.4572  1.1514
 6807TIP3    H241981   5.953   6.612   0.325 -0.2481  1.7262 -1.4630
 6808TIP3   OH241982   3.795   5.230   1.568 -0.3490  0.5991 -0.3445
 6808TIP3    H141983   3.712   5.200   1.530  0.0906 -2.9117  1.0349
 6808TIP3    H241984   3.781   5.223   1.663  1.0713  1.3565 -0.0614
 6809TIP3   OH241985   3.612   4.621   1.136 -0.2352  0.1837 -0.3397
 6809TIP3    H141986   3.596   4.629   1.042 -1.7764 -0.1476 -0.1361
 6809TIP3    H241987   3.701   4.653   1.148 -0.5262  1.6687 -1.7202
 6810TIP3   OH241988   0.941   5.262   0.219  0.4648 -0.3083 -0.5716
 6810TIP3    H141989   0.907   5.176   0.195  0.8791 -0.2429 -1.4269
 6810TIP3    H241990   0.955   5.307   0.136  3.1183 -0.5152 -0.3279
 6811TIP3   OH241991   1.182   3.467   2.353 -0.7857  0.2117  0.0836
 6811TIP3    H141992   1.138   3.544   2.317  0.7273  1.2029  0.2509
 6811TIP3    H241993   1.138   3.392   2.313 -0.3930  1.2252 -2.3648
 6812TIP3   OH241994   5.906   0.159   8.007  0.2356 -0.6599  0.2127
 6812TIP3    H141995   5.892   0.075   7.963  0.8448 -1.0916  0.8171
 6812TIP3    H241996   5.939   0.217   7.938 -1.5948 -0.4606 -0.5505
 6813TIP3   OH241997   2.208   1.868   8.625  0.1131 -0.4362 -0.1096
 6813TIP3    H141998   2.254   1.929   8.682 -0.7868 -0.7613  1.0045
 6813TIP3    H241999   2.277   1.813   8.588  0.7380 -0.0683  0.4826
 6814TIP3   OH242000   0.898   2.085   7.436 -0.1524 -0.7549 -0.2890
 6814TIP3    H142001   0.908   1.999   7.477 -2.0670 -2.2542 -2.7004
 6814TIP3    H242002   0.926   2.072   7.345  1.5671  1.7956 -0.2382
 6815TIP3   OH242003   2.948   4.925   2.183  0.0168  0.1260 -0.2419
 6815TIP3    H142004   3.022   4.981   2.158 -0.5911  0.2469 -1.9393
 6815TIP3    H242005   2.980   4.836   2.171  0.5934  0.0986  1.2768
 6816TIP3   OH242006   2.073   3.194   7.737 -0.3780 -0.1993 -0.0933
 6816TIP3    H142007   2.106   3.106   7.718  0.1661  0.1272 -0.7054
 6816TIP3    H242008   2.132   3.253   7.689  1.0460  0.6891  2.4889
 6817TIP3   OH242009   5.164   4.014   1.261  0.1922  0.2795 -0.2127
 6817TIP3    H142010   5.158   3.999   1.355 -3.0312 -2.0986 -0.6194
 6817TIP3    H242011   5.083   4.059   1.239 -0.5519 -1.7798 -2.1248
 6818TIP3   OH242012   6.566   1.741   6.919  0.5736 -0.1507 -0.0630
 6818TIP3    H142013   6.497   1.678   6.900 -0.1126 -0.5632  3.3027
 6818TIP3    H242014   6.533   1.824   6.884 -1.0061 -0.6212  0.2421
 6819TIP3   OH242015   0.874   6.307   7.795  0.6115  0.4284  0.2675
 6819TIP3    H142016   0.847   6.370   7.728  0.4641 -0.2839 -0.3573
 6819TIP3    H242017   0.856   6.221   7.756 -1.6252 -0.0182  2.0872
 6820TIP3   OH242018   2.702   2.394   8.085 -0.0167 -0.5446  0.0922
 6820TIP3    H142019   2.624   2.338   8.092  0.4701 -1.5047 -1.6750
 6820TIP3    H242020   2.704   2.442   8.168 -1.3777 -1.9449  0.9963
 6821TIP3   OH242021   6.531   4.868   8.565 -0.5703 -0.5380  0.3275
 6821TIP3    H142022   6.487   4.805   8.622  0.6896 -1.3351  0.4448
 6821TIP3    H242023   6.622   4.868   8.595 -0.6820  2.0311  0.9609
 6822TIP3   OH242024   4.478   1.278   0.295 -0.5334 -0.4644  0.1347
 6822TIP3    H142025   4.554   1.335   0.292 -1.9025  1.5622  1.1553
 6822TIP3    H242026   4.409   1.329   0.252 -1.7668 -1.4533  0.8771
 6823TIP3   OH242027   3.195   5.847   1.544 -0.4593  0.0962  0.4148
 6823TIP3    H142028   3.155   5.921   1.500  0.6949  0.8129  0.5368
 6823TIP3    H242029   3.185   5.774   1.483 -1.1284  0.4752  0.0642
 6824TIP3   OH242030   1.763   2.442   1.554  0.6664  0.2028  0.0055
 6824TIP3    H142031   1.762   2.444   1.650 -1.0492 -0.1778  0.0414
 6824TIP3    H242032   1.795   2.355   1.532 -1.8265 -0.9068  0.3664
 6825TIP3   OH242033   2.634   0.027   7.442 -0.5207  0.0453 -0.4472
 6825TIP3    H142034   2.676  -0.051   7.407 -0.0568 -0.1027  0.4059
 6825TIP3    H242035   2.541   0.003   7.449 -0.4856 -0.1972 -0.7930
 6826TIP3   OH242036   4.967   6.171   0.055  0.2034 -0.0386 -0.1433
 6826TIP3    H142037   4.986   6.118   0.132  0.0276 -0.8025 -0.6169
 6826TIP3    H242038   5.050   6.178   0.009 -0.1774 -1.6194 -1.1271
 6827TIP3   OH242039   3.556   3.808   6.988 -0.0582  0.1111 -0.3947
 6827TIP3    H142040   3.481   3.818   7.047 -0.0576  1.9916 -0.6305
 6827TIP3    H242041   3.530   3.740   6.926 -1.7698  1.0120 -0.7284
 6828TIP3   OH242042   1.286   3.619   0.333  0.0242  0.4329  0.2859
 6828TIP3    H142043   1.253   3.709   0.344  0.2577  0.3636  1.8422
 6828TIP3    H242044   1.228   3.566   0.388 -0.0232 -0.3635 -0.5100
 6829TIP3   OH242045   0.323   6.109   1.391 -0.0858  0.0238  0.3563
 6829TIP3    H142046   0.275   6.161   1.326  1.9621  2.7643  0.8748
 6829TIP3    H242047   0.276   6.025   1.393 -1.8050  0.7418 -2.7089
 6830TIP3   OH242048   4.641   2.311   7.046  0.2679  0.2763  0.0980
 6830TIP3    H142049   4.628   2.220   7.074  1.0627  0.6955  1.9675
 6830TIP3    H242050   4.655   2.360   7.127  0.0635  2.0548 -0.8774
 6831TIP3   OH242051   3.527   0.522   0.633 -0.3427 -0.1001 -0.0249
 6831TIP3    H142052   3.603   0.570   0.667 -1.3662  0.9364  0.8721
 6831TIP3    H242053   3.452   0.576   0.656 -1.3465 -0.9499 -1.1828
 6832TIP3   OH242054   5.918   5.245   7.134 -0.4130  0.4809 -0.5336
 6832TIP3    H142055   5.969   5.230   7.054 -0.4240  0.4536 -0.5356
 6832TIP3    H242056   5.842   5.188   7.125  0.4590 -0.8445  0.3104
 6833TIP3   OH242057   3.888   3.104   8.571  0.4322 -0.4479  0.6115
 6833TIP3    H142058   3.910   3.062   8.654 -1.0682  0.7348  1.6784
 6833TIP3    H242059   3.808   3.059   8.543  0.8284 -0.7115 -0.1004
 6834TIP3   OH242060   2.550   5.299   7.221 -0.1032  0.3928  0.2481
 6834TIP3    H142061   2.548   5.392   7.196 -1.4473  0.3873  0.2289
 6834TIP3    H242062   2.529   5.299   7.315  1.1248  0.1715  0.5373
 6835TIP3   OH242063   1.523   3.428   7.433 -0.7908  0.1138  1.1254
 6835TIP3    H142064   1.609   3.451   7.467  0.0942 -0.1972 -0.7799
 6835TIP3    H242065   1.521   3.466   7.345 -1.9826 -1.2065  0.5376
 6836TIP3   OH242066   3.816   1.387   1.586 -0.1754  0.3642 -0.3597
 6836TIP3    H142067   3.817   1.480   1.611 -0.7057  0.3971 -0.4576
 6836TIP3    H242068   3.810   1.341   1.669  0.5558  0.4009 -0.2814
 6837TIP3   OH242069   0.739   3.494   6.923  0.3590  0.0258 -0.3392
 6837TIP3    H142070   0.787   3.446   6.991  1.0358  1.5890  0.3683
 6837TIP3    H242071   0.707   3.572   6.968  0.7823  1.0887 -1.7849
 6838TIP3   OH242072   6.541   0.786   7.188  0.5269  0.4554 -0.8621
 6838TIP3    H142073   6.620   0.840   7.192  0.6461  0.2007  1.3376
 6838TIP3    H242074   6.472   0.846   7.161  0.9723  1.3241 -0.1133
 6839TIP3   OH242075   4.362   1.051   0.380 -0.3493 -0.0796  0.2412
 6839TIP3    H142076   4.415   1.125   0.348 -0.3505 -0.3322 -0.3544
 6839TIP3    H242077   4.427   0.987   0.409 -0.2529 -1.0038 -1.8508
 6840TIP3   OH242078   4.357   5.807   8.698  0.0453  0.5185  0.0118
 6840TIP3    H142079   4.412   5.772   8.628 -1.6586 -2.2239 -0.0857
 6840TIP3    H242080   4.419   5.832   8.767  1.5446  0.1072 -1.1364
 6841TIP3   OH242081   0.007   3.783   7.748 -0.0388 -0.4232  0.3141
 6841TIP3    H142082   0.080   3.819   7.799  0.9204 -0.0945 -1.2224
 6841TIP3    H242083  -0.059   3.760   7.814  1.3476 -0.5276  1.7378
 6842TIP3   OH242084   4.005   0.271   6.877 -0.0380  0.6374 -0.0255
 6842TIP3    H142085   3.957   0.353   6.888  0.0207  0.8775 -1.4065
 6842TIP3    H242086   3.940   0.209   6.844 -0.2362 -0.0847  1.6048
 6843TIP3   OH242087   0.383   0.962   8.340 -0.1001 -0.1858 -0.0074
 6843TIP3    H142088   0.294   0.929   8.328  0.1319 -0.3592 -1.3426
 6843TIP3    H242089   0.389   1.038   8.283 -0.1403  1.3355  1.8963
 6844TIP3   OH242090   1.277   5.832   6.944  0.1232  0.0091 -0.2434
 6844TIP3    H142091   1.369   5.817   6.920 -0.2033 -0.7261 -1.0796
 6844TIP3    H242092   1.280   5.850   7.038  1.0665 -0.6035 -0.1385
 6845TIP3   OH242093   6.008   2.649   7.665  0.0686  1.0381 -0.1174
 6845TIP3    H142094   6.098   2.645   7.699  0.0814  0.7010 -0.1875
 6845TIP3    H242095   5.953   2.644   7.743  0.0802 -0.7068 -0.1848
 6846TIP3   OH242096   6.451   1.709   7.736  0.5117  0.3029 -0.3180
 6846TIP3    H142097   6.518   1.764   7.695  0.0940  0.5538 -0.6746
 6846TIP3    H242098   6.490   1.622   7.739  1.5019  0.7460  0.9745
 6847TIP3   OH242099   1.012   0.882   8.579 -0.6874  0.3740 -0.2312
 6847TIP3    H142100   1.080   0.820   8.606  0.5525  1.2132 -1.3029
 6847TIP3    H242101   1.011   0.876   8.484  0.1166  2.6240 -0.4423
 6848TIP3   OH242102   5.053   2.031   1.848  0.3279  0.0513 -0.3696
 6848TIP3    H142103   5.077   1.975   1.775  0.5934 -0.3865  0.0537
 6848TIP3    H242104   4.964   2.003   1.872  1.4506 -2.1401  1.6370
 6849TIP3   OH242105   2.623   0.850   1.064  0.0428 -0.3169  0.4040
 6849TIP3    H142106   2.548   0.793   1.083  0.1995 -0.2123  1.3925
 6849TIP3    H242107   2.674   0.849   1.145  0.1220  1.1088  0.3868
 6850TIP3   OH242108   3.327   4.740   0.037  0.2624  0.3020  0.7924
 6850TIP3    H142109   3.239   4.774   0.048  0.5582  0.7851  1.8183
 6850TIP3    H242110   3.346   4.749  -0.056  0.1595  2.5557  0.9423
 6851TIP3   OH242111   3.873   3.332   8.783  0.1543  0.1985 -0.1613
 6851TIP3    H142112   3.852   3.264   8.847  2.0014 -0.5215 -0.2471
 6851TIP3    H242113   3.841   3.413   8.822 -4.7021 -0.8489 -1.2662
 6852TIP3   OH242114   1.094   2.856   7.715  0.2747 -0.0055 -0.1064
 6852TIP3    H142115   1.152   2.871   7.641 -0.3625 -1.5830 -0.9836
 6852TIP3    H242116   1.006   2.867   7.679 -0.0426 -0.4402  0.5131
 6853TIP3   OH242117   4.647   0.161   1.649 -0.3143 -0.1634 -0.1301
 6853TIP3    H142118   4.624   0.072   1.674 -0.3701  0.1417  0.9584
 6853TIP3    H242119   4.663   0.206   1.732 -1.9958  1.3076 -0.5485
 6854TIP3   OH242120   1.840   2.768   7.187 -0.0329  0.5742  0.1933
 6854TIP3    H142121   1.885   2.736   7.108  0.2360  0.1081  0.5362
 6854TIP3    H242122   1.840   2.694   7.247  2.6679  1.8137  1.9163
 6855TIP3   OH242123   1.832   3.451   0.536 -0.3394  0.0355 -0.2291
 6855TIP3    H142124   1.900   3.387   0.518  0.8159  1.1290  0.0484
 6855TIP3    H242125   1.776   3.410   0.601  0.6551 -0.5192  0.2939
 6856TIP3   OH242126   5.523   0.181   7.112 -0.3911  0.1170  0.0317
 6856TIP3    H142127   5.533   0.252   7.175  0.6845 -0.8725  1.0278
 6856TIP3    H242128   5.454   0.211   7.053 -0.9193  1.3982  1.2355
 6857TIP3   OH242129   0.724   1.486   1.559 -0.0104  0.0083 -0.4744
 6857TIP3    H142130   0.775   1.421   1.607  1.6768  0.2741 -1.8212
 6857TIP3    H242131   0.634   1.456   1.567  0.3488 -0.6609  1.7177
 6858TIP3   OH242132   4.832   0.047   8.635 -0.4350  0.4787  0.0369
 6858TIP3    H142133   4.808   0.103   8.560 -2.5860  2.2777  1.9288
 6858TIP3    H242134   4.751   0.002   8.658  0.1732  0.0105  1.3442
 6859TIP3   OH242135   3.669   1.904   0.163 -0.2960  0.3729  1.0332
 6859TIP3    H142136   3.610   1.862   0.226 -0.5567  0.8670  1.1180
 6859TIP3    H242137   3.669   1.844   0.087 -0.0391 -0.1836  1.4644
 6860TIP3   OH242138   5.694   4.765   8.569  0.2947 -0.2562  0.2785
 6860TIP3    H142139   5.605   4.787   8.598  0.8714  0.2082  1.8136
 6860TIP3    H242140   5.696   4.670   8.565 -0.2282 -0.2726  0.3923
 6861TIP3   OH242141   1.470   5.023   7.634  0.3378  1.1120 -0.0850
 6861TIP3    H142142   1.472   4.948   7.694  2.2478  1.5311  0.4488
 6861TIP3    H242143   1.394   5.074   7.662 -0.7264 -0.3627 -0.1678
 6862TIP3   OH242144   4.536   5.347   7.298  0.6821 -0.2362  0.2619
 6862TIP3    H142145   4.589   5.270   7.280 -3.0804 -2.9162 -0.7633
 6862TIP3    H242146   4.523   5.388   7.213 -0.8134 -1.1325  0.0086
 6863TIP3   OH242147   4.203   1.441   1.363 -0.2709  0.1421  0.1575
 6863TIP3    H142148   4.185   1.444   1.269 -0.6377 -0.3325  0.2026
 6863TIP3    H242149   4.258   1.363   1.374 -2.1226 -1.1687  0.6058
 6864TIP3   OH242150   0.449   1.543   6.961 -0.3059  0.0192 -0.2777
 6864TIP3    H142151   0.402   1.626   6.967  0.7503  0.6973 -1.0503
 6864TIP3    H242152   0.528   1.564   6.912 -0.8305 -1.7940 -2.0421
 6865TIP3   OH242153   1.194   2.703   8.825 -0.1943  0.1692  0.3711
 6865TIP3    H142154   1.208   2.609   8.835 -0.9550  0.0438  0.2860
 6865TIP3    H242155   1.282   2.740   8.830  0.0959 -0.5244  0.6068
 6866TIP3   OH242156   2.205   6.142   8.225 -0.3216 -0.2660 -0.1992
 6866TIP3    H142157   2.162   6.209   8.277  0.1086 -0.9890  1.1292
 6866TIP3    H242158   2.292   6.132   8.264 -0.9985 -2.8611  0.8405
 6867TIP3   OH242159   2.552   5.469   0.920 -0.2114  0.0845  0.7227
 6867TIP3    H142160   2.546   5.390   0.866 -0.8929 -0.0895  1.0424
 6867TIP3    H242161   2.646   5.488   0.924 -0.2222  1.3612 -2.3372
 6868TIP3   OH242162   1.112   4.994   1.479  0.5442 -0.4640  0.2267
 6868TIP3    H142163   1.202   4.973   1.506  0.5957  0.7284  1.0262
 6868TIP3    H242164   1.057   4.935   1.531  0.6488  1.6724  2.9885
 6869TIP3   OH242165   2.734   4.766   6.787  0.0725 -0.4597  0.1298
 6869TIP3    H142166   2.719   4.833   6.720 -0.7802 -0.5937  0.1776
 6869TIP3    H242167   2.805   4.802   6.841  0.2374 -0.0035 -0.3788
 6870TIP3   OH242168   3.259   6.540   1.270  0.4080 -0.1833  1.1525
 6870TIP3    H142169   3.343   6.553   1.227  0.2612  1.5653  1.3253
 6870TIP3    H242170   3.197   6.588   1.217 -0.1717  0.0817  2.0414
 6871TIP3   OH242171   2.387   1.097   8.462  0.1624  0.8820  0.4757
 6871TIP3    H142172   2.362   1.067   8.375  0.7134 -2.0147  1.1906
 6871TIP3    H242173   2.465   1.151   8.448  2.3464 -2.2835 -0.7256
 6872TIP3   OH242174   0.968   3.380   5.899  0.0995  0.5128  0.5166
 6872TIP3    H142175   0.877   3.406   5.913  0.0511  0.2157  0.7791
 6872TIP3    H242176   1.018   3.434   5.960  0.1090  0.7353  0.3130
 6873TIP3   OH242177   0.482   5.291   1.541  0.1844 -0.1271  0.3703
 6873TIP3    H142178   0.570   5.265   1.517 -0.0243 -1.4034  0.9139
 6873TIP3    H242179   0.479   5.385   1.523  1.5831 -0.1031  0.1572
 6874TIP3   OH242180   1.921   2.227   8.262 -0.1471 -0.6824  0.0093
 6874TIP3    H142181   1.861   2.275   8.205 -0.5479 -1.1048  0.0617
 6874TIP3    H242182   1.978   2.293   8.300  0.1776 -0.3979 -0.9458
 6875TIP3   OH242183   0.552   5.570   1.854  0.2423 -0.2823  0.1884
 6875TIP3    H142184   0.534   5.542   1.944  1.0435 -0.1663  0.3903
 6875TIP3    H242185   0.579   5.491   1.809 -0.6775 -0.4469 -0.1044
 6876TIP3   OH242186   5.084   0.997   0.990  0.0492  0.4285 -0.1321
 6876TIP3    H142187   5.174   0.987   1.023 -0.5270 -0.6553  1.1757
 6876TIP3    H242188   5.086   0.954   0.904  0.1891 -1.9386  0.9842
 6877TIP3   OH242189   3.100   6.639   6.954 -0.7068  0.5648  0.5537
 6877TIP3    H142190   3.095   6.632   6.858  0.5642  0.2475  0.4897
 6877TIP3    H242191   3.185   6.678   6.970 -0.6382  0.0234  1.5821
 6878TIP3   OH242192   3.869   1.591   8.170 -0.2005  0.1133  0.2552
 6878TIP3    H142193   3.774   1.591   8.175 -0.2614 -0.5360 -0.7028
 6878TIP3    H242194   3.897   1.653   8.237 -1.2706 -0.1384  0.9527
 6879TIP3   OH242195   3.249   0.848   6.665 -0.5950 -0.2009 -0.0060
 6879TIP3    H142196   3.251   0.915   6.733  0.6921  0.2542 -0.4693
 6879TIP3    H242197   3.177   0.790   6.691  1.4388 -1.5809  3.2304
 6880TIP3   OH242198   5.845   2.911   8.671  0.0009  0.4318 -0.9029
 6880TIP3    H142199   5.928   2.937   8.711  0.9816  1.6525 -3.4811
 6880TIP3    H242200   5.857   2.818   8.649 -0.1717  0.0252  0.6164
 6881TIP3   OH242201   4.092   0.603   8.059  0.1895 -0.8062 -0.7747
 6881TIP3    H142202   4.138   0.671   8.108 -1.1855 -1.6899  1.9799
 6881TIP3    H242203   4.036   0.651   7.998  0.2465  0.5127  0.1713
 6882TIP3   OH242204   6.293   2.788   6.447 -0.0630 -0.1891  0.2827
 6882TIP3    H142205   6.357   2.756   6.383  0.3814  1.4311 -0.1216
 6882TIP3    H242206   6.341   2.787   6.530  0.7795  1.6361 -0.1187
 6883TIP3   OH242207   5.020   1.384   8.346 -0.4616 -0.6035 -0.2488
 6883TIP3    H142208   5.107   1.419   8.325 -0.6735 -0.0453 -0.2021
 6883TIP3    H242209   5.032   1.336   8.428 -0.5564  0.9897  0.7430
 6884TIP3   OH242210   4.881   0.774   7.937 -0.1869  0.2563 -0.3146
 6884TIP3    H142211   4.860   0.857   7.980  0.4772 -0.4106  1.4004
 6884TIP3    H242212   4.976   0.775   7.927 -0.0896 -0.5873  0.3922
 6885TIP3   OH242213   6.362   2.300   8.469 -0.3182  0.2338 -0.2363
 6885TIP3    H142214   6.314   2.220   8.487 -0.6220  0.0563 -1.6840
 6885TIP3    H242215   6.373   2.342   8.554 -1.4828 -0.5937  0.3405
 6886TIP3   OH242216   0.392   1.237   6.732 -0.2842  0.1920 -0.1583
 6886TIP3    H142217   0.380   1.329   6.708 -1.0462  0.1991  0.2340
 6886TIP3    H242218   0.475   1.212   6.690 -0.3647  0.8901 -0.7507
 6887TIP3   OH242219   3.589   0.950   2.459  0.2058 -0.2003  0.6854
 6887TIP3    H142220   3.614   0.867   2.419  1.0483 -0.0516  0.8971
 6887TIP3    H242221   3.639   0.954   2.540 -1.3959 -0.4523  1.7478
 6888TIP3   OH242222   2.286   1.359   8.198 -0.7489  0.0196 -0.8878
 6888TIP3    H142223   2.260   1.326   8.285 -0.1807  1.6207 -0.0728
 6888TIP3    H242224   2.234   1.438   8.187  1.6999  1.7816 -0.4260
 6889TIP3   OH242225   4.621   0.880   7.747  0.5158 -0.4155  0.1667
 6889TIP3    H142226   4.714   0.886   7.728 -0.1405  1.6091 -3.0673
 6889TIP3    H242227   4.600   0.787   7.733  2.0382 -0.9804  1.3258
 6890TIP3   OH242228   3.886   5.308   0.291 -0.6059 -0.1438  0.2558
 6890TIP3    H142229   3.860   5.393   0.256 -0.7146 -0.0544  0.5503
 6890TIP3    H242230   3.932   5.265   0.218 -3.2113 -1.0957 -0.9684
 6891TIP3   OH242231   5.480   2.331   7.483 -0.1250  0.5467 -0.9923
 6891TIP3    H142232   5.524   2.384   7.549  0.8177 -0.2456 -0.9549
 6891TIP3    H242233   5.388   2.329   7.510  0.2775  0.0893  0.3922
 6892TIP3   OH242234   5.299   2.648   7.269 -1.0240  0.5826 -0.3663
 6892TIP3    H142235   5.224   2.708   7.271 -0.9734  0.6362 -0.0280
 6892TIP3    H242236   5.261   2.562   7.286 -0.7543  0.8761  2.0633
 6893TIP3   OH242237   2.658   0.778   8.166 -0.1236  0.0647 -0.6389
 6893TIP3    H142238   2.563   0.767   8.163 -0.1670  0.6868 -1.9354
 6893TIP3    H242239   2.691   0.690   8.186 -0.9116 -0.4543 -1.5102
 6894TIP3   OH242240   2.259   3.404   8.597  0.7757  0.7902  0.0324
 6894TIP3    H142241   2.176   3.427   8.639  0.6827  0.3547  0.0932
 6894TIP3    H242242   2.326   3.430   8.660  0.5936 -1.3408  1.2208
 6895TIP3   OH242243   4.451   5.226   7.011  0.1965 -0.0963  0.2936
 6895TIP3    H142244   4.486   5.281   6.941  0.4172 -0.4369  0.1346
 6895TIP3    H242245   4.408   5.154   6.964 -3.1598  1.6818  0.3357
 6896TIP3   OH242246   1.396   5.905   8.180  0.0733  0.2781  0.4172
 6896TIP3    H142247   1.480   5.945   8.159  0.0824 -0.3448 -0.8296
 6896TIP3    H242248   1.376   5.849   8.105 -1.4955  0.4725  0.6364
 6897TIP3   OH242249   2.020   5.446   8.446  0.4961  0.4408  0.3281
 6897TIP3    H142250   2.040   5.377   8.509 -0.4001 -0.8453 -0.7479
 6897TIP3    H242251   2.083   5.516   8.466  0.7080 -0.2131  2.1486
 6898TIP3   OH242252   2.928   5.572   7.178  0.1363 -0.1191  0.1711
 6898TIP3    H142253   3.021   5.591   7.164 -0.2990  1.7367 -0.3564
 6898TIP3    H242254   2.908   5.501   7.117  1.1245 -0.3310  0.0837
 6899TIP3   OH242255   3.892   2.112   8.238  0.0935  0.7075  0.4096
 6899TIP3    H142256   3.880   2.169   8.163 -1.2078  1.0558  0.8439
 6899TIP3    H242257   3.823   2.138   8.299  0.3259 -0.4129  1.1907
 6900TIP3   OH242258   3.319   2.020   0.656 -0.4242  0.2295  0.3237
 6900TIP3    H142259   3.236   2.057   0.625 -0.8021  1.9742  3.0897
 6900TIP3    H242260   3.293   1.947   0.714  0.0894 -0.4689 -0.2988
 6901TIP3   OH242261   1.991   6.080   7.325  0.2881 -0.0477 -0.0247
 6901TIP3    H142262   2.033   6.029   7.395 -0.7999  0.1707  0.8170
 6901TIP3    H242263   2.016   6.035   7.244 -0.4150 -1.7608  0.6625
 6902TIP3   OH242264   0.110   4.284   0.993 -0.1189  0.3218  0.6708
 6902TIP3    H142265   0.149   4.369   1.018  0.4096  1.3995 -3.2115
 6902TIP3    H242266   0.024   4.306   0.959  0.3727 -0.5190 -1.2229
 6903TIP3   OH242267   1.701   6.537   0.673  0.0629 -0.3166  0.0857
 6903TIP3    H142268   1.748   6.609   0.630  0.5430 -0.0222  1.0545
 6903TIP3    H242269   1.690   6.471   0.605  0.2869  0.3617 -0.6306
 6904TIP3   OH242270   5.787   2.240   6.214  0.1096 -0.0951 -0.3167
 6904TIP3    H142271   5.870   2.286   6.203  0.4955 -0.2186  1.7126
 6904TIP3    H242272   5.733   2.299   6.267  0.2360 -1.4759  1.4373
 6905TIP3   OH242273   1.203   1.732   7.712 -0.4709 -0.3729 -0.0638
 6905TIP3    H142274   1.184   1.669   7.781  1.2630 -2.0542 -1.0246
 6905TIP3    H242275   1.181   1.686   7.631  2.8923 -0.7015 -0.9185
 6906TIP3   OH242276   6.416   3.945   2.128 -0.1087 -0.3478 -0.2663
 6906TIP3    H142277   6.423   3.969   2.036 -2.2655  1.9309  0.0493
 6906TIP3    H242278   6.429   3.850   2.129  1.6909 -0.2109 -2.6443
 6907TIP3   OH242279   6.697   5.344   7.920  0.2726  0.2806 -0.2407
 6907TIP3    H142280   6.719   5.264   7.870  0.8096 -0.2466  0.8078
 6907TIP3    H242281   6.664   5.404   7.854  0.7239 -0.4899 -1.2106
 6908TIP3   OH242282   4.088   1.813   8.584  0.3671  0.0697 -0.7123
 6908TIP3    H142283   4.176   1.777   8.593  0.6097  0.5277 -1.1616
 6908TIP3    H242284   4.065   1.842   8.672  0.5216 -0.3693 -0.5251
 6909TIP3   OH242285   0.911   0.327   1.744  0.0586  0.1885  0.4318
 6909TIP3    H142286   0.960   0.245   1.733  0.7665  0.8074 -1.2095
 6909TIP3    H242287   0.828   0.299   1.783  0.5685 -1.2192  0.5790
 6910TIP3   OH242288   5.213   4.603   0.719  0.0379 -0.7548  0.1176
 6910TIP3    H142289   5.185   4.513   0.734  0.8879 -1.2563 -1.1920
 6910TIP3    H242290   5.294   4.596   0.669  2.2424  0.6398  3.1525
 6911TIP3   OH242291   3.006   4.774   0.499 -0.2130 -0.4157 -0.1817
 6911TIP3    H142292   2.976   4.734   0.418 -1.3199 -0.8419  0.4167
 6911TIP3    H242293   3.047   4.701   0.547 -2.1804 -0.8940  0.8858
 6912TIP3   OH242294   4.544   5.837   1.799 -0.9216  0.4433  0.1553
 6912TIP3    H142295   4.619   5.812   1.853 -1.1730 -0.2524  0.1844
 6912TIP3    H242296   4.580   5.899   1.736 -0.2055 -0.2858 -0.1710
 6913TIP3   OH242297   0.635   1.019   7.349 -0.2858  0.0501 -0.5112
 6913TIP3    H142298   0.635   0.923   7.349 -0.3182  0.0505 -0.2276
 6913TIP3    H242299   0.656   1.042   7.258  2.4626 -0.2313 -0.0425
 6914TIP3   OH242300   1.234   3.878   8.103  0.0319 -0.4223  0.2949
 6914TIP3    H142301   1.320   3.842   8.125 -0.6697 -1.7380  1.0073
 6914TIP3    H242302   1.182   3.801   8.079 -1.2889  0.2133  1.0589
 6915TIP3   OH242303   4.790   4.659   7.484  0.0036  0.3261  0.4213
 6915TIP3    H142304   4.698   4.638   7.501 -0.3626  1.4620 -0.0961
 6915TIP3    H242305   4.813   4.607   7.407  0.5666 -1.9080  1.9964
 6916TIP3   OH242306   5.551   5.775   1.121 -0.1766 -0.2034 -0.2972
 6916TIP3    H142307   5.621   5.830   1.087 -0.1402 -1.2827 -2.0943
 6916TIP3    H242308   5.587   5.687   1.121 -1.3237 -0.6927 -0.6772
 6917TIP3   OH242309   1.204   3.347   1.759  0.3247 -0.2550  0.1376
 6917TIP3    H142310   1.252   3.268   1.735  1.6976 -0.0474  1.9298
 6917TIP3    H242311   1.198   3.343   1.855 -2.1653  0.3845  0.0799
 6918TIP3   OH242312   1.135   3.951   8.546  0.0290 -0.1922 -0.1431
 6918TIP3    H142313   1.169   3.904   8.622  1.8353 -0.6825 -1.1702
 6918TIP3    H242314   1.092   4.028   8.581 -0.7211 -1.2942  1.4539
 6919TIP3   OH242315   4.315   4.536   8.647  0.1094  0.0530 -0.3421
 6919TIP3    H142316   4.228   4.540   8.687  0.6395  1.5784  0.7532
 6919TIP3    H242317   4.319   4.614   8.592  1.1960  0.6585  0.5588
 6920TIP3   OH242318   5.152   1.477   7.301 -0.0271  0.5899  0.0864
 6920TIP3    H142319   5.116   1.414   7.364  0.2239  0.4870  0.1283
 6920TIP3    H242320   5.205   1.424   7.241  2.1651  1.0132  1.5242
 6921TIP3   OH242321   0.091   3.521   7.788 -0.1377  0.3077 -0.4329
 6921TIP3    H142322   0.023   3.454   7.786 -0.2480  0.4043 -0.0293
 6921TIP3    H242323   0.047   3.600   7.757  0.1030  0.1034 -1.3260
 6922TIP3   OH242324   6.101   6.324   7.259  0.5659  0.1080 -0.3008
 6922TIP3    H142325   6.164   6.396   7.250  0.3519  0.4015  0.4980
 6922TIP3    H242326   6.073   6.305   7.169  0.1381  1.4529 -0.4678
 6923TIP3   OH242327   3.049   1.687   8.215  0.0070  0.0196  0.5276
 6923TIP3    H142328   2.985   1.651   8.276 -0.0428  1.4143  1.3455
 6923TIP3    H242329   2.999   1.707   8.136 -0.1985 -0.5719  0.5065
 6924TIP3   OH242330   5.717   0.402   7.532 -0.4684  0.3066  0.0364
 6924TIP3    H142331   5.636   0.414   7.483 -1.2397  1.3313  1.4804
 6924TIP3    H242332   5.702   0.324   7.585 -0.2534  0.1404 -0.1417
 6925TIP3   OH242333   5.309   5.610   8.784  0.1056 -0.0411  0.2208
 6925TIP3    H142334   5.384   5.666   8.765  0.5444 -0.1931  1.4187
 6925TIP3    H242335   5.346   5.536   8.832 -0.9026  0.3282  1.6469
 6926TIP3   OH242336   3.401   2.310   0.216  0.4114 -0.0710 -0.5355
 6926TIP3    H142337   3.489   2.306   0.254  0.6666  2.8449 -0.6490
 6926TIP3    H242338   3.343   2.319   0.292 -0.0170 -2.9886 -0.3755
 6927TIP3   OH242339   0.310   4.173   7.157 -0.0934 -0.2380  0.0537
 6927TIP3    H142340   0.255   4.134   7.090  1.4004 -1.3402 -0.5952
 6927TIP3    H242341   0.276   4.138   7.240 -0.0936 -1.3000 -0.3710
 6928TIP3   OH242342   5.699   1.782   6.576  0.5473 -0.4968  0.2806
 6928TIP3    H142343   5.743   1.846   6.520  0.8708 -1.4286 -0.5587
 6928TIP3    H242344   5.625   1.829   6.613  1.4191  0.6865  0.5831
 6929TIP3   OH242345   1.938   1.843   7.409 -0.3457 -0.0596 -0.1137
 6929TIP3    H142346   1.898   1.927   7.433  2.3165  1.2921  0.0045
 6929TIP3    H242347   1.923   1.836   7.315  0.3386  1.1559 -0.3410
 6930TIP3   OH242348   2.732   1.535   0.636 -0.5686 -0.0426 -0.1885
 6930TIP3    H142349   2.639   1.521   0.618 -0.1695 -0.3538 -2.1730
 6930TIP3    H242350   2.761   1.455   0.678 -0.9535 -0.3859 -0.5703
 6931TIP3   OH242351   0.163   0.603   0.782 -0.1821  0.3414  0.4155
 6931TIP3    H142352   0.141   0.679   0.836 -0.1434  2.0359 -1.8203
 6931TIP3    H242353   0.204   0.640   0.704 -0.7258 -1.9422 -1.0366
 6932TIP3   OH242354   5.794   1.665   7.871  0.0015  0.2390 -0.6309
 6932TIP3    H142355   5.786   1.759   7.858 -1.6632  0.0133 -1.5167
 6932TIP3    H242356   5.705   1.636   7.891  0.4737 -1.1644 -0.4593
 6933TIP3   OH242357   1.989   1.822   0.234 -0.4271 -0.6323  0.1364
 6933TIP3    H142358   1.896   1.804   0.222 -0.4850 -0.7588  0.7524
 6933TIP3    H242359   2.029   1.735   0.238 -0.0815 -0.5777 -1.5856
 6934TIP3   OH242360   3.076   4.180   7.333  0.6068  0.3741  0.2550
 6934TIP3    H142361   3.085   4.096   7.378  1.6721  0.7301  0.7389
 6934TIP3    H242362   3.140   4.237   7.375 -0.3424  1.5431  0.1744
 6935TIP3   OH242363   4.616   6.144   8.197  0.2771  0.4345  0.6771
 6935TIP3    H142364   4.683   6.134   8.129 -0.8383 -0.5824 -0.3204
 6935TIP3    H242365   4.562   6.066   8.188 -0.6531  0.9212  1.9051
 6936TIP3   OH242366   1.893   1.248   7.398  0.2654 -0.1377 -0.1872
 6936TIP3    H142367   1.813   1.268   7.348  0.6618 -0.1723 -0.8485
 6936TIP3    H242368   1.937   1.332   7.407  1.0763 -0.3921 -1.4691
 6937TIP3   OH242369   5.929   4.063   6.921  0.4704 -0.0003 -0.3505
 6937TIP3    H142370   6.019   4.096   6.922  0.2038  0.7371  0.4107
 6937TIP3    H242371   5.875   4.142   6.930 -0.3258 -0.2192 -2.5646
 6938TIP3   OH242372   1.620   2.827   8.803  0.5753 -0.2161  0.3481
 6938TIP3    H142373   1.666   2.911   8.792  1.0279 -0.5038  0.0305
 6938TIP3    H242374   1.674   2.764   8.756  1.2577 -1.0509  2.1468
 6939TIP3   OH242375   2.579   0.284   7.435 -0.1506  0.1389 -0.2905
 6939TIP3    H142376   2.613   0.197   7.456  1.6980  0.5155 -1.4878
 6939TIP3    H242377   2.578   0.287   7.339 -2.6230  0.5759 -0.3138
 6940TIP3   OH242378   4.859   6.432   7.941  0.1374  1.3472 -0.1489
 6940TIP3    H142379   4.830   6.352   7.984  2.2754  0.9042  0.5993
 6940TIP3    H242380   4.852   6.500   8.009 -1.4157  1.8059 -0.7045
 6941TIP3   OH242381   1.470   2.818   7.883 -0.0050 -0.2512 -0.7749
 6941TIP3    H142382   1.482   2.908   7.854  0.4498 -0.0768 -0.0716
 6941TIP3    H242383   1.478   2.766   7.803 -0.1243  0.3203 -1.1608
 6942TIP3   OH242384   3.829   0.734   7.391 -0.2421  0.1390 -0.5832
 6942TIP3    H142385   3.766   0.671   7.427  0.2876 -0.6776 -1.0535
 6942TIP3    H242386   3.783   0.818   7.396 -1.4794 -0.4712 -1.1456
 6943TIP3   OH242387   1.103   4.059   7.322 -0.0190  0.1350 -0.2477
 6943TIP3    H142388   1.174   4.123   7.319  0.9526 -0.9467 -1.5769
 6943TIP3    H242389   1.064   4.063   7.234 -0.3975 -0.6099 -0.1220
 6944TIP3   OH242390   1.171   3.885   0.281 -0.1502  0.8031 -0.0219
 6944TIP3    H142391   1.156   3.977   0.305 -0.2601  0.7746  0.0173
 6944TIP3    H242392   1.259   3.885   0.244 -0.5164  1.0903 -0.9124
 6945TIP3   OH242393   3.246   5.338   1.912  0.2968  0.2901 -0.4192
 6945TIP3    H142394   3.275   5.254   1.875  2.8729  0.3432  1.1737
 6945TIP3    H242395   3.326   5.391   1.915 -1.0142  2.3723 -0.2131
 6946TIP3   OH242396   4.708   3.479   7.194 -0.2097 -0.4445  0.5453
 6946TIP3    H142397   4.713   3.412   7.127 -0.5255  0.0698 -0.0010
 6946TIP3    H242398   4.660   3.438   7.266  1.6240 -1.5735  1.1734
 6947TIP3   OH242399   0.652   0.955   1.337 -0.0930  0.5184 -0.1424
 6947TIP3    H142400   0.688   1.003   1.262  1.6186  1.5835  1.2789
 6947TIP3    H242401   0.716   0.886   1.354 -0.5179  0.2265  0.2799
 6948TIP3   OH242402   1.848   4.162   7.217  0.8225 -0.2165  0.6129
 6948TIP3    H142403   1.938   4.169   7.185  0.2822  1.8685 -0.6098
 6948TIP3    H242404   1.794   4.157   7.138 -0.2090 -0.6567  1.3177
 6949TIP3   OH242405   0.480   0.686   7.539 -0.0655  0.2620  0.4216
 6949TIP3    H142406   0.504   0.710   7.449 -1.4517  2.3762  0.5446
 6949TIP3    H242407   0.392   0.722   7.551  0.4090  0.7681  2.8997
 6950TIP3   OH242408   0.862   6.189   1.616 -0.5109 -0.0351  0.6216
 6950TIP3    H142409   0.829   6.222   1.532 -0.8470  1.3083  1.2520
 6950TIP3    H242410   0.934   6.249   1.638  0.9413 -1.5816  0.3471
 6951TIP3   OH242411   1.875   2.317   0.459  0.3239 -0.1552 -0.3494
 6951TIP3    H142412   1.864   2.233   0.414 -2.0793 -0.9863  1.5223
 6951TIP3    H242413   1.928   2.295   0.536 -0.4737 -0.0262  0.2460
 6952TIP3   OH242414   1.759   2.315   8.668  0.1129  0.3139  0.0578
 6952TIP3    H142415   1.701   2.298   8.594  0.8046  0.3039 -0.4915
 6952TIP3    H242416   1.726   2.396   8.706 -1.6499 -0.8423  1.1430
 6953TIP3   OH242417   6.496   5.494   8.463  0.1839  0.1986 -0.2560
 6953TIP3    H142418   6.472   5.408   8.496 -3.1941  0.8291 -0.7797
 6953TIP3    H242419   6.474   5.555   8.533 -3.0151  1.1092 -1.8741
 6954TIP3   OH242420   2.127   6.411   2.067 -0.1495 -0.1849  0.1643
 6954TIP3    H142421   2.047   6.461   2.049 -0.5949 -0.9660 -0.0280
 6954TIP3    H242422   2.100   6.342   2.127  0.1472 -1.0969 -0.7139
 6955TIP3   OH242423   5.049   1.489   1.822 -0.6205 -0.5285  0.4603
 6955TIP3    H142424   5.005   1.572   1.801  1.3494  0.5616  0.3799
 6955TIP3    H242425   5.026   1.472   1.913 -1.8501 -0.4534  0.1854
 6956TIP3   OH242426   5.729   5.088   0.200 -0.1462  0.3391  0.0475
 6956TIP3    H142427   5.825   5.092   0.201 -0.1638  1.0455  1.5287
 6956TIP3    H242428   5.706   5.095   0.107  1.2321 -0.0300 -0.3506
 6957TIP3   OH242429   6.319   2.004   7.832 -0.0943  0.0681 -0.1846
 6957TIP3    H142430   6.345   1.969   7.747 -0.2472  1.8026 -0.9822
 6957TIP3    H242431   6.393   1.984   7.889  0.9254  0.6846 -1.2462
 6958TIP3   OH242432   0.204   3.480   7.331 -0.7791 -0.3266  0.0800
 6958TIP3    H142433   0.217   3.429   7.251 -1.2689  1.9858 -1.5788
 6958TIP3    H242434   0.254   3.433   7.398 -0.0065 -2.1138 -1.6547
 6959TIP3   OH242435   5.136   2.466   1.660  0.1148  0.0073  0.6982
 6959TIP3    H142436   5.044   2.494   1.657 -0.6609 -2.3692 -0.3753
 6959TIP3    H242437   5.138   2.401   1.730  1.0742  0.2250  0.8841
 6960TIP3   OH242438   0.949   5.812   1.103 -0.1265  0.1641 -0.4543
 6960TIP3    H142439   0.916   5.840   1.189  1.1345  0.8123 -0.1488
 6960TIP3    H242440   0.919   5.881   1.043  0.5948  0.7340 -0.1841
 6961TIP3   OH242441   3.307   5.904   0.413  0.8636 -0.1949  0.0108
 6961TIP3    H142442   3.317   5.876   0.504 -0.0569  0.9153  0.4733
 6961TIP3    H242443   3.218   5.877   0.389  0.1976  1.6767  0.2541
 6962TIP3   OH242444   4.050   0.286   1.143  0.3172 -0.3858  0.3692
 6962TIP3    H142445   3.998   0.206   1.146 -0.7866  0.2885 -0.2291
 6962TIP3    H242446   4.077   0.301   1.234 -0.5998 -0.7152  0.7100
 6963TIP3   OH242447   1.815   1.547   0.284 -0.1718 -0.1290  0.0277
 6963TIP3    H142448   1.911   1.547   0.274 -0.3684  0.0416 -2.3154
 6963TIP3    H242449   1.799   1.606   0.358  1.4823  0.8463 -0.3414
 6964TIP3   OH242450   6.049   2.209   7.079  0.1145  0.1031  0.2737
 6964TIP3    H142451   6.035   2.266   7.155 -0.3492 -1.1549  1.1566
 6964TIP3    H242452   6.137   2.173   7.092 -0.6677 -1.5986  1.2854
 6965TIP3   OH242453   6.226   3.694   8.610  0.0232 -0.0975  0.3877
 6965TIP3    H142454   6.240   3.682   8.516 -0.8917 -1.2796  0.3754
 6965TIP3    H242455   6.196   3.784   8.619 -1.9616 -0.5861 -0.7432
 6966TIP3   OH242456   2.788   4.729   8.815 -0.3125 -0.0993 -0.1380
 6966TIP3    H142457   2.830   4.785   8.750  0.5766  0.7673  1.1176
 6966TIP3    H242458   2.701   4.765   8.826 -0.4314 -0.1882 -0.7537
 6967TIP3   OH242459   3.143   1.469   7.302 -0.6065 -0.1922 -0.4511
 6967TIP3    H142460   3.160   1.560   7.278  0.0245  0.0867  0.9856
 6967TIP3    H242461   3.127   1.425   7.218 -2.9277  1.5935 -1.0342
 6968TIP3   OH242462   3.959   2.863   0.983 -0.1959  0.7249  0.4249
 6968TIP3    H142463   3.864   2.848   0.982 -0.0638 -0.1724  0.2523
 6968TIP3    H242464   3.980   2.872   1.076 -0.1511 -1.3206  0.6677
 6969TIP3   OH242465   0.392   5.485   0.238 -0.2583  0.3409  0.8885
 6969TIP3    H142466   0.465   5.546   0.233  0.4926 -0.5448  0.7177
 6969TIP3    H242467   0.433   5.400   0.257 -1.3203 -0.0161  1.7099
 6970TIP3   OH242468   0.801   2.854   7.992  0.4210 -0.4992  0.0613
 6970TIP3    H142469   0.772   2.763   7.983  0.7843 -0.5468 -0.7902
 6970TIP3    H242470   0.834   2.877   7.905  1.8368 -0.0736  0.6830
 6971TIP3   OH242471   0.525   3.872   7.188 -0.6745 -0.5611 -0.2408
 6971TIP3    H142472   0.548   3.856   7.096  0.3721 -0.8345  0.0513
 6971TIP3    H242473   0.433   3.846   7.194 -0.9297 -0.0039 -1.3359
 6972TIP3   OH242474   5.537   5.765   8.748 -0.1460 -0.0485  0.4499
 6972TIP3    H142475   5.605   5.724   8.694  0.1261 -0.5066  1.1250
 6972TIP3    H242476   5.527   5.853   8.712 -1.4342 -0.9891 -1.6766
 6973TIP3   OH242477   2.073   0.743   1.189 -0.3728 -0.3236  0.0728
 6973TIP3    H142478   2.120   0.659   1.190  1.0312  0.3249  4.1303
 6973TIP3    H242479   1.980   0.718   1.181  0.0884 -2.1405 -0.1495
 6974TIP3   OH242480   2.377   2.543   1.441  0.0416  0.3127 -0.4081
 6974TIP3    H142481   2.398   2.500   1.523 -0.6291 -1.2880 -1.0388
 6974TIP3    H242482   2.447   2.607   1.428 -0.1852  1.0776  1.7038
 6975TIP3   OH242483   4.036   5.325   7.187 -0.5498 -0.3331  0.5674
 6975TIP3    H142484   3.975   5.259   7.222 -0.4490 -0.9851 -0.4272
 6975TIP3    H242485   4.123   5.289   7.206 -0.4427  0.6734  2.1269
 6976TIP3   OH242486   0.705   1.944   7.738 -0.0169  0.0396  0.4789
 6976TIP3    H142487   0.637   1.982   7.793  1.1937 -0.5747  2.5129
 6976TIP3    H242488   0.757   2.019   7.709  0.3881  0.2509  1.6939
 6977TIP3   OH242489   1.165   4.533   7.189 -0.3137 -0.3592  0.3406
 6977TIP3    H142490   1.072   4.517   7.173 -0.3868  0.1751  0.2015
 6977TIP3    H242491   1.172   4.628   7.191  0.4878 -0.3497 -1.1831
 6978TIP3   OH242492   3.449   2.617   8.619 -0.2444  0.5472 -0.3491
 6978TIP3    H142493   3.440   2.533   8.664 -0.0059 -0.1578 -1.5817
 6978TIP3    H242494   3.419   2.682   8.683 -1.4528 -0.5659  0.2545
 6979TIP3   OH242495   3.574   3.898   7.713  0.3404  0.6760 -0.7422
 6979TIP3    H142496   3.499   3.922   7.768  0.4423 -0.8156  0.1050
 6979TIP3    H242497   3.534   3.862   7.633  0.1242 -0.3389 -0.1937
 6980TIP3   OH242498   2.202   1.014   1.361  0.4935  0.3975  0.2365
 6980TIP3    H142499   2.159   0.933   1.330 -0.1225  1.2096 -1.1222
 6980TIP3    H242500   2.295   0.991   1.366  0.5293 -0.0085 -1.5556
 6981TIP3   OH242501   3.297   1.065   8.366  0.9714 -0.0312  0.4963
 6981TIP3    H142502   3.223   1.085   8.424  0.0925  2.1295 -1.2003
 6981TIP3    H242503   3.260   1.008   8.299  1.4294 -0.7342  0.8332
 6982TIP3   OH242504   4.480   6.100   1.225  0.1609 -0.3017  0.3804
 6982TIP3    H142505   4.471   6.110   1.131  1.4994  1.9737  0.4168
 6982TIP3    H242506   4.528   6.018   1.236  0.0752 -0.5434 -0.9148
 6983TIP3   OH242507   2.969   0.384   7.811  0.0426  0.0638 -0.6789
 6983TIP3    H142508   2.942   0.456   7.754  2.0632  0.5187 -1.1302
 6983TIP3    H242509   3.039   0.421   7.865  0.1493 -1.1847  0.0810
 6984TIP3   OH242510   3.267   0.954   1.092  0.1141  0.1462  0.7279
 6984TIP3    H142511   3.252   0.987   1.003 -0.8828 -1.0385  0.4229
 6984TIP3    H242512   3.334   1.011   1.128  2.3236 -0.7612 -1.6274
 6985TIP3   OH242513   4.036   3.515   0.920  0.5396  1.0592  0.3420
 6985TIP3    H142514   4.027   3.558   1.005 -0.0784 -0.7793  1.2660
 6985TIP3    H242515   3.946   3.509   0.886  0.4300 -0.6013  0.8426
 6986TIP3   OH242516   4.902   6.195   7.393 -0.4401 -0.4511 -0.4538
 6986TIP3    H142517   4.816   6.155   7.376  0.1749 -1.7832 -0.5010
 6986TIP3    H242518   4.941   6.140   7.460 -0.1325  0.9140  0.5253
 6987TIP3   OH242519   1.097   2.634   8.355 -0.3908 -0.2356  0.3024
 6987TIP3    H142520   1.080   2.624   8.262 -0.4151 -1.9080  0.4558
 6987TIP3    H242521   1.189   2.662   8.360  0.1588 -1.8319 -0.2013
 6988TIP3   OH242522   4.799   4.005   1.884  0.0387 -0.1244  0.4504
 6988TIP3    H142523   4.737   3.943   1.847  1.6931 -1.2163 -0.6809
 6988TIP3    H242524   4.820   3.970   1.971 -1.4144  0.6547  1.1491
 6989TIP3   OH242525   1.355   3.106   5.990 -0.0477 -0.2809  0.0550
 6989TIP3    H142526   1.375   3.017   5.962  0.9625  0.4013 -1.5250
 6989TIP3    H242527   1.287   3.136   5.929  0.1619  0.2837  0.0938
 6990TIP3   OH242528   4.911   2.284   0.520  0.1204  0.4323  0.2762
 6990TIP3    H142529   4.983   2.228   0.549 -2.1347 -2.4068  0.8459
 6990TIP3    H242530   4.873   2.318   0.601 -1.3381 -1.0932  0.2940
 6991TIP3   OH242531   3.077   3.347   6.203  0.6506 -0.3043 -0.2597
 6991TIP3    H142532   2.987   3.364   6.232  0.8705  1.3181 -0.4038
 6991TIP3    H242533   3.070   3.340   6.107  0.5195 -1.4291 -0.1792
 6992TIP3   OH242534   4.440   2.615   0.933 -0.2093 -0.3003  0.5789
 6992TIP3    H142535   4.435   2.543   0.996 -2.1991 -0.0552  0.7621
 6992TIP3    H242536   4.424   2.694   0.985 -2.4455 -0.1404 -0.2373
 6993TIP3   OH242537   1.613   4.069   0.578  0.0711 -0.6459 -0.5797
 6993TIP3    H142538   1.618   3.977   0.553  2.5275 -0.7718  0.1417
 6993TIP3    H242539   1.697   4.106   0.550 -0.1907  0.9611  0.6423
 6994TIP3   OH242540   2.372   3.803   7.366 -0.1997 -0.6990 -0.1787
 6994TIP3    H142541   2.397   3.892   7.392 -0.4177 -0.4087 -0.9371
 6994TIP3    H242542   2.448   3.749   7.389  0.1735 -0.2195 -0.2630
 6995TIP3   OH242543   0.690   3.071   0.298  0.4171  0.0713  0.0079
 6995TIP3    H142544   0.760   3.054   0.235  1.0153  0.6905  0.4910
 6995TIP3    H242545   0.735   3.101   0.377 -0.3501 -0.2971  0.5976
 6996TIP3   OH242546   2.479   5.881   0.328 -0.0754 -0.0333  0.8271
 6996TIP3    H142547   2.423   5.934   0.385 -1.6383  1.0616 -1.5505
 6996TIP3    H242548   2.535   5.944   0.284 -0.5600 -0.5431 -0.5716
 6997TIP3   OH242549   6.267   5.710   7.673 -0.3051 -0.5963 -0.0042
 6997TIP3    H142550   6.313   5.721   7.756 -0.6166 -0.9469  0.2192
 6997TIP3    H242551   6.182   5.753   7.687 -0.7031 -1.4167  0.1626
 6998TIP3   OH242552   5.936   4.700   1.319  0.3256  0.0578  0.2147
 6998TIP3    H142553   5.954   4.788   1.286 -1.9842  0.5729  0.1498
 6998TIP3    H242554   5.883   4.659   1.250  0.7348 -1.1123  0.5727
 6999TIP3   OH242555   6.766   3.125   1.471  0.3961 -0.0022 -0.4423
 6999TIP3    H142556   6.692   3.181   1.450  0.6975 -0.4664 -3.1055
 6999TIP3    H242557   6.843   3.181   1.456  0.6403 -0.4633 -0.9577
 7000TIP3   OH242558   0.550   4.836   0.840 -0.2112  0.3145  0.8018
 7000TIP3    H142559   0.571   4.904   0.903  0.1032  1.9280 -0.9527
 7000TIP3    H242560   0.634   4.798   0.816  0.0300  1.7113 -0.7432
 7001TIP3   OH242561   2.949   0.021   8.698  0.1014 -0.6944  0.3107
 7001TIP3    H142562   2.854   0.033   8.707 -0.0084  0.3190 -1.6567
 7001TIP3    H242563   2.965   0.025   8.604  2.4781  2.5811  0.6617
 7002TIP3   OH242564   4.167   5.880   2.431  0.2770 -0.2404  0.3414
 7002TIP3    H142565   4.076   5.874   2.462  0.1641 -1.4082 -0.1760
 7002TIP3    H242566   4.191   5.790   2.408  1.1105  0.2578 -0.8335
 7003TIP3   OH242567   6.123   3.165   7.406 -0.3164  0.2242  0.4564
 7003TIP3    H142568   6.152   3.225   7.337  1.3582  0.3557  1.2260
 7003TIP3    H242569   6.027   3.172   7.406 -0.2073  2.2055 -0.0888
 7004TIP3   OH242570   3.254   2.633   0.166  0.1302  0.1028  0.0166
 7004TIP3    H142571   3.270   2.639   0.072  1.3320 -0.8436  0.1329
 7004TIP3    H242572   3.217   2.545   0.178  2.9275 -1.1002  0.7332
 7005TIP3   OH242573   5.185   3.086   7.005  0.2233 -0.0891 -0.0365
 7005TIP3    H142574   5.115   3.035   6.965 -1.2167  1.6883  0.0712
 7005TIP3    H242575   5.265   3.036   6.987 -0.8255 -1.2474 -1.8006
 7006TIP3   OH242576   1.168   4.508   2.028 -0.3417 -0.6492 -0.5579
 7006TIP3    H142577   1.116   4.430   2.014 -0.2220 -0.9134  0.4256
 7006TIP3    H242578   1.194   4.504   2.120  2.3265 -1.1110 -1.2375
 7007TIP3   OH242579   3.482   0.258   8.237  0.0073 -0.2070 -0.0262
 7007TIP3    H142580   3.566   0.242   8.194 -0.7406 -0.9716 -1.2796
 7007TIP3    H242581   3.493   0.342   8.282  0.5487  1.1583 -2.5188
 7008TIP3   OH242582   4.066   2.708   8.358  0.4716  0.1820 -0.6183
 7008TIP3    H142583   4.126   2.707   8.433 -0.6946 -0.9306  0.3405
 7008TIP3    H242584   4.123   2.726   8.283  1.5535  2.3890  0.5922
 7009TIP3   OH242585   5.555   4.957   2.671 -0.3110 -0.1182  0.6310
 7009TIP3    H142586   5.635   5.004   2.698  1.4015 -1.8086 -1.1603
 7009TIP3    H242587   5.556   4.960   2.576 -2.1306 -0.6692  0.5570
 7010TIP3   OH242588   2.496   0.399   8.187 -0.0435 -0.0040  0.2544
 7010TIP3    H142589   2.436   0.458   8.141 -0.0161 -0.0151  0.2036
 7010TIP3    H242590   2.580   0.410   8.142  0.1039  0.3357  0.6052
 7011TIP3   OH242591   2.841   4.256   0.629  0.4436 -0.2428 -0.5611
 7011TIP3    H142592   2.830   4.320   0.700  1.2191 -0.5496 -0.1544
 7011TIP3    H242593   2.761   4.204   0.631 -0.7863  1.4511 -1.6912
 7012TIP3   OH242594   1.829   4.508   1.713  0.6040 -0.2262  0.0043
 7012TIP3    H142595   1.763   4.475   1.774 -0.9203  0.1565 -1.3743
 7012TIP3    H242596   1.816   4.455   1.634 -0.0447  1.7772 -1.2962
 7013TIP3   OH242597   2.016   4.829   8.726  0.5492  0.0144  0.5104
 7013TIP3    H142598   2.090   4.889   8.737  1.9562 -1.7302  0.8648
 7013TIP3    H242599   1.959   4.848   8.801  0.6146  1.3531  0.2483
 7014TIP3   OH242600   2.579   5.026   7.324  0.2690 -0.4522 -0.0196
 7014TIP3    H142601   2.511   4.974   7.366 -2.3102  2.7847  0.2491
 7014TIP3    H242602   2.534   5.070   7.252  2.2890  1.2099 -0.3665
 7015TIP3   OH242603   4.738   3.101   6.819  0.3945  0.3837 -0.0965
 7015TIP3    H142604   4.817   3.134   6.776  0.8778  0.2738  0.6972
 7015TIP3    H242605   4.749   3.006   6.820  0.1533  0.3539 -0.1668
 7016TIP3   OH242606   6.795   0.603   7.086 -0.0410  0.3338  0.0196
 7016TIP3    H142607   6.828   0.515   7.103  0.0828  0.4348  0.3205
 7016TIP3    H242608   6.704   0.591   7.060 -0.4381  0.2098  1.4036
 7017TIP3   OH242609   4.647   5.980   0.464 -0.0035  0.0324  0.4984
 7017TIP3    H142610   4.610   6.055   0.511  0.8762  0.5129  0.4654
 7017TIP3    H242611   4.610   5.903   0.506 -1.2030  0.4862  0.3077
 7018TIP3   OH242612   6.756   2.586   7.617 -0.1638  0.5567 -0.0109
 7018TIP3    H142613   6.805   2.558   7.694 -0.6525 -0.7338 -0.1467
 7018TIP3    H242614   6.746   2.680   7.628  0.8953  0.5883  0.8435
 7019TIP3   OH242615   5.509   4.254   7.429  0.9483 -0.8534 -0.0332
 7019TIP3    H142616   5.582   4.266   7.368  0.2616 -1.2155 -0.9628
 7019TIP3    H242617   5.447   4.198   7.381  0.7969 -1.9301  1.3710
 7020TIP3   OH242618   1.004   6.119   0.584  0.3198 -0.1602 -0.1955
 7020TIP3    H142619   1.029   6.131   0.493  0.7677  3.3158  0.2436
 7020TIP3    H242620   1.087   6.105   0.630  0.1090 -1.7573 -0.2744
 7021TIP3   OH242621   4.311   6.475   8.554 -0.3546  0.2673  0.3815
 7021TIP3    H142622   4.317   6.492   8.460  0.6820 -0.3235  0.3168
 7021TIP3    H242623   4.397   6.437   8.576 -1.5677 -2.3732  0.9850
 7022TIP3   OH242624   4.286   4.884   7.544  0.9613  0.4390  0.2329
 7022TIP3    H142625   4.331   4.880   7.460  0.1878 -0.1930 -0.1647
 7022TIP3    H242626   4.279   4.977   7.564  0.8210  0.6019 -0.5799
 7023TIP3   OH242627   4.420   3.735   0.509  0.0353 -0.0532  0.6996
 7023TIP3    H142628   4.334   3.728   0.552 -0.9893 -2.9627 -1.4865
 7023TIP3    H242629   4.404   3.786   0.430  0.4340 -0.1726  0.5374
 7024TIP3   OH242630   4.743   2.463   0.104 -0.1134  1.0075  0.3314
 7024TIP3    H142631   4.807   2.405   0.146 -1.6021 -1.1761 -0.2405
 7024TIP3    H242632   4.708   2.516   0.176  1.7243  1.6867  0.7667
 7025TIP3   OH242633   2.187   6.559   7.632  0.5391  0.5956  0.0006
 7025TIP3    H142634   2.179   6.501   7.708 -0.9005  1.8616  0.9007
 7025TIP3    H242635   2.112   6.619   7.640  0.0037  0.4351 -2.7466
 7026TIP3   OH242636   0.655   5.122   6.201 -0.2376  0.4840 -0.5661
 7026TIP3    H142637   0.657   5.209   6.240  1.8312  0.7439 -1.1526
 7026TIP3    H242638   0.592   5.130   6.129 -0.7675  1.2050 -0.0378
 7027TIP3   OH242639   1.185   2.982   8.710  0.0895  0.2638  0.0795
 7027TIP3    H142640   1.281   2.989   8.705 -0.0104  1.3599 -0.9585
 7027TIP3    H242641   1.169   2.914   8.774  1.5911 -0.7194 -0.5305
 7028TIP3   OH242642   6.661   3.770   0.200  0.5338 -0.1073  0.0960
 7028TIP3    H142643   6.668   3.778   0.105 -0.0061 -0.6950  0.0060
 7028TIP3    H242644   6.729   3.707   0.224  0.3031 -0.3802  0.0352
 7029TIP3   OH242645   3.032   3.672   6.125  0.0561  0.2067 -0.0257
 7029TIP3    H142646   2.997   3.759   6.148  0.8173  0.5258 -0.0325
 7029TIP3    H242647   3.093   3.652   6.195  1.6038  0.7132 -1.1785
 7030TIP3   OH242648   2.026   3.160   1.385  0.3130 -0.3544 -0.7062
 7030TIP3    H142649   1.943   3.121   1.359  1.3084 -2.5019 -0.8728
 7030TIP3    H242650   2.036   3.237   1.330 -2.0785  0.6308  0.1258
 7031TIP3   OH242651   4.511   4.673   1.472  0.0602  0.4988  0.0565
 7031TIP3    H142652   4.453   4.734   1.518 -0.0390  1.0281 -0.7545
 7031TIP3    H242653   4.470   4.587   1.484 -0.1548  0.6769  0.6423
 7032TIP3   OH242654   6.042   0.044   1.372  0.8511 -0.5141 -0.2266
 7032TIP3    H142655   5.970  -0.019   1.378  0.3436  0.0879  0.0850
 7032TIP3    H242656   6.115  -0.007   1.337  1.3252 -2.0400  2.6372
 7033TIP3   OH242657   1.083   2.143   8.097 -0.3748  0.1120  0.4689
 7033TIP3    H142658   1.125   2.186   8.171  1.6377 -1.0694  0.0950
 7033TIP3    H242659   1.107   2.051   8.106 -1.3442 -0.2976 -0.8296
 7034TIP3   OH242660   6.647   4.246   6.545  0.2449  0.2464 -0.0022
 7034TIP3    H142661   6.579   4.179   6.541  0.3820  0.0767  0.4170
 7034TIP3    H242662   6.713   4.217   6.483  1.5210 -1.3988  1.9950
 7035TIP3   OH242663   3.974   4.479   8.337 -0.3750  0.2798  0.0710
 7035TIP3    H142664   3.942   4.389   8.339 -2.1144  0.8465 -0.0884
 7035TIP3    H242665   4.064   4.473   8.306 -0.6515 -1.3481 -0.4699
 7036TIP3   OH242666   3.675   6.340   8.333  0.3516  0.5714  0.7455
 7036TIP3    H142667   3.719   6.425   8.332  1.2566  0.1142  0.1803
 7036TIP3    H242668   3.734   6.282   8.285 -0.8436 -0.0827  0.0017
 7037TIP3   OH242669   6.602   3.500   0.840  0.6316 -0.3426  0.1251
 7037TIP3    H142670   6.615   3.593   0.823  0.4907 -0.3050  0.2228
 7037TIP3    H242671   6.636   3.456   0.762  0.0901 -0.1835 -0.2003
 7038TIP3   OH242672   5.895   3.148   0.123  0.0733  0.6685  0.5495
 7038TIP3    H142673   5.887   3.057   0.151  1.4595 -0.2119 -1.6413
 7038TIP3    H242674   5.989   3.164   0.120 -0.1349  1.9142  0.1423
 7039TIP3   OH242675   2.207   0.025   8.387  0.3575  0.4774 -0.2319
 7039TIP3    H142676   2.192   0.081   8.311  0.4796  1.0680  0.1770
 7039TIP3    H242677   2.120   0.006   8.421  0.3146  0.3932 -0.3881
 7040TIP3   OH242678   2.427   3.779   8.615  0.3619  0.6578  0.3642
 7040TIP3    H142679   2.335   3.774   8.638  0.6279 -3.8048  1.2850
 7040TIP3    H242680   2.434   3.735   8.530  1.4647  3.1114 -0.9432
 7041TIP3   OH242681   4.802   1.680   1.256  0.3611 -0.2376  0.1743
 7041TIP3    H142682   4.758   1.746   1.203 -0.1648  0.0675  0.9698
 7041TIP3    H242683   4.805   1.602   1.200 -1.5996 -0.4128  0.2511
 7042TIP3   OH242684   4.420   1.675   1.820 -0.5611  0.0169  0.4412
 7042TIP3    H142685   4.396   1.684   1.728 -0.2272 -0.3292  0.3184
 7042TIP3    H242686   4.404   1.583   1.841  2.6189 -0.8150 -0.2439
 7043TIP3   OH242687   1.432   2.671   1.757  0.3802  0.2523  0.0480
 7043TIP3    H142688   1.504   2.716   1.802 -0.3860  1.6602 -0.0733
 7043TIP3    H242689   1.416   2.593   1.810  1.4832  0.3128  0.5087
 7044TIP3   OH242690   6.317   2.388   6.674 -0.5622 -0.1522 -0.1238
 7044TIP3    H142691   6.321   2.416   6.583  0.8698 -0.1819 -0.0959
 7044TIP3    H242692   6.273   2.303   6.672 -2.4302  0.7691 -0.5249
 7045TIP3   OH242693   3.114   4.144   1.977 -0.1230 -0.5366 -0.1544
 7045TIP3    H142694   3.191   4.188   2.013  0.1279 -0.2499 -1.0180
 7045TIP3    H242695   3.050   4.215   1.963  0.8062 -0.1215 -2.9492
 7046TIP3   OH242696   5.633   5.078   8.139  0.2615 -0.2901 -0.4407
 7046TIP3    H142697   5.675   5.104   8.057  0.4128 -0.6682 -0.4874
 7046TIP3    H242698   5.698   5.023   8.183  1.3416  2.1848  1.2767
 7047TIP3   OH242699   3.875   3.385   0.615  0.6161 -0.1269  0.9318
 7047TIP3    H142700   3.838   3.408   0.700  0.8252 -0.2285  1.0498
 7047TIP3    H242701   3.969   3.400   0.624  1.0926 -2.9570  1.6688
 7048TIP3   OH242702   3.291   4.369   2.011  0.1564  0.5400 -0.3686
 7048TIP3    H142703   3.220   4.415   1.966  1.7479  1.0992 -2.4863
 7048TIP3    H242704   3.316   4.427   2.083 -0.8282  0.8223 -0.2492
 7049TIP3   OH242705   2.380   4.369   7.560 -0.4040 -0.9577 -0.1037
 7049TIP3    H142706   2.374   4.407   7.472 -1.3529 -1.6027 -0.3287
 7049TIP3    H242707   2.327   4.428   7.614 -0.3859 -0.9464 -0.0984
 7050TIP3   OH242708   5.695   3.692   1.255 -0.0853 -0.1774  0.4270
 7050TIP3    H142709   5.744   3.616   1.288  1.2153  0.3400 -0.2440
 7050TIP3    H242710   5.729   3.705   1.167 -0.7043  0.8603  0.3312
 7051TIP3   OH242711   2.234   1.882   6.789  0.4623 -0.0832  0.1478
 7051TIP3    H142712   2.248   1.907   6.880 -0.6022  2.2098 -0.2476
 7051TIP3    H242713   2.295   1.937   6.739 -2.0624  2.0609 -0.7752
 7052TIP3   OH242714   4.181   6.005   6.148 -0.1501 -0.2696  0.3616
 7052TIP3    H142715   4.235   5.942   6.196  0.7522  2.6829  3.7062
 7052TIP3    H242716   4.095   6.000   6.190 -0.1378  0.5121  0.4879
 7053TIP3   OH242717   2.219   2.158   8.501  0.0896  0.1916  0.1847
 7053TIP3    H142718   2.155   2.191   8.563  0.5938  0.7125  0.4280
 7053TIP3    H242719   2.294   2.133   8.554  0.2542 -0.0256 -0.1445
 7054TIP3   OH242720   6.051   3.643   1.558 -0.0238 -0.5506 -0.0346
 7054TIP3    H142721   5.964   3.660   1.522  0.5915 -0.8249 -1.7620
 7054TIP3    H242722   6.108   3.708   1.517  0.4403  0.3547  1.9206
 7055TIP3   OH242723   4.825   5.384   0.552 -0.6343  0.2052  0.1986
 7055TIP3    H142724   4.805   5.405   0.643  2.3244  0.6618  0.8701
 7055TIP3    H242725   4.864   5.297   0.555  0.9204  0.8329 -0.3399
 7056TIP3   OH242726   0.033   2.457   1.813 -0.0958  0.2465 -0.3235
 7056TIP3    H142727   0.127   2.442   1.804  0.0661  2.3856 -3.6194
 7056TIP3    H242728   0.027   2.524   1.881  0.6474 -0.5309  0.5415
 7057TIP3   OH242729   6.582   5.474   2.355 -0.2894 -0.0018  1.0516
 7057TIP3    H142730   6.664   5.509   2.389  1.2375 -0.9662 -1.3572
 7057TIP3    H242731   6.593   5.379   2.357 -1.1807 -0.1388  0.3602
 7058TIP3   OH242732   5.902   6.642   7.926 -0.3269  0.0442  0.3320
 7058TIP3    H142733   5.983   6.646   7.977  0.2602  5.7012 -0.3384
 7058TIP3    H242734   5.835   6.613   7.988  1.5911 -1.2979  1.8965
 7059TIP3   OH242735   2.257   2.290   7.633  0.4816  0.1277 -0.3203
 7059TIP3    H142736   2.296   2.224   7.690  0.1579 -1.3507 -1.7250
 7059TIP3    H242737   2.330   2.326   7.583  0.4147 -0.6552 -0.9957
 7060TIP3   OH242738   4.387   2.944   8.000 -0.8553  0.1373 -0.7719
 7060TIP3    H142739   4.470   2.990   8.011 -0.1705 -1.2462  0.1730
 7060TIP3    H242740   4.320   3.008   8.023  0.0486  0.6869  0.4187
 7061TIP3   OH242741   2.746   0.418   8.456  0.5800  0.3239 -0.0548
 7061TIP3    H142742   2.828   0.369   8.447  1.2815  1.5058 -0.3315
 7061TIP3    H242743   2.702   0.407   8.372  1.1390  0.8734 -0.4226
 7062TIP3   OH242744   5.035   0.024   6.222 -0.3582 -0.2432  0.4264
 7062TIP3    H142745   5.091  -0.033   6.169  0.2974  0.3838  0.4395
 7062TIP3    H242746   4.946  -0.006   6.203 -0.2576  0.7545 -2.0110
 7063TIP3   OH242747   1.338   4.963   8.366  0.6249 -0.2230 -0.1938
 7063TIP3    H142748   1.247   4.992   8.369  1.1083  1.6450 -1.8402
 7063TIP3    H242749   1.378   5.004   8.442 -0.0079 -1.6005  0.9280
 7064TIP3   OH242750   0.017   1.880   0.031  0.7146  0.0905  0.1390
 7064TIP3    H142751   0.053   1.966   0.009 -0.4324  0.2401 -1.3900
 7064TIP3    H242752   0.023   1.830  -0.051  2.7150 -1.8472  1.3568
 7065TIP3   OH242753   3.451   0.605   6.677  0.0138  0.8369 -0.6551
 7065TIP3    H142754   3.368   0.559   6.689  0.2116  0.8459  0.9686
 7065TIP3    H242755   3.429   0.684   6.628 -0.6861  0.1554 -1.4776
 7066TIP3   OH242756   0.617   5.975   1.862 -0.0671  0.1431 -0.1582
 7066TIP3    H142757   0.706   5.990   1.894  0.4633  3.1523 -2.5786
 7066TIP3    H242758   0.618   5.888   1.825  2.3529  0.6397 -1.4127
 7067TIP3   OH242759   0.482   6.584   1.989  0.6068 -0.1951  0.0275
 7067TIP3    H142760   0.521   6.497   1.990  0.0909 -0.4202  1.0198
 7067TIP3    H242761   0.474   6.609   2.081 -0.7225  0.2299 -0.1836
 7068TIP3   OH242762   5.107   0.565   0.655  1.0414 -0.4200  0.1438
 7068TIP3    H142763   5.150   0.563   0.570  0.2236  0.5117 -0.3061
 7068TIP3    H242764   5.089   0.473   0.675  3.1905 -0.8519  0.3550
 7069TIP3   OH242765   1.537   3.205   6.175 -0.5620 -0.0549 -0.2518
 7069TIP3    H142766   1.487   3.153   6.112 -0.3164 -1.8675  0.9491
 7069TIP3    H242767   1.546   3.147   6.251  0.8133  1.3323  0.7017
 7070TIP3   OH242768   6.573   2.983   8.545  0.5140  0.2172  0.4418
 7070TIP3    H142769   6.503   3.022   8.599 -0.5185 -0.5686 -0.2890
 7070TIP3    H242770   6.597   3.052   8.483  0.9259  0.7465  1.1725
 7071TIP3   OH242771   4.413   4.318   8.112  0.4147 -0.1123 -0.0295
 7071TIP3    H142772   4.443   4.264   8.186 -1.3548  1.0347  1.6417
 7071TIP3    H242773   4.456   4.280   8.036  2.1594 -1.5201  1.5434
 7072TIP3   OH242774   0.193   4.388   6.328 -0.1948 -0.3949 -0.0292
 7072TIP3    H142775   0.127   4.411   6.262 -1.5020  0.9838  1.6822
 7072TIP3    H242776   0.277   4.404   6.284 -1.0101 -0.4986 -1.6861
 7073TIP3   OH242777   4.863   5.956   8.092  0.6882 -0.6648 -0.5442
 7073TIP3    H142778   4.949   5.977   8.128  0.0560  0.6143  0.3386
 7073TIP3    H242779   4.846   5.866   8.120  0.6703 -0.0705  1.5403
 7074TIP3   OH242780   0.805   0.773   0.717  0.3595 -0.8232  0.3040
 7074TIP3    H142781   0.898   0.752   0.724  0.1936 -1.0025  2.3691
 7074TIP3    H242782   0.802   0.869   0.718  0.5363 -0.8016 -0.3776
 7075TIP3   OH242783   3.507   6.615   8.477 -0.0342 -0.2023  0.2789
 7075TIP3    H142784   3.595   6.597   8.512  0.1000 -0.3778 -0.1387
 7075TIP3    H242785   3.503   6.710   8.472 -0.7269 -0.0620  2.4527
 7076TIP3   OH242786   1.258   4.558   7.881 -0.6602  0.0286 -0.9405
 7076TIP3    H142787   1.297   4.645   7.874 -1.0906  0.2458 -0.6264
 7076TIP3    H242788   1.319   4.501   7.833 -0.6534  0.5858 -1.6044
 7077TIP3   OH242789   3.734   1.220   6.602  0.9626  0.2931 -0.1221
 7077TIP3    H142790   3.691   1.297   6.639  0.6755 -0.3519  0.9247
 7077TIP3    H242791   3.761   1.248   6.514 -1.3188  0.8078 -0.7188
 7078TIP3   OH242792   2.531   3.982   6.392  0.4623 -0.4060 -0.0940
 7078TIP3    H142793   2.496   4.070   6.405  0.4039 -0.4359 -0.0521
 7078TIP3    H242794   2.513   3.936   6.474  1.5013 -0.1163  0.3140
   6.80356   6.80356   8.83951
